
     Program PWSCF v.6.3MaX starts on 26Mar2024 at 11:16:19 

     This program is part of the open-source Quantum ESPRESSO suite
     for quantum simulation of materials; please cite
         "P. Giannozzi et al., J. Phys.:Condens. Matter 21 395502 (2009);
         "P. Giannozzi et al., J. Phys.:Condens. Matter 29 465901 (2017);
          URL http://www.quantum-espresso.org", 
     in publications or presentations arising from this work. More details at
     http://www.quantum-espresso.org/quote

     Parallel version (MPI), running on     5 processors

     MPI processes distributed on     1 nodes
     R & G space division:  proc/nbgrp/npool/nimage =       5
     Waiting for input...
     Reading input from standard input

     Current dimensions of program PWSCF are:
     Max number of different atomic species (ntypx) = 10
     Max number of k-points (npk) =  40000
     Max angular momentum in pseudopotentials (lmaxx) =  3

     Subspace diagonalization in iterative solution of the eigenvalue problem:
     a serial algorithm will be used


     Parallelization info
     --------------------
     sticks:   dense  smooth     PW     G-vecs:    dense   smooth      PW
     Min          24      24      8                  178      178      36
     Max          25      25      9                  181      181      37
     Sum         121     121     43                  893      893     181



     bravais-lattice index     =            2
     lattice parameter (alat)  =       7.7100  a.u.
     unit-cell volume          =     114.5785 (a.u.)^3
     number of atoms/cell      =            1
     number of atomic types    =            1
     number of electrons       =        11.00
     number of Kohn-Sham states=           10
     kinetic-energy cutoff     =      15.0000  Ry
     charge density cutoff     =      60.0000  Ry
     convergence threshold     =      1.0E-08
     mixing beta               =       0.7000
     number of iterations used =            8  plain     mixing
     Exchange-correlation      = PBESOL ( 1  4 10  8 0 0)

     celldm(1)=   7.710000  celldm(2)=   0.000000  celldm(3)=   0.000000
     celldm(4)=   0.000000  celldm(5)=   0.000000  celldm(6)=   0.000000

     crystal axes: (cart. coord. in units of alat)
               a(1) = (  -0.500000   0.000000   0.500000 )  
               a(2) = (   0.000000   0.500000   0.500000 )  
               a(3) = (  -0.500000   0.500000   0.000000 )  

     reciprocal axes: (cart. coord. in units 2 pi/alat)
               b(1) = ( -1.000000 -1.000000  1.000000 )  
               b(2) = (  1.000000  1.000000  1.000000 )  
               b(3) = ( -1.000000  1.000000 -1.000000 )  


     PseudoPot. # 1 for Au read from file:
     /home/lorenzo/pseudos/Au/Au.pbesol-n-rrkjus_psl.1.0.0.UPF
     MD5 check sum: 09626e9411213730b9a56fcc59c03ca8
     Pseudo is Ultrasoft + core correction, Zval = 11.0
     Generated using "atomic" code by A. Dal Corso v.6.3
     Using radial grid of 1279 points,  6 beta functions with: 
                l(1) =   0
                l(2) =   0
                l(3) =   1
                l(4) =   1
                l(5) =   2
                l(6) =   2
     Q(r) pseudized with 0 coefficients 


     atomic species   valence    mass     pseudopotential
        Au            11.00   196.96600     Au( 1.00)

     48 Sym. Ops., with inversion, found



   Cartesian axes

     site n.     atom                  positions (alat units)
         1           Au  tau(   1) = (   0.0000000   0.0000000   0.0000000  )

     number of k points=     3  gaussian smearing, width (Ry)=  0.0100
                       cart. coord. in units 2pi/alat
        k(    1) = (   0.0000000   0.0000000   0.0000000), wk =   0.2500000
        k(    2) = (   0.5000000  -0.5000000   0.5000000), wk =   1.0000000
        k(    3) = (   0.0000000  -1.0000000   0.0000000), wk =   0.7500000

     Dense  grid:      893 G-vectors     FFT dimensions: (  15,  15,  15)

     Estimated max dynamical RAM per process >       1.46 MB

     Estimated total dynamical RAM >       7.30 MB

     Check: negative/imaginary core charge=   -0.000006    0.000000

     Initial potential from superposition of free atoms

     starting charge   10.99990, renormalised to   11.00000
     Starting wfcs are    9 randomized atomic wfcs +    1 random wfcs

     total cpu time spent up to now is        0.9 secs

     Self-consistent Calculation

     iteration #  1     ecut=    15.00 Ry     beta= 0.70
     Davidson diagonalization with overlap
     ethr =  1.00E-02,  avg # of iterations =  4.7

     Threshold (ethr) on eigenvalues was too large:
     Diagonalizing with lowered threshold

     Davidson diagonalization with overlap
     ethr =  9.57E-04,  avg # of iterations =  1.0

     total cpu time spent up to now is        1.0 secs

     total energy              =     -84.69908980 Ry
     Harris-Foulkes estimate   =     -84.77341170 Ry
     estimated scf accuracy    <       0.10723190 Ry

     iteration #  2     ecut=    15.00 Ry     beta= 0.70
     Davidson diagonalization with overlap
     ethr =  9.75E-04,  avg # of iterations =  2.0

     total cpu time spent up to now is        1.0 secs

     total energy              =     -84.73605661 Ry
     Harris-Foulkes estimate   =     -84.74669528 Ry
     estimated scf accuracy    <       0.02142030 Ry

     iteration #  3     ecut=    15.00 Ry     beta= 0.70
     Davidson diagonalization with overlap
     ethr =  1.95E-04,  avg # of iterations =  1.7

     total cpu time spent up to now is        1.0 secs

     total energy              =     -84.73793888 Ry
     Harris-Foulkes estimate   =     -84.73832337 Ry
     estimated scf accuracy    <       0.00141988 Ry

     iteration #  4     ecut=    15.00 Ry     beta= 0.70
     Davidson diagonalization with overlap
     ethr =  1.29E-05,  avg # of iterations =  2.0

     total cpu time spent up to now is        1.0 secs

     total energy              =     -84.73864893 Ry
     Harris-Foulkes estimate   =     -84.73857299 Ry
     estimated scf accuracy    <       0.00015411 Ry

     iteration #  5     ecut=    15.00 Ry     beta= 0.70
     Davidson diagonalization with overlap
     ethr =  1.40E-06,  avg # of iterations =  2.0

     total cpu time spent up to now is        1.0 secs

     total energy              =     -84.73841987 Ry
     Harris-Foulkes estimate   =     -84.73876907 Ry
     estimated scf accuracy    <       0.00001600 Ry

     iteration #  6     ecut=    15.00 Ry     beta= 0.70
     Davidson diagonalization with overlap
     ethr =  1.45E-07,  avg # of iterations =  3.3

     total cpu time spent up to now is        1.1 secs

     total energy              =     -84.73933294 Ry
     Harris-Foulkes estimate   =     -84.73929710 Ry
     estimated scf accuracy    <       0.00001007 Ry

     iteration #  7     ecut=    15.00 Ry     beta= 0.70
     Davidson diagonalization with overlap
     ethr =  9.16E-08,  avg # of iterations =  2.0

     total cpu time spent up to now is        1.1 secs

     total energy              =     -84.73052808 Ry
     Harris-Foulkes estimate   =     -84.73934121 Ry
     estimated scf accuracy    <       0.00001004 Ry

     iteration #  8     ecut=    15.00 Ry     beta= 0.70
     Davidson diagonalization with overlap
     ethr =  9.13E-08,  avg # of iterations =  4.0

     total cpu time spent up to now is        1.1 secs

     total energy              =     -84.71820418 Ry
     Harris-Foulkes estimate   =     -84.73696175 Ry
     estimated scf accuracy    <       0.00012721 Ry

     iteration #  9     ecut=    15.00 Ry     beta= 0.70
     Davidson diagonalization with overlap
     ethr =  9.13E-08,  avg # of iterations =  4.3

     total cpu time spent up to now is        1.1 secs

     total energy              =     -84.74008877 Ry
     Harris-Foulkes estimate   =     -84.74140030 Ry
     estimated scf accuracy    <       0.00011837 Ry

     iteration # 10     ecut=    15.00 Ry     beta= 0.70
     Davidson diagonalization with overlap
     ethr =  9.13E-08,  avg # of iterations =  3.0

     total cpu time spent up to now is        1.2 secs

     total energy              =     -84.74078284 Ry
     Harris-Foulkes estimate   =     -84.74056523 Ry
     estimated scf accuracy    <       0.00005666 Ry

     iteration # 11     ecut=    15.00 Ry     beta= 0.70
     Davidson diagonalization with overlap
     ethr =  9.13E-08,  avg # of iterations =  3.0

     total cpu time spent up to now is        1.2 secs

     total energy              =     -84.72771807 Ry
     Harris-Foulkes estimate   =     -84.74084929 Ry
     estimated scf accuracy    <       0.00008052 Ry

     iteration # 12     ecut=    15.00 Ry     beta= 0.70
     Davidson diagonalization with overlap
     ethr =  9.13E-08,  avg # of iterations =  4.0

     total cpu time spent up to now is        1.2 secs

     total energy              =     -84.73581909 Ry
     Harris-Foulkes estimate   =     -84.73868150 Ry
     estimated scf accuracy    <       0.00002817 Ry

     iteration # 13     ecut=    15.00 Ry     beta= 0.70
     Davidson diagonalization with overlap
     ethr =  9.13E-08,  avg # of iterations =  3.7

     total cpu time spent up to now is        1.2 secs

     total energy              =     -84.73755664 Ry
     Harris-Foulkes estimate   =     -84.73725280 Ry
     estimated scf accuracy    <       0.00012341 Ry

     iteration # 14     ecut=    15.00 Ry     beta= 0.70
     Davidson diagonalization with overlap
     ethr =  9.13E-08,  avg # of iterations =  3.0

     total cpu time spent up to now is        1.3 secs

     total energy              =     -84.73608334 Ry
     Harris-Foulkes estimate   =     -84.73760255 Ry
     estimated scf accuracy    <       0.00009809 Ry

     iteration # 15     ecut=    15.00 Ry     beta= 0.70
     Davidson diagonalization with overlap
     ethr =  9.13E-08,  avg # of iterations =  4.0

     total cpu time spent up to now is        1.3 secs

     total energy              =     -84.73856749 Ry
     Harris-Foulkes estimate   =     -84.73916328 Ry
     estimated scf accuracy    <       0.00001327 Ry

     iteration # 16     ecut=    15.00 Ry     beta= 0.70
     Davidson diagonalization with overlap
     ethr =  9.13E-08,  avg # of iterations =  3.3

     total cpu time spent up to now is        1.3 secs

     total energy              =     -84.72656963 Ry
     Harris-Foulkes estimate   =     -84.73971304 Ry
     estimated scf accuracy    <       0.00001754 Ry

     iteration # 17     ecut=    15.00 Ry     beta= 0.70
     Davidson diagonalization with overlap
     ethr =  9.13E-08,  avg # of iterations =  4.3

     total cpu time spent up to now is        1.3 secs

     total energy              =     -84.72616009 Ry
     Harris-Foulkes estimate   =     -84.74931961 Ry
     estimated scf accuracy    <       0.00115649 Ry

     iteration # 18     ecut=    15.00 Ry     beta= 0.70
     Davidson diagonalization with overlap
     ethr =  9.13E-08,  avg # of iterations =  4.0

     total cpu time spent up to now is        1.3 secs

     total energy              =     -84.73146884 Ry
     Harris-Foulkes estimate   =     -84.74083931 Ry
     estimated scf accuracy    <       0.00007765 Ry

     iteration # 19     ecut=    15.00 Ry     beta= 0.70
     Davidson diagonalization with overlap
     ethr =  9.13E-08,  avg # of iterations =  4.0

     total cpu time spent up to now is        1.4 secs

     total energy              =     -84.74507532 Ry
     Harris-Foulkes estimate   =     -84.75340847 Ry
     estimated scf accuracy    <       0.00156386 Ry

     iteration # 20     ecut=    15.00 Ry     beta= 0.70
     Davidson diagonalization with overlap
     ethr =  9.13E-08,  avg # of iterations =  3.7

     total cpu time spent up to now is        1.4 secs

     total energy              =     -84.74975109 Ry
     Harris-Foulkes estimate   =     -84.74800515 Ry
     estimated scf accuracy    <       0.00096565 Ry

     iteration # 21     ecut=    15.00 Ry     beta= 0.70
     Davidson diagonalization with overlap
     ethr =  9.13E-08,  avg # of iterations =  3.0

     total cpu time spent up to now is        1.4 secs

     total energy              =     -84.74967702 Ry
     Harris-Foulkes estimate   =     -84.75020994 Ry
     estimated scf accuracy    <       0.00127116 Ry

     iteration # 22     ecut=    15.00 Ry     beta= 0.70
     Davidson diagonalization with overlap
     ethr =  9.13E-08,  avg # of iterations =  3.0

     total cpu time spent up to now is        1.4 secs

     total energy              =     -84.74416946 Ry
     Harris-Foulkes estimate   =     -84.74970115 Ry
     estimated scf accuracy    <       0.00120592 Ry

     iteration # 23     ecut=    15.00 Ry     beta= 0.70
     Davidson diagonalization with overlap
     ethr =  9.13E-08,  avg # of iterations =  4.0

     total cpu time spent up to now is        1.4 secs

     total energy              =     -84.72359899 Ry
     Harris-Foulkes estimate   =     -84.74581777 Ry
     estimated scf accuracy    <       0.00065268 Ry

     iteration # 24     ecut=    15.00 Ry     beta= 0.70
     Davidson diagonalization with overlap
     ethr =  9.13E-08,  avg # of iterations =  4.0

     total cpu time spent up to now is        1.5 secs

     total energy              =     -84.73903699 Ry
     Harris-Foulkes estimate   =     -84.73972275 Ry
     estimated scf accuracy    <       0.00001799 Ry

     iteration # 25     ecut=    15.00 Ry     beta= 0.70
     Davidson diagonalization with overlap
     ethr =  9.13E-08,  avg # of iterations =  3.0

     total cpu time spent up to now is        1.5 secs

     total energy              =     -84.73942072 Ry
     Harris-Foulkes estimate   =     -84.73940403 Ry
     estimated scf accuracy    <       0.00001198 Ry

     iteration # 26     ecut=    15.00 Ry     beta= 0.70
     Davidson diagonalization with overlap
     ethr =  9.13E-08,  avg # of iterations =  2.0

     total cpu time spent up to now is        1.5 secs

     total energy              =     -84.73916067 Ry
     Harris-Foulkes estimate   =     -84.73942208 Ry
     estimated scf accuracy    <       0.00001217 Ry

     iteration # 27     ecut=    15.00 Ry     beta= 0.70
     Davidson diagonalization with overlap
     ethr =  9.13E-08,  avg # of iterations =  3.0

     total cpu time spent up to now is        1.5 secs

     total energy              =     -84.73834606 Ry
     Harris-Foulkes estimate   =     -84.73926520 Ry
     estimated scf accuracy    <       0.00001189 Ry

     iteration # 28     ecut=    15.00 Ry     beta= 0.70
     Davidson diagonalization with overlap
     ethr =  9.13E-08,  avg # of iterations =  3.3

     total cpu time spent up to now is        1.5 secs

     total energy              =     -84.73697377 Ry
     Harris-Foulkes estimate   =     -84.73887408 Ry
     estimated scf accuracy    <       0.00001898 Ry

     iteration # 29     ecut=    15.00 Ry     beta= 0.70
     Davidson diagonalization with overlap
     ethr =  9.13E-08,  avg # of iterations =  3.7

     total cpu time spent up to now is        1.5 secs

     total energy              =     -84.73820803 Ry
     Harris-Foulkes estimate   =     -84.73796936 Ry
     estimated scf accuracy    <       0.00006866 Ry

     iteration # 30     ecut=    15.00 Ry     beta= 0.70
     Davidson diagonalization with overlap
     ethr =  9.13E-08,  avg # of iterations =  3.0

     total cpu time spent up to now is        1.5 secs

     total energy              =     -84.73847274 Ry
     Harris-Foulkes estimate   =     -84.73827809 Ry
     estimated scf accuracy    <       0.00004903 Ry

     iteration # 31     ecut=    15.00 Ry     beta= 0.70
     Davidson diagonalization with overlap
     ethr =  9.13E-08,  avg # of iterations =  3.0

     total cpu time spent up to now is        1.6 secs

     total energy              =     -84.73682757 Ry
     Harris-Foulkes estimate   =     -84.73871142 Ry
     estimated scf accuracy    <       0.00002573 Ry

     iteration # 32     ecut=    15.00 Ry     beta= 0.70
     Davidson diagonalization with overlap
     ethr =  9.13E-08,  avg # of iterations =  4.0

     total cpu time spent up to now is        1.6 secs

     total energy              =     -84.72465810 Ry
     Harris-Foulkes estimate   =     -84.73963470 Ry
     estimated scf accuracy    <       0.00001556 Ry

     iteration # 33     ecut=    15.00 Ry     beta= 0.70
     Davidson diagonalization with overlap
     ethr =  9.13E-08,  avg # of iterations =  4.0

     total cpu time spent up to now is        1.6 secs

     total energy              =     -84.72767666 Ry
     Harris-Foulkes estimate   =     -84.74973135 Ry
     estimated scf accuracy    <       0.00122027 Ry

     iteration # 34     ecut=    15.00 Ry     beta= 0.70
     Davidson diagonalization with overlap
     ethr =  9.13E-08,  avg # of iterations =  4.0

     total cpu time spent up to now is        1.6 secs

     total energy              =     -84.74079002 Ry
     Harris-Foulkes estimate   =     -84.74117630 Ry
     estimated scf accuracy    <       0.00010451 Ry

     iteration # 35     ecut=    15.00 Ry     beta= 0.70
     Davidson diagonalization with overlap
     ethr =  9.13E-08,  avg # of iterations =  3.0

     total cpu time spent up to now is        1.6 secs

     total energy              =     -84.74126619 Ry
     Harris-Foulkes estimate   =     -84.74085628 Ry
     estimated scf accuracy    <       0.00007892 Ry

     iteration # 36     ecut=    15.00 Ry     beta= 0.70
     Davidson diagonalization with overlap
     ethr =  9.13E-08,  avg # of iterations =  3.0

     total cpu time spent up to now is        1.7 secs

     total energy              =     -84.74196420 Ry
     Harris-Foulkes estimate   =     -84.74150825 Ry
     estimated scf accuracy    <       0.00013326 Ry

     iteration # 37     ecut=    15.00 Ry     beta= 0.70
     Davidson diagonalization with overlap
     ethr =  9.13E-08,  avg # of iterations =  3.0

     total cpu time spent up to now is        1.7 secs

     total energy              =     -84.71356960 Ry
     Harris-Foulkes estimate   =     -84.74210268 Ry
     estimated scf accuracy    <       0.00019070 Ry

     iteration # 38     ecut=    15.00 Ry     beta= 0.70
     Davidson diagonalization with overlap
     ethr =  9.13E-08,  avg # of iterations =  4.3

     total cpu time spent up to now is        1.7 secs

     total energy              =     -84.73740330 Ry
     Harris-Foulkes estimate   =     -84.73803946 Ry
     estimated scf accuracy    <       0.00006468 Ry

     iteration # 39     ecut=    15.00 Ry     beta= 0.70
     Davidson diagonalization with overlap
     ethr =  9.13E-08,  avg # of iterations =  3.0

     total cpu time spent up to now is        1.7 secs

     total energy              =     -84.73501684 Ry
     Harris-Foulkes estimate   =     -84.73753467 Ry
     estimated scf accuracy    <       0.00010175 Ry

     iteration # 40     ecut=    15.00 Ry     beta= 0.70
     Davidson diagonalization with overlap
     ethr =  9.13E-08,  avg # of iterations =  3.3

     total cpu time spent up to now is        1.7 secs

     total energy              =     -84.73663342 Ry
     Harris-Foulkes estimate   =     -84.73580241 Ry
     estimated scf accuracy    <       0.00021367 Ry

     iteration # 41     ecut=    15.00 Ry     beta= 0.70
     Davidson diagonalization with overlap
     ethr =  9.13E-08,  avg # of iterations =  3.3

     total cpu time spent up to now is        1.7 secs

     total energy              =     -84.71435629 Ry
     Harris-Foulkes estimate   =     -84.73690673 Ry
     estimated scf accuracy    <       0.00014753 Ry

     iteration # 42     ecut=    15.00 Ry     beta= 0.70
     Davidson diagonalization with overlap
     ethr =  9.13E-08,  avg # of iterations =  4.0

     total cpu time spent up to now is        1.7 secs

     total energy              =     -84.70630246 Ry
     Harris-Foulkes estimate   =     -84.72801498 Ry
     estimated scf accuracy    <       0.00074775 Ry

     iteration # 43     ecut=    15.00 Ry     beta= 0.70
     Davidson diagonalization with overlap
     ethr =  9.13E-08,  avg # of iterations =  4.0

     total cpu time spent up to now is        1.8 secs

     total energy              =     -84.73892496 Ry
     Harris-Foulkes estimate   =     -84.73910062 Ry
     estimated scf accuracy    <       0.00001342 Ry

     iteration # 44     ecut=    15.00 Ry     beta= 0.70
     Davidson diagonalization with overlap
     ethr =  9.13E-08,  avg # of iterations =  3.0

     total cpu time spent up to now is        1.8 secs

     total energy              =     -84.73750939 Ry
     Harris-Foulkes estimate   =     -84.73897632 Ry
     estimated scf accuracy    <       0.00001614 Ry

     iteration # 45     ecut=    15.00 Ry     beta= 0.70
     Davidson diagonalization with overlap
     ethr =  9.13E-08,  avg # of iterations =  3.3

     total cpu time spent up to now is        1.8 secs

     total energy              =     -84.70657830 Ry
     Harris-Foulkes estimate   =     -84.73829400 Ry
     estimated scf accuracy    <       0.00004798 Ry

     iteration # 46     ecut=    15.00 Ry     beta= 0.70
     Davidson diagonalization with overlap
     ethr =  9.13E-08,  avg # of iterations =  4.0

     total cpu time spent up to now is        1.8 secs

     total energy              =     -84.67756198 Ry
     Harris-Foulkes estimate   =     -84.72806338 Ry
     estimated scf accuracy    <       0.00074596 Ry

     iteration # 47     ecut=    15.00 Ry     beta= 0.70
     Davidson diagonalization with overlap
     ethr =  9.13E-08,  avg # of iterations =  4.3

     total cpu time spent up to now is        1.8 secs

     total energy              =     -84.74093990 Ry
     Harris-Foulkes estimate   =     -84.74072078 Ry
     estimated scf accuracy    <       0.00006801 Ry

     iteration # 48     ecut=    15.00 Ry     beta= 0.70
     Davidson diagonalization with overlap
     ethr =  9.13E-08,  avg # of iterations =  3.7

     total cpu time spent up to now is        1.9 secs

     total energy              =     -84.71000685 Ry
     Harris-Foulkes estimate   =     -84.74292976 Ry
     estimated scf accuracy    <       0.00027955 Ry

     iteration # 49     ecut=    15.00 Ry     beta= 0.70
     Davidson diagonalization with overlap
     ethr =  9.13E-08,  avg # of iterations =  4.0

     total cpu time spent up to now is        1.9 secs

     total energy              =     -84.73592347 Ry
     Harris-Foulkes estimate   =     -84.73818117 Ry
     estimated scf accuracy    <       0.00005484 Ry

     iteration # 50     ecut=    15.00 Ry     beta= 0.70
     Davidson diagonalization with overlap
     ethr =  9.13E-08,  avg # of iterations =  3.3

     total cpu time spent up to now is        1.9 secs

     total energy              =     -84.73674777 Ry
     Harris-Foulkes estimate   =     -84.73676646 Ry
     estimated scf accuracy    <       0.00015516 Ry

     iteration # 51     ecut=    15.00 Ry     beta= 0.70
     Davidson diagonalization with overlap
     ethr =  9.13E-08,  avg # of iterations =  1.0

     total cpu time spent up to now is        1.9 secs

     total energy              =     -84.73731561 Ry
     Harris-Foulkes estimate   =     -84.73674786 Ry
     estimated scf accuracy    <       0.00015629 Ry

     iteration # 52     ecut=    15.00 Ry     beta= 0.70
     Davidson diagonalization with overlap
     ethr =  9.13E-08,  avg # of iterations =  3.3

     total cpu time spent up to now is        1.9 secs

     total energy              =     -84.73836723 Ry
     Harris-Foulkes estimate   =     -84.73820643 Ry
     estimated scf accuracy    <       0.00005239 Ry

     iteration # 53     ecut=    15.00 Ry     beta= 0.70
     Davidson diagonalization with overlap
     ethr =  9.13E-08,  avg # of iterations =  3.3

     total cpu time spent up to now is        1.9 secs

     total energy              =     -84.73720432 Ry
     Harris-Foulkes estimate   =     -84.73876841 Ry
     estimated scf accuracy    <       0.00002239 Ry

     iteration # 54     ecut=    15.00 Ry     beta= 0.70
     Davidson diagonalization with overlap
     ethr =  9.13E-08,  avg # of iterations =  4.0

     total cpu time spent up to now is        2.0 secs

     total energy              =     -84.73915553 Ry
     Harris-Foulkes estimate   =     -84.73960800 Ry
     estimated scf accuracy    <       0.00001396 Ry

     iteration # 55     ecut=    15.00 Ry     beta= 0.70
     Davidson diagonalization with overlap
     ethr =  9.13E-08,  avg # of iterations =  3.7

     total cpu time spent up to now is        2.0 secs

     total energy              =     -84.73900230 Ry
     Harris-Foulkes estimate   =     -84.74042591 Ry
     estimated scf accuracy    <       0.00004893 Ry

     iteration # 56     ecut=    15.00 Ry     beta= 0.70
     Davidson diagonalization with overlap
     ethr =  9.13E-08,  avg # of iterations =  3.3

     total cpu time spent up to now is        2.0 secs

     total energy              =     -84.73937897 Ry
     Harris-Foulkes estimate   =     -84.73976414 Ry
     estimated scf accuracy    <       0.00001836 Ry

     iteration # 57     ecut=    15.00 Ry     beta= 0.70
     Davidson diagonalization with overlap
     ethr =  9.13E-08,  avg # of iterations =  3.7

     total cpu time spent up to now is        2.0 secs

     total energy              =     -84.74067110 Ry
     Harris-Foulkes estimate   =     -84.74075943 Ry
     estimated scf accuracy    <       0.00007055 Ry

     iteration # 58     ecut=    15.00 Ry     beta= 0.70
     Davidson diagonalization with overlap
     ethr =  9.13E-08,  avg # of iterations =  4.0

     total cpu time spent up to now is        2.0 secs

     total energy              =     -84.73232166 Ry
     Harris-Foulkes estimate   =     -84.74379779 Ry
     estimated scf accuracy    <       0.00038110 Ry

     iteration # 59     ecut=    15.00 Ry     beta= 0.70
     Davidson diagonalization with overlap
     ethr =  9.13E-08,  avg # of iterations =  4.0

     total cpu time spent up to now is        2.0 secs

     total energy              =     -84.73936568 Ry
     Harris-Foulkes estimate   =     -84.73996113 Ry
     estimated scf accuracy    <       0.00002517 Ry

     iteration # 60     ecut=    15.00 Ry     beta= 0.70
     Davidson diagonalization with overlap
     ethr =  9.13E-08,  avg # of iterations =  3.7

     total cpu time spent up to now is        2.1 secs

     total energy              =     -84.73618575 Ry
     Harris-Foulkes estimate   =     -84.74156687 Ry
     estimated scf accuracy    <       0.00013639 Ry

     iteration # 61     ecut=    15.00 Ry     beta= 0.70
     Davidson diagonalization with overlap
     ethr =  9.13E-08,  avg # of iterations =  4.0

     total cpu time spent up to now is        2.1 secs

     total energy              =     -84.73735191 Ry
     Harris-Foulkes estimate   =     -84.73973714 Ry
     estimated scf accuracy    <       0.00001739 Ry

     iteration # 62     ecut=    15.00 Ry     beta= 0.70
     Davidson diagonalization with overlap
     ethr =  9.13E-08,  avg # of iterations =  3.3

     total cpu time spent up to now is        2.1 secs

     total energy              =     -84.73911565 Ry
     Harris-Foulkes estimate   =     -84.73907082 Ry
     estimated scf accuracy    <       0.00001389 Ry

     iteration # 63     ecut=    15.00 Ry     beta= 0.70
     Davidson diagonalization with overlap
     ethr =  9.13E-08,  avg # of iterations =  2.0

     total cpu time spent up to now is        2.1 secs

     total energy              =     -84.73913432 Ry
     Harris-Foulkes estimate   =     -84.73912714 Ry
     estimated scf accuracy    <       0.00001284 Ry

     iteration # 64     ecut=    15.00 Ry     beta= 0.70
     Davidson diagonalization with overlap
     ethr =  9.13E-08,  avg # of iterations =  1.0

     total cpu time spent up to now is        2.1 secs

     total energy              =     -84.73918873 Ry
     Harris-Foulkes estimate   =     -84.73913457 Ry
     estimated scf accuracy    <       0.00001266 Ry

     iteration # 65     ecut=    15.00 Ry     beta= 0.70
     Davidson diagonalization with overlap
     ethr =  9.13E-08,  avg # of iterations =  3.0

     total cpu time spent up to now is        2.1 secs

     total energy              =     -84.73919991 Ry
     Harris-Foulkes estimate   =     -84.73921513 Ry
     estimated scf accuracy    <       0.00001185 Ry

     iteration # 66     ecut=    15.00 Ry     beta= 0.70
     Davidson diagonalization with overlap
     ethr =  9.13E-08,  avg # of iterations =  2.0

     total cpu time spent up to now is        2.1 secs

     total energy              =     -84.73923469 Ry
     Harris-Foulkes estimate   =     -84.73920075 Ry
     estimated scf accuracy    <       0.00001192 Ry

     iteration # 67     ecut=    15.00 Ry     beta= 0.70
     Davidson diagonalization with overlap
     ethr =  9.13E-08,  avg # of iterations =  2.0

     total cpu time spent up to now is        2.2 secs

     total energy              =     -84.73927722 Ry
     Harris-Foulkes estimate   =     -84.73924145 Ry
     estimated scf accuracy    <       0.00001158 Ry

     iteration # 68     ecut=    15.00 Ry     beta= 0.70
     Davidson diagonalization with overlap
     ethr =  9.13E-08,  avg # of iterations =  2.0

     total cpu time spent up to now is        2.2 secs

     total energy              =     -84.73925750 Ry
     Harris-Foulkes estimate   =     -84.73928537 Ry
     estimated scf accuracy    <       0.00001120 Ry

     iteration # 69     ecut=    15.00 Ry     beta= 0.70
     Davidson diagonalization with overlap
     ethr =  9.13E-08,  avg # of iterations =  2.0

     total cpu time spent up to now is        2.2 secs

     total energy              =     -84.73480473 Ry
     Harris-Foulkes estimate   =     -84.73926018 Ry
     estimated scf accuracy    <       0.00001171 Ry

     iteration # 70     ecut=    15.00 Ry     beta= 0.70
     Davidson diagonalization with overlap
     ethr =  9.13E-08,  avg # of iterations =  4.0

     total cpu time spent up to now is        2.2 secs

     total energy              =     -84.73317478 Ry
     Harris-Foulkes estimate   =     -84.74133713 Ry
     estimated scf accuracy    <       0.00011347 Ry

     iteration # 71     ecut=    15.00 Ry     beta= 0.70
     Davidson diagonalization with overlap
     ethr =  9.13E-08,  avg # of iterations =  4.0

     total cpu time spent up to now is        2.3 secs

     total energy              =     -84.73937163 Ry
     Harris-Foulkes estimate   =     -84.73935036 Ry
     estimated scf accuracy    <       0.00001144 Ry

     iteration # 72     ecut=    15.00 Ry     beta= 0.70
     Davidson diagonalization with overlap
     ethr =  9.13E-08,  avg # of iterations =  2.0

     total cpu time spent up to now is        2.3 secs

     total energy              =     -84.73837734 Ry
     Harris-Foulkes estimate   =     -84.73937398 Ry
     estimated scf accuracy    <       0.00001148 Ry

     iteration # 73     ecut=    15.00 Ry     beta= 0.70
     Davidson diagonalization with overlap
     ethr =  9.13E-08,  avg # of iterations =  3.7

     total cpu time spent up to now is        2.3 secs

     total energy              =     -84.73852194 Ry
     Harris-Foulkes estimate   =     -84.73898019 Ry
     estimated scf accuracy    <       0.00001643 Ry

     iteration # 74     ecut=    15.00 Ry     beta= 0.70
     Davidson diagonalization with overlap
     ethr =  9.13E-08,  avg # of iterations =  3.0

     total cpu time spent up to now is        2.3 secs

     total energy              =     -84.73832919 Ry
     Harris-Foulkes estimate   =     -84.73870321 Ry
     estimated scf accuracy    <       0.00002649 Ry

     iteration # 75     ecut=    15.00 Ry     beta= 0.70
     Davidson diagonalization with overlap
     ethr =  9.13E-08,  avg # of iterations =  3.0

     total cpu time spent up to now is        2.3 secs

     total energy              =     -84.73793106 Ry
     Harris-Foulkes estimate   =     -84.73843348 Ry
     estimated scf accuracy    <       0.00004011 Ry

     iteration # 76     ecut=    15.00 Ry     beta= 0.70
     Davidson diagonalization with overlap
     ethr =  9.13E-08,  avg # of iterations =  3.0

     total cpu time spent up to now is        2.3 secs

     total energy              =     -84.73819295 Ry
     Harris-Foulkes estimate   =     -84.73805572 Ry
     estimated scf accuracy    <       0.00006435 Ry

     iteration # 77     ecut=    15.00 Ry     beta= 0.70
     Davidson diagonalization with overlap
     ethr =  9.13E-08,  avg # of iterations =  2.3

     total cpu time spent up to now is        2.4 secs

     total energy              =     -84.73784242 Ry
     Harris-Foulkes estimate   =     -84.73821080 Ry
     estimated scf accuracy    <       0.00005389 Ry

     iteration # 78     ecut=    15.00 Ry     beta= 0.70
     Davidson diagonalization with overlap
     ethr =  9.13E-08,  avg # of iterations =  3.3

     total cpu time spent up to now is        2.4 secs

     total energy              =     -84.73912419 Ry
     Harris-Foulkes estimate   =     -84.73906071 Ry
     estimated scf accuracy    <       0.00001437 Ry

     iteration # 79     ecut=    15.00 Ry     beta= 0.70
     Davidson diagonalization with overlap
     ethr =  9.13E-08,  avg # of iterations =  3.0

     total cpu time spent up to now is        2.4 secs

     total energy              =     -84.73696111 Ry
     Harris-Foulkes estimate   =     -84.73916165 Ry
     estimated scf accuracy    <       0.00001262 Ry

     iteration # 80     ecut=    15.00 Ry     beta= 0.70
     Davidson diagonalization with overlap
     ethr =  9.13E-08,  avg # of iterations =  4.0

     total cpu time spent up to now is        2.4 secs

     total energy              =     -84.73375533 Ry
     Harris-Foulkes estimate   =     -84.74025132 Ry
     estimated scf accuracy    <       0.00003860 Ry

     iteration # 81     ecut=    15.00 Ry     beta= 0.70
     Davidson diagonalization with overlap
     ethr =  9.13E-08,  avg # of iterations =  4.0

     total cpu time spent up to now is        2.5 secs

     total energy              =     -84.74244308 Ry
     Harris-Foulkes estimate   =     -84.74847840 Ry
     estimated scf accuracy    <       0.00102571 Ry

     iteration # 82     ecut=    15.00 Ry     beta= 0.70
     Davidson diagonalization with overlap
     ethr =  9.13E-08,  avg # of iterations =  3.7

     total cpu time spent up to now is        2.5 secs

     total energy              =     -84.71539232 Ry
     Harris-Foulkes estimate   =     -84.74447076 Ry
     estimated scf accuracy    <       0.00046477 Ry

     iteration # 83     ecut=    15.00 Ry     beta= 0.70
     Davidson diagonalization with overlap
     ethr =  9.13E-08,  avg # of iterations =  4.0

     total cpu time spent up to now is        2.5 secs

     total energy              =     -84.73866842 Ry
     Harris-Foulkes estimate   =     -84.73905219 Ry
     estimated scf accuracy    <       0.00001419 Ry

     iteration # 84     ecut=    15.00 Ry     beta= 0.70
     Davidson diagonalization with overlap
     ethr =  9.13E-08,  avg # of iterations =  3.0

     total cpu time spent up to now is        2.5 secs

     total energy              =     -84.73887965 Ry
     Harris-Foulkes estimate   =     -84.73881973 Ry
     estimated scf accuracy    <       0.00002085 Ry

     iteration # 85     ecut=    15.00 Ry     beta= 0.70
     Davidson diagonalization with overlap
     ethr =  9.13E-08,  avg # of iterations =  3.0

     total cpu time spent up to now is        2.6 secs

     total energy              =     -84.73821987 Ry
     Harris-Foulkes estimate   =     -84.73909166 Ry
     estimated scf accuracy    <       0.00001342 Ry

     iteration # 86     ecut=    15.00 Ry     beta= 0.70
     Davidson diagonalization with overlap
     ethr =  9.13E-08,  avg # of iterations =  3.3

     total cpu time spent up to now is        2.6 secs

     total energy              =     -84.73951483 Ry
     Harris-Foulkes estimate   =     -84.73972511 Ry
     estimated scf accuracy    <       0.00001720 Ry

     iteration # 87     ecut=    15.00 Ry     beta= 0.70
     Davidson diagonalization with overlap
     ethr =  9.13E-08,  avg # of iterations =  3.0

     total cpu time spent up to now is        2.6 secs

     total energy              =     -84.73962259 Ry
     Harris-Foulkes estimate   =     -84.73958133 Ry
     estimated scf accuracy    <       0.00001377 Ry

     iteration # 88     ecut=    15.00 Ry     beta= 0.70
     Davidson diagonalization with overlap
     ethr =  9.13E-08,  avg # of iterations =  2.0

     total cpu time spent up to now is        2.6 secs

     total energy              =     -84.73952238 Ry
     Harris-Foulkes estimate   =     -84.73963100 Ry
     estimated scf accuracy    <       0.00001483 Ry

     iteration # 89     ecut=    15.00 Ry     beta= 0.70
     Davidson diagonalization with overlap
     ethr =  9.13E-08,  avg # of iterations =  2.7

     total cpu time spent up to now is        2.6 secs

     total energy              =     -84.73917006 Ry
     Harris-Foulkes estimate   =     -84.73954701 Ry
     estimated scf accuracy    <       0.00001314 Ry

     iteration # 90     ecut=    15.00 Ry     beta= 0.70
     Davidson diagonalization with overlap
     ethr =  9.13E-08,  avg # of iterations =  3.0

     total cpu time spent up to now is        2.7 secs

     total energy              =     -84.73935899 Ry
     Harris-Foulkes estimate   =     -84.73934176 Ry
     estimated scf accuracy    <       0.00001131 Ry

     iteration # 91     ecut=    15.00 Ry     beta= 0.70
     Davidson diagonalization with overlap
     ethr =  9.13E-08,  avg # of iterations =  3.0

     total cpu time spent up to now is        2.7 secs

     total energy              =     -84.73961522 Ry
     Harris-Foulkes estimate   =     -84.73957552 Ry
     estimated scf accuracy    <       0.00001369 Ry

     iteration # 92     ecut=    15.00 Ry     beta= 0.70
     Davidson diagonalization with overlap
     ethr =  9.13E-08,  avg # of iterations =  2.0

     total cpu time spent up to now is        2.7 secs

     total energy              =     -84.73879774 Ry
     Harris-Foulkes estimate   =     -84.73962300 Ry
     estimated scf accuracy    <       0.00001463 Ry

     iteration # 93     ecut=    15.00 Ry     beta= 0.70
     Davidson diagonalization with overlap
     ethr =  9.13E-08,  avg # of iterations =  4.0

     total cpu time spent up to now is        2.7 secs

     total energy              =     -84.72990030 Ry
     Harris-Foulkes estimate   =     -84.74073221 Ry
     estimated scf accuracy    <       0.00006951 Ry

     iteration # 94     ecut=    15.00 Ry     beta= 0.70
     Davidson diagonalization with overlap
     ethr =  9.13E-08,  avg # of iterations =  4.0

     total cpu time spent up to now is        2.8 secs

     total energy              =     -84.73867004 Ry
     Harris-Foulkes estimate   =     -84.73882711 Ry
     estimated scf accuracy    <       0.00002033 Ry

     iteration # 95     ecut=    15.00 Ry     beta= 0.70
     Davidson diagonalization with overlap
     ethr =  9.13E-08,  avg # of iterations =  3.0

     total cpu time spent up to now is        2.8 secs

     total energy              =     -84.73881410 Ry
     Harris-Foulkes estimate   =     -84.73870184 Ry
     estimated scf accuracy    <       0.00002514 Ry

     iteration # 96     ecut=    15.00 Ry     beta= 0.70
     Davidson diagonalization with overlap
     ethr =  9.13E-08,  avg # of iterations =  3.0

     total cpu time spent up to now is        2.8 secs

     total energy              =     -84.73750801 Ry
     Harris-Foulkes estimate   =     -84.73893029 Ry
     estimated scf accuracy    <       0.00001689 Ry

     iteration # 97     ecut=    15.00 Ry     beta= 0.70
     Davidson diagonalization with overlap
     ethr =  9.13E-08,  avg # of iterations =  4.0

     total cpu time spent up to now is        2.8 secs

     total energy              =     -84.73908410 Ry
     Harris-Foulkes estimate   =     -84.73971048 Ry
     estimated scf accuracy    <       0.00001656 Ry

     iteration # 98     ecut=    15.00 Ry     beta= 0.70
     Davidson diagonalization with overlap
     ethr =  9.13E-08,  avg # of iterations =  3.0

     total cpu time spent up to now is        2.9 secs

     total energy              =     -84.73945258 Ry
     Harris-Foulkes estimate   =     -84.73941055 Ry
     estimated scf accuracy    <       0.00001130 Ry

     iteration # 99     ecut=    15.00 Ry     beta= 0.70
     Davidson diagonalization with overlap
     ethr =  9.13E-08,  avg # of iterations =  3.0

     total cpu time spent up to now is        2.9 secs

     total energy              =     -84.73955553 Ry
     Harris-Foulkes estimate   =     -84.73962400 Ry
     estimated scf accuracy    <       0.00001457 Ry

     iteration #100     ecut=    15.00 Ry     beta= 0.70
     Davidson diagonalization with overlap
     ethr =  9.13E-08,  avg # of iterations =  2.0

     total cpu time spent up to now is        2.9 secs

     total energy              =     -84.73942079 Ry
     Harris-Foulkes estimate   =     -84.73956685 Ry
     estimated scf accuracy    <       0.00001334 Ry

     End of self-consistent calculation

     convergence NOT achieved after 100 iterations: stopping

     Writing output data file Au.save/

     init_run     :      0.08s CPU      0.08s WALL (       1 calls)
     electrons    :      1.74s CPU      1.95s WALL (       1 calls)

     Called by init_run:
     wfcinit      :      0.00s CPU      0.00s WALL (       1 calls)
     potinit      :      0.00s CPU      0.00s WALL (       1 calls)
     hinit0       :      0.07s CPU      0.07s WALL (       1 calls)

     Called by electrons:
     c_bands      :      1.23s CPU      1.40s WALL (     101 calls)
     sum_band     :      0.27s CPU      0.30s WALL (     101 calls)
     v_of_rho     :      0.09s CPU      0.09s WALL (     101 calls)
     newd         :      0.10s CPU      0.11s WALL (     101 calls)
     mix_rho      :      0.03s CPU      0.03s WALL (     101 calls)

     Called by c_bands:
     init_us_2    :      0.02s CPU      0.02s WALL (     609 calls)
     cegterg      :      1.18s CPU      1.35s WALL (     303 calls)

     Called by sum_band:
     sum_band:bec :      0.00s CPU      0.00s WALL (     303 calls)
     addusdens    :      0.10s CPU      0.11s WALL (     101 calls)

     Called by *egterg:
     h_psi        :      0.67s CPU      0.77s WALL (    1278 calls)
     s_psi        :      0.02s CPU      0.02s WALL (    1278 calls)
     g_psi        :      0.00s CPU      0.00s WALL (     972 calls)
     cdiaghg      :      0.33s CPU      0.37s WALL (    1272 calls)

     Called by h_psi:
     h_psi:pot    :      0.66s CPU      0.77s WALL (    1278 calls)
     h_psi:calbec :      0.04s CPU      0.05s WALL (    1278 calls)
     vloc_psi     :      0.59s CPU      0.68s WALL (    1278 calls)
     add_vuspsi   :      0.02s CPU      0.02s WALL (    1278 calls)

     General routines
     calbec       :      0.05s CPU      0.05s WALL (    1581 calls)
     fft          :      0.05s CPU      0.05s WALL (    1114 calls)
     ffts         :      0.00s CPU      0.00s WALL (     101 calls)
     fftw         :      0.63s CPU      0.72s WALL (   22336 calls)
     davcio       :      0.00s CPU      0.00s WALL (      21 calls)

     Parallel routines
     fft_scatt_xy :      0.07s CPU      0.08s WALL (   23551 calls)
     fft_scatt_yz :      0.30s CPU      0.34s WALL (   23551 calls)

     PWSCF        :     2.68s CPU         2.92s WALL


   This run was terminated on:  11:16:22  26Mar2024            

=------------------------------------------------------------------------------=
   JOB DONE.
=------------------------------------------------------------------------------=
