
     Program PWSCF v.6.3MaX starts on 26Mar2024 at 11:59: 0 

     This program is part of the open-source Quantum ESPRESSO suite
     for quantum simulation of materials; please cite
         "P. Giannozzi et al., J. Phys.:Condens. Matter 21 395502 (2009);
         "P. Giannozzi et al., J. Phys.:Condens. Matter 29 465901 (2017);
          URL http://www.quantum-espresso.org", 
     in publications or presentations arising from this work. More details at
     http://www.quantum-espresso.org/quote

     Parallel version (MPI), running on     5 processors

     MPI processes distributed on     1 nodes
     R & G space division:  proc/nbgrp/npool/nimage =       5
     Waiting for input...
     Reading input from standard input

     Current dimensions of program PWSCF are:
     Max number of different atomic species (ntypx) = 10
     Max number of k-points (npk) =  40000
     Max angular momentum in pseudopotentials (lmaxx) =  3
               file Au.pbesol-n-kjpaw_psl.1.0.0.UPF: wavefunction(s)  6S 5D renormalized

     Subspace diagonalization in iterative solution of the eigenvalue problem:
     a serial algorithm will be used


     Parallelization info
     --------------------
     sticks:   dense  smooth     PW     G-vecs:    dense   smooth      PW
     Min         103     103     25                 1597     1597     192
     Max         104     104     26                 1600     1600     195
     Sum         517     517    127                 7991     7991     965



     bravais-lattice index     =            2
     lattice parameter (alat)  =       7.7100  a.u.
     unit-cell volume          =     114.5785 (a.u.)^3
     number of atoms/cell      =            1
     number of atomic types    =            1
     number of electrons       =        11.00
     number of Kohn-Sham states=           10
     kinetic-energy cutoff     =      65.0000  Ry
     charge density cutoff     =     260.0000  Ry
     convergence threshold     =      1.0E-08
     mixing beta               =       0.7000
     number of iterations used =            8  plain     mixing
     Exchange-correlation      = SLA PW PSX PSC ( 1  4 10  8 0 0)

     celldm(1)=   7.710000  celldm(2)=   0.000000  celldm(3)=   0.000000
     celldm(4)=   0.000000  celldm(5)=   0.000000  celldm(6)=   0.000000

     crystal axes: (cart. coord. in units of alat)
               a(1) = (  -0.500000   0.000000   0.500000 )  
               a(2) = (   0.000000   0.500000   0.500000 )  
               a(3) = (  -0.500000   0.500000   0.000000 )  

     reciprocal axes: (cart. coord. in units 2 pi/alat)
               b(1) = ( -1.000000 -1.000000  1.000000 )  
               b(2) = (  1.000000  1.000000  1.000000 )  
               b(3) = ( -1.000000  1.000000 -1.000000 )  


     PseudoPot. # 1 for Au read from file:
     /home/lorenzo/pseudos/Au/Au.pbesol-n-kjpaw_psl.1.0.0.UPF
     MD5 check sum: abc371be705c47a6b6a6b4088b452d3e
     Pseudo is Projector augmented-wave + core cor, Zval = 11.0
     Generated using "atomic" code by A. Dal Corso v.6.3
     Shape of augmentation charge: PSQ
     Using radial grid of 1279 points,  6 beta functions with: 
                l(1) =   0
                l(2) =   0
                l(3) =   1
                l(4) =   1
                l(5) =   2
                l(6) =   2
     Q(r) pseudized with 0 coefficients 


     atomic species   valence    mass     pseudopotential
        Au            11.00   196.96600     Au( 1.00)

     48 Sym. Ops., with inversion, found



   Cartesian axes

     site n.     atom                  positions (alat units)
         1           Au  tau(   1) = (   0.0000000   0.0000000   0.0000000  )

     number of k points=     1  gaussian smearing, width (Ry)=  0.0100
                       cart. coord. in units 2pi/alat
        k(    1) = (   0.0000000   0.0000000   0.0000000), wk =   2.0000000

     Dense  grid:     7991 G-vectors     FFT dimensions: (  27,  27,  27)

     Estimated max dynamical RAM per process >       7.55 MB

     Estimated total dynamical RAM >      37.73 MB

     Initial potential from superposition of free atoms

     starting charge   10.99990, renormalised to   11.00000
     Starting wfcs are    9 randomized atomic wfcs +    1 random wfcs
     Checking if some PAW data can be deallocated... 

     total cpu time spent up to now is        1.3 secs

     Self-consistent Calculation

     iteration #  1     ecut=    65.00 Ry     beta= 0.70
     Davidson diagonalization with overlap
     ethr =  1.00E-02,  avg # of iterations = 11.0

     Threshold (ethr) on eigenvalues was too large:
     Diagonalizing with lowered threshold

     Davidson diagonalization with overlap
     ethr =  9.58E-04,  avg # of iterations =  1.0

     negative rho (up, down):  6.943E-03 0.000E+00

     total cpu time spent up to now is        1.4 secs

     total energy              =    -765.47899915 Ry
     Harris-Foulkes estimate   =    -765.51826766 Ry
     estimated scf accuracy    <       0.10563957 Ry

     iteration #  2     ecut=    65.00 Ry     beta= 0.70
     Davidson diagonalization with overlap
     ethr =  9.60E-04,  avg # of iterations =  5.0

     total cpu time spent up to now is        1.6 secs

     total energy              =    -713.24267219 Ry
     Harris-Foulkes estimate   =    -914.51184772 Ry
     estimated scf accuracy    <  208299.94683165 Ry

     iteration #  3     ecut=    65.00 Ry     beta= 0.70
     Davidson diagonalization with overlap
     ethr =  9.60E-04,  avg # of iterations =  4.0

     total cpu time spent up to now is        1.8 secs

     total energy              =    -765.47886154 Ry
     Harris-Foulkes estimate   =    -765.48364643 Ry
     estimated scf accuracy    <       0.02687181 Ry

     iteration #  4     ecut=    65.00 Ry     beta= 0.70
     Davidson diagonalization with overlap
     ethr =  2.44E-04,  avg # of iterations =  9.0

     total cpu time spent up to now is        1.9 secs

     total energy              =    -765.48035052 Ry
     Harris-Foulkes estimate   =    -765.48030534 Ry
     estimated scf accuracy    <       0.01574321 Ry

     iteration #  5     ecut=    65.00 Ry     beta= 0.70
     Davidson diagonalization with overlap
     ethr =  1.43E-04,  avg # of iterations =  1.0

     total cpu time spent up to now is        2.1 secs

     total energy              =    -765.48043273 Ry
     Harris-Foulkes estimate   =    -765.48044528 Ry
     estimated scf accuracy    <       0.01276382 Ry

     iteration #  6     ecut=    65.00 Ry     beta= 0.70
     Davidson diagonalization with overlap
     ethr =  1.16E-04,  avg # of iterations =  1.0

     total cpu time spent up to now is        2.2 secs

     total energy              =    -765.48045084 Ry
     Harris-Foulkes estimate   =    -765.48046379 Ry
     estimated scf accuracy    <       0.01184846 Ry

     iteration #  7     ecut=    65.00 Ry     beta= 0.70
     Davidson diagonalization with overlap
     ethr =  1.08E-04,  avg # of iterations =  1.0

     total cpu time spent up to now is        2.4 secs

     total energy              =    -765.48044601 Ry
     Harris-Foulkes estimate   =    -765.48046411 Ry
     estimated scf accuracy    <       0.01113698 Ry

     iteration #  8     ecut=    65.00 Ry     beta= 0.70
     Davidson diagonalization with overlap
     ethr =  1.01E-04,  avg # of iterations =  1.0

     total cpu time spent up to now is        2.5 secs

     total energy              =    -765.48044460 Ry
     Harris-Foulkes estimate   =    -765.48045212 Ry
     estimated scf accuracy    <       0.01082347 Ry

     iteration #  9     ecut=    65.00 Ry     beta= 0.70
     Davidson diagonalization with overlap
     ethr =  9.84E-05,  avg # of iterations =  1.0

     total cpu time spent up to now is        2.7 secs

     total energy              =    -765.48044359 Ry
     Harris-Foulkes estimate   =    -765.48044840 Ry
     estimated scf accuracy    <       0.01044494 Ry

     iteration # 10     ecut=    65.00 Ry     beta= 0.70
     Davidson diagonalization with overlap
     ethr =  9.50E-05,  avg # of iterations =  1.0

     total cpu time spent up to now is        2.8 secs

     total energy              =    -765.48044301 Ry
     Harris-Foulkes estimate   =    -765.48044609 Ry
     estimated scf accuracy    <       0.01024362 Ry

     iteration # 11     ecut=    65.00 Ry     beta= 0.70
     Davidson diagonalization with overlap
     ethr =  9.31E-05,  avg # of iterations =  7.0

     total cpu time spent up to now is        3.0 secs

     total energy              =    -765.48019837 Ry
     Harris-Foulkes estimate   =    -765.48044516 Ry
     estimated scf accuracy    <       0.00994852 Ry

     iteration # 12     ecut=    65.00 Ry     beta= 0.70
     Davidson diagonalization with overlap
     ethr =  9.04E-05,  avg # of iterations =  1.0

     total cpu time spent up to now is        3.1 secs

     total energy              =    -765.48013246 Ry
     Harris-Foulkes estimate   =    -765.48025096 Ry
     estimated scf accuracy    <       0.01026725 Ry

     iteration # 13     ecut=    65.00 Ry     beta= 0.70
     Davidson diagonalization with overlap
     ethr =  9.04E-05,  avg # of iterations =  1.0

     total cpu time spent up to now is        3.3 secs

     total energy              =    -765.48012613 Ry
     Harris-Foulkes estimate   =    -765.48014776 Ry
     estimated scf accuracy    <       0.00973027 Ry

     iteration # 14     ecut=    65.00 Ry     beta= 0.70
     Davidson diagonalization with overlap
     ethr =  8.85E-05,  avg # of iterations =  1.0

     total cpu time spent up to now is        3.4 secs

     total energy              =    -765.48006818 Ry
     Harris-Foulkes estimate   =    -765.48013333 Ry
     estimated scf accuracy    <       0.00969568 Ry

     iteration # 15     ecut=    65.00 Ry     beta= 0.70
     Davidson diagonalization with overlap
     ethr =  8.81E-05,  avg # of iterations =  1.0

     total cpu time spent up to now is        3.6 secs

     total energy              =    -765.47982058 Ry
     Harris-Foulkes estimate   =    -765.48007246 Ry
     estimated scf accuracy    <       0.00922088 Ry

     iteration # 16     ecut=    65.00 Ry     beta= 0.70
     Davidson diagonalization with overlap
     ethr =  8.38E-05,  avg # of iterations =  1.0

     total cpu time spent up to now is        3.8 secs

     total energy              =    -765.47981510 Ry
     Harris-Foulkes estimate   =    -765.47983242 Ry
     estimated scf accuracy    <       0.00810288 Ry

     iteration # 17     ecut=    65.00 Ry     beta= 0.70
     Davidson diagonalization with overlap
     ethr =  7.37E-05,  avg # of iterations =  1.0

     total cpu time spent up to now is        3.9 secs

     total energy              =    -765.47980665 Ry
     Harris-Foulkes estimate   =    -765.47981783 Ry
     estimated scf accuracy    <       0.00802127 Ry

     iteration # 18     ecut=    65.00 Ry     beta= 0.70
     Davidson diagonalization with overlap
     ethr =  7.29E-05,  avg # of iterations =  1.0

     total cpu time spent up to now is        4.1 secs

     total energy              =    -765.47941259 Ry
     Harris-Foulkes estimate   =    -765.47980773 Ry
     estimated scf accuracy    <       0.00787878 Ry

     iteration # 19     ecut=    65.00 Ry     beta= 0.70
     Davidson diagonalization with overlap
     ethr =  7.16E-05,  avg # of iterations =  1.0

     total cpu time spent up to now is        4.2 secs

     total energy              =    -765.47655527 Ry
     Harris-Foulkes estimate   =    -765.47944365 Ry
     estimated scf accuracy    <       0.00708659 Ry

     iteration # 20     ecut=    65.00 Ry     beta= 0.70
     Davidson diagonalization with overlap
     ethr =  6.44E-05,  avg # of iterations =  4.0

     total cpu time spent up to now is        4.4 secs

     total energy              =    -765.47573189 Ry
     Harris-Foulkes estimate   =    -765.47936526 Ry
     estimated scf accuracy    <       0.00432634 Ry

     iteration # 21     ecut=    65.00 Ry     beta= 0.70
     Davidson diagonalization with overlap
     ethr =  3.93E-05,  avg # of iterations =  7.0

     total cpu time spent up to now is        4.5 secs

     total energy              =    -765.48084581 Ry
     Harris-Foulkes estimate   =    -765.48184264 Ry
     estimated scf accuracy    <       0.01771394 Ry

     iteration # 22     ecut=    65.00 Ry     beta= 0.70
     Davidson diagonalization with overlap
     ethr =  3.93E-05,  avg # of iterations =  3.0

     total cpu time spent up to now is        4.7 secs

     total energy              =    -765.48282091 Ry
     Harris-Foulkes estimate   =    -765.48268604 Ry
     estimated scf accuracy    <       0.01657481 Ry

     iteration # 23     ecut=    65.00 Ry     beta= 0.70
     Davidson diagonalization with overlap
     ethr =  3.93E-05,  avg # of iterations =  3.0

     total cpu time spent up to now is        4.8 secs

     total energy              =    -765.47662978 Ry
     Harris-Foulkes estimate   =    -765.48406207 Ry
     estimated scf accuracy    <       0.05974772 Ry

     iteration # 24     ecut=    65.00 Ry     beta= 0.70
     Davidson diagonalization with overlap
     ethr =  3.93E-05,  avg # of iterations =  3.0

     total cpu time spent up to now is        5.0 secs

     total energy              =    -765.47971816 Ry
     Harris-Foulkes estimate   =    -765.47976489 Ry
     estimated scf accuracy    <       0.00752386 Ry

     iteration # 25     ecut=    65.00 Ry     beta= 0.70
     Davidson diagonalization with overlap
     ethr =  3.93E-05,  avg # of iterations =  1.0

     total cpu time spent up to now is        5.1 secs

     total energy              =    -765.47986193 Ry
     Harris-Foulkes estimate   =    -765.47972549 Ry
     estimated scf accuracy    <       0.00731914 Ry

     iteration # 26     ecut=    65.00 Ry     beta= 0.70
     Davidson diagonalization with overlap
     ethr =  3.93E-05,  avg # of iterations =  1.0

     total cpu time spent up to now is        5.3 secs

     total energy              =    -765.48009557 Ry
     Harris-Foulkes estimate   =    -765.47987280 Ry
     estimated scf accuracy    <       0.00714146 Ry

     iteration # 27     ecut=    65.00 Ry     beta= 0.70
     Davidson diagonalization with overlap
     ethr =  3.93E-05,  avg # of iterations =  1.0

     total cpu time spent up to now is        5.4 secs

     total energy              =    -765.47916459 Ry
     Harris-Foulkes estimate   =    -765.48010597 Ry
     estimated scf accuracy    <       0.00769280 Ry

     iteration # 28     ecut=    65.00 Ry     beta= 0.70
     Davidson diagonalization with overlap
     ethr =  3.93E-05,  avg # of iterations =  1.0

     total cpu time spent up to now is        5.6 secs

     total energy              =    -765.47833151 Ry
     Harris-Foulkes estimate   =    -765.47924336 Ry
     estimated scf accuracy    <       0.00576726 Ry

     iteration # 29     ecut=    65.00 Ry     beta= 0.70
     Davidson diagonalization with overlap
     ethr =  3.93E-05,  avg # of iterations =  2.0

     total cpu time spent up to now is        5.7 secs

     total energy              =    -765.47584442 Ry
     Harris-Foulkes estimate   =    -765.47851955 Ry
     estimated scf accuracy    <       0.00316361 Ry

     iteration # 30     ecut=    65.00 Ry     beta= 0.70
     Davidson diagonalization with overlap
     ethr =  2.88E-05,  avg # of iterations =  2.0

     total cpu time spent up to now is        5.9 secs

     total energy              =    -765.47698929 Ry
     Harris-Foulkes estimate   =    -765.47660204 Ry
     estimated scf accuracy    <       0.00118704 Ry

     iteration # 31     ecut=    65.00 Ry     beta= 0.70
     Davidson diagonalization with overlap
     ethr =  1.08E-05,  avg # of iterations =  1.0

     total cpu time spent up to now is        6.1 secs

     total energy              =    -765.47712381 Ry
     Harris-Foulkes estimate   =    -765.47702755 Ry
     estimated scf accuracy    <       0.00131689 Ry

     iteration # 32     ecut=    65.00 Ry     beta= 0.70
     Davidson diagonalization with overlap
     ethr =  1.08E-05,  avg # of iterations =  1.0

     total cpu time spent up to now is        6.2 secs

     total energy              =    -765.47750901 Ry
     Harris-Foulkes estimate   =    -765.47713411 Ry
     estimated scf accuracy    <       0.00133555 Ry

     iteration # 33     ecut=    65.00 Ry     beta= 0.70
     Davidson diagonalization with overlap
     ethr =  1.08E-05,  avg # of iterations =  2.0

     total cpu time spent up to now is        6.3 secs

     total energy              =    -765.47870159 Ry
     Harris-Foulkes estimate   =    -765.47755510 Ry
     estimated scf accuracy    <       0.00179016 Ry

     iteration # 34     ecut=    65.00 Ry     beta= 0.70
     Davidson diagonalization with overlap
     ethr =  1.08E-05,  avg # of iterations =  2.0

     total cpu time spent up to now is        6.5 secs

     total energy              =    -765.47786472 Ry
     Harris-Foulkes estimate   =    -765.47913323 Ry
     estimated scf accuracy    <       0.00513140 Ry

     iteration # 35     ecut=    65.00 Ry     beta= 0.70
     Davidson diagonalization with overlap
     ethr =  1.08E-05,  avg # of iterations =  3.0

     total cpu time spent up to now is        6.7 secs

     total energy              =    -765.47322999 Ry
     Harris-Foulkes estimate   =    -765.47808596 Ry
     estimated scf accuracy    <       0.00279922 Ry

     iteration # 36     ecut=    65.00 Ry     beta= 0.70
     Davidson diagonalization with overlap
     ethr =  1.08E-05,  avg # of iterations =  7.0

     total cpu time spent up to now is        6.8 secs

     total energy              =    -761.91758362 Ry
     Harris-Foulkes estimate   =    -773.79797884 Ry
     estimated scf accuracy    <  130747.29424517 Ry

     iteration # 37     ecut=    65.00 Ry     beta= 0.70
     Davidson diagonalization with overlap
     ethr =  1.08E-05,  avg # of iterations =  3.0

     total cpu time spent up to now is        7.0 secs

     total energy              =    -765.47702438 Ry
     Harris-Foulkes estimate   =    -765.47685424 Ry
     estimated scf accuracy    <       0.01073298 Ry

     iteration # 38     ecut=    65.00 Ry     beta= 0.70
     Davidson diagonalization with overlap
     ethr =  1.08E-05,  avg # of iterations =  2.0

     total cpu time spent up to now is        7.1 secs

     total energy              =    -765.48714115 Ry
     Harris-Foulkes estimate   =    -765.47752812 Ry
     estimated scf accuracy    <       0.25010589 Ry

     iteration # 39     ecut=    65.00 Ry     beta= 0.70
     Davidson diagonalization with overlap
     ethr =  1.08E-05,  avg # of iterations =  4.0

     negative rho (up, down):  4.350E-03 0.000E+00

     total cpu time spent up to now is        7.3 secs

     total energy              =    -873.88760274 Ry
     Harris-Foulkes estimate   =    -770.88852096 Ry
     estimated scf accuracy    <  119829.85249669 Ry

     iteration # 40     ecut=    65.00 Ry     beta= 0.70
     Davidson diagonalization with overlap
     ethr =  1.08E-05,  avg # of iterations =  3.0

     total cpu time spent up to now is        7.4 secs

     total energy              =    -652.01097705 Ry
     Harris-Foulkes estimate   =    -899.30420862 Ry
     estimated scf accuracy    <  207035.38726063 Ry

     iteration # 41     ecut=    65.00 Ry     beta= 0.70
     Davidson diagonalization with overlap
     ethr =  1.08E-05,  avg # of iterations =  6.0

     negative rho (up, down):  3.881E-03 0.000E+00

     total cpu time spent up to now is        7.6 secs

     total energy              =    -565.08185248 Ry
     Harris-Foulkes estimate   =    -792.95455439 Ry
     estimated scf accuracy    <  183692.02766327 Ry

     iteration # 42     ecut=    65.00 Ry     beta= 0.70
     Davidson diagonalization with overlap
     ethr =  1.08E-05,  avg # of iterations =  5.0

     negative rho (up, down):  9.567E-02 0.000E+00

     total cpu time spent up to now is        7.7 secs

     total energy              =   -1078.14342372 Ry
     Harris-Foulkes estimate   =    -893.94935092 Ry
     estimated scf accuracy    <  206517.62407294 Ry

     iteration # 43     ecut=    65.00 Ry     beta= 0.70
     Davidson diagonalization with overlap
     ethr =  1.08E-05,  avg # of iterations =  3.0

     negative rho (up, down):  3.318E+00 0.000E+00

     total cpu time spent up to now is        7.9 secs

     total energy              =     161.91853554 Ry
     Harris-Foulkes estimate   =   -1080.33106693 Ry
     estimated scf accuracy    <  214002.02656935 Ry

     iteration # 44     ecut=    65.00 Ry     beta= 0.70
     Davidson diagonalization with overlap
     ethr =  1.08E-05,  avg # of iterations =  7.0

     negative rho (up, down):  2.692E-01 0.000E+00

     total cpu time spent up to now is        8.1 secs

     total energy              =    -307.74627198 Ry
     Harris-Foulkes estimate   =   -1599.77591011 Ry
     estimated scf accuracy    <  215504.83245585 Ry

     iteration # 45     ecut=    65.00 Ry     beta= 0.70
     Davidson diagonalization with overlap
     ethr =  1.08E-05,  avg # of iterations =  7.0

     negative rho (up, down):  9.465E-01 0.000E+00

     total cpu time spent up to now is        8.3 secs

     total energy              =    -213.97127132 Ry
     Harris-Foulkes estimate   =   -1123.07526401 Ry
     estimated scf accuracy    <  214463.58875538 Ry

     iteration # 46     ecut=    65.00 Ry     beta= 0.70
     Davidson diagonalization with overlap
     ethr =  1.08E-05,  avg # of iterations =  7.0

     negative rho (up, down):  2.347E+00 0.000E+00

     total cpu time spent up to now is        8.5 secs

     total energy              =     479.97667590 Ry
     Harris-Foulkes estimate   =   -1221.93083546 Ry
     estimated scf accuracy    <  215878.75389582 Ry

     iteration # 47     ecut=    65.00 Ry     beta= 0.70
     Davidson diagonalization with overlap
     ethr =  1.08E-05,  avg # of iterations =  6.0

     negative rho (up, down):  6.603E+01 0.000E+00

     total cpu time spent up to now is        8.6 secs

     total energy              =   -1954.95750120 Ry
     Harris-Foulkes estimate   =   -1909.74816470 Ry
     estimated scf accuracy    <  215848.39604325 Ry

     iteration # 48     ecut=    65.00 Ry     beta= 0.70
     Davidson diagonalization with overlap
     ethr =  1.08E-05,  avg # of iterations =  4.0

     negative rho (up, down):  9.330E+01 0.000E+00

     total cpu time spent up to now is        8.8 secs

     total energy              =   -2013.49030834 Ry
     Harris-Foulkes estimate   =   -1955.89026012 Ry
     estimated scf accuracy    <  198027.65042397 Ry

     iteration # 49     ecut=    65.00 Ry     beta= 0.70
     Davidson diagonalization with overlap
     ethr =  1.08E-05,  avg # of iterations =  5.0

     negative rho (up, down):  2.365E+02 0.000E+00

     total cpu time spent up to now is        9.0 secs

     total energy              =   -2554.89914840 Ry
     Harris-Foulkes estimate   =   -2013.54347974 Ry
     estimated scf accuracy    <  190941.80330498 Ry

     iteration # 50     ecut=    65.00 Ry     beta= 0.70
     Davidson diagonalization with overlap
     ethr =  1.08E-05,  avg # of iterations =  6.0

     negative rho (up, down):  4.807E+02 0.000E+00

     total cpu time spent up to now is        9.2 secs

     total energy              =   -3677.21263524 Ry
     Harris-Foulkes estimate   =   -2555.38303092 Ry
     estimated scf accuracy    <  156146.36193076 Ry

     iteration # 51     ecut=    65.00 Ry     beta= 0.70
     Davidson diagonalization with overlap
     ethr =  1.08E-05,  avg # of iterations =  8.0

     negative rho (up, down):  7.802E+02 0.000E+00

     total cpu time spent up to now is        9.4 secs

     total energy              =   -4894.97309994 Ry
     Harris-Foulkes estimate   =   -3681.03644451 Ry
     estimated scf accuracy    <  105148.26716942 Ry

     iteration # 52     ecut=    65.00 Ry     beta= 0.70
     Davidson diagonalization with overlap
     ethr =  1.08E-05,  avg # of iterations =  8.0

     negative rho (up, down):  3.331E+02 0.000E+00

     total cpu time spent up to now is        9.6 secs

     total energy              =   -4119.19194457 Ry
     Harris-Foulkes estimate   =   -4908.11332658 Ry
     estimated scf accuracy    <   56448.26863143 Ry

     iteration # 53     ecut=    65.00 Ry     beta= 0.70
     Davidson diagonalization with overlap
     ethr =  1.08E-05,  avg # of iterations =  6.0

     negative rho (up, down):  1.752E+02 0.000E+00

     total cpu time spent up to now is        9.8 secs

     total energy              =     546.60115104 Ry
     Harris-Foulkes estimate   =   -4146.45517042 Ry
     estimated scf accuracy    <  136294.59214911 Ry

     iteration # 54     ecut=    65.00 Ry     beta= 0.70
     Davidson diagonalization with overlap
     ethr =  1.08E-05,  avg # of iterations =  6.0

     negative rho (up, down):  9.452E+02 0.000E+00

     total cpu time spent up to now is       10.0 secs

     total energy              =   -4672.47952124 Ry
     Harris-Foulkes estimate   =   -1903.56089831 Ry
     estimated scf accuracy    <  169841.60877102 Ry

     iteration # 55     ecut=    65.00 Ry     beta= 0.70
     Davidson diagonalization with overlap
     ethr =  1.08E-05,  avg # of iterations = 19.0

     negative rho (up, down):  3.102E+02 0.000E+00

     total cpu time spent up to now is       10.2 secs

     total energy              =   -2874.25134389 Ry
     Harris-Foulkes estimate   =   -4882.46783240 Ry
     estimated scf accuracy    <   35362.03479049 Ry

     iteration # 56     ecut=    65.00 Ry     beta= 0.70
     Davidson diagonalization with overlap
     ethr =  1.08E-05,  avg # of iterations = 11.0

     negative rho (up, down):  7.700E+02 0.000E+00

     total cpu time spent up to now is       10.4 secs

     total energy              =   -4437.95477090 Ry
     Harris-Foulkes estimate   =   -2932.26287784 Ry
     estimated scf accuracy    <  139683.89098057 Ry

     iteration # 57     ecut=    65.00 Ry     beta= 0.70
     Davidson diagonalization with overlap
     ethr =  1.08E-05,  avg # of iterations = 15.0

     negative rho (up, down):  7.957E+02 0.000E+00

     total cpu time spent up to now is       10.6 secs

     total energy              =   -4634.07197603 Ry
     Harris-Foulkes estimate   =   -4559.29334218 Ry
     estimated scf accuracy    <   57293.31051861 Ry

     iteration # 58     ecut=    65.00 Ry     beta= 0.70
     Davidson diagonalization with overlap
     ethr =  1.08E-05,  avg # of iterations =  4.0

     negative rho (up, down):  7.484E+02 0.000E+00

     total cpu time spent up to now is       10.8 secs

     total energy              =   -4520.83446855 Ry
     Harris-Foulkes estimate   =   -4634.11808418 Ry
     estimated scf accuracy    <   53769.63213911 Ry

     iteration # 59     ecut=    65.00 Ry     beta= 0.70
     Davidson diagonalization with overlap
     ethr =  1.08E-05,  avg # of iterations =  6.0

     negative rho (up, down):  6.668E+02 0.000E+00

     total cpu time spent up to now is       10.9 secs

     total energy              =   -4312.09595151 Ry
     Harris-Foulkes estimate   =   -4521.02051454 Ry
     estimated scf accuracy    <   60365.65128390 Ry

     iteration # 60     ecut=    65.00 Ry     beta= 0.70
     Davidson diagonalization with overlap
     ethr =  1.08E-05,  avg # of iterations =  5.0

     negative rho (up, down):  1.028E+03 0.000E+00

     total cpu time spent up to now is       11.1 secs

     total energy              =   -4961.35307772 Ry
     Harris-Foulkes estimate   =   -4312.58643318 Ry
     estimated scf accuracy    <   72642.84009356 Ry

     iteration # 61     ecut=    65.00 Ry     beta= 0.70
     Davidson diagonalization with overlap
     ethr =  1.08E-05,  avg # of iterations = 12.0

     negative rho (up, down):  9.136E+02 0.000E+00

     total cpu time spent up to now is       11.3 secs

     total energy              =   -4858.28159407 Ry
     Harris-Foulkes estimate   =   -4999.02583971 Ry
     estimated scf accuracy    <   26854.95377879 Ry

     iteration # 62     ecut=    65.00 Ry     beta= 0.70
     Davidson diagonalization with overlap
     ethr =  1.08E-05,  avg # of iterations = 10.0

     negative rho (up, down):  1.593E+03 0.000E+00

     total cpu time spent up to now is       11.4 secs

     total energy              =   -5765.96485440 Ry
     Harris-Foulkes estimate   =   -4864.05431694 Ry
     estimated scf accuracy    <   38960.19587024 Ry

     iteration # 63     ecut=    65.00 Ry     beta= 0.70
     Davidson diagonalization with overlap
     ethr =  1.08E-05,  avg # of iterations =  9.0

     negative rho (up, down):  1.591E+03 0.000E+00

     total cpu time spent up to now is       11.6 secs

     total energy              =   -5667.13638507 Ry
     Harris-Foulkes estimate   =   -5821.72985602 Ry
     estimated scf accuracy    <     279.27963535 Ry

     iteration # 64     ecut=    65.00 Ry     beta= 0.70
     Davidson diagonalization with overlap
     c_bands:  1 eigenvalues not converged
     ethr =  1.08E-05,  avg # of iterations = 20.0

     negative rho (up, down):  1.593E+03 0.000E+00

     total cpu time spent up to now is       11.8 secs

     total energy              =   -5599.07446185 Ry
     Harris-Foulkes estimate   =   -5669.54178601 Ry
     estimated scf accuracy    <     118.17574622 Ry

     iteration # 65     ecut=    65.00 Ry     beta= 0.70
     Davidson diagonalization with overlap
     ethr =  1.08E-05,  avg # of iterations = 17.0

     negative rho (up, down):  1.594E+03 0.000E+00

     total cpu time spent up to now is       11.9 secs

     total energy              =   -5560.39810647 Ry
     Harris-Foulkes estimate   =   -5599.61135522 Ry
     estimated scf accuracy    <      49.56829636 Ry

     iteration # 66     ecut=    65.00 Ry     beta= 0.70
     Davidson diagonalization with overlap
     ethr =  1.08E-05,  avg # of iterations = 12.0

     negative rho (up, down):  1.594E+03 0.000E+00

     total cpu time spent up to now is       12.1 secs

     total energy              =   -5558.54660521 Ry
     Harris-Foulkes estimate   =   -5560.85921134 Ry
     estimated scf accuracy    <       8.85013817 Ry

     iteration # 67     ecut=    65.00 Ry     beta= 0.70
     Davidson diagonalization with overlap
     ethr =  1.08E-05,  avg # of iterations =  5.0

     negative rho (up, down):  1.594E+03 0.000E+00

     total cpu time spent up to now is       12.3 secs

     total energy              =   -5556.42660145 Ry
     Harris-Foulkes estimate   =   -5558.55934920 Ry
     estimated scf accuracy    <       4.06071305 Ry

     iteration # 68     ecut=    65.00 Ry     beta= 0.70
     Davidson diagonalization with overlap
     ethr =  1.08E-05,  avg # of iterations = 10.0

     negative rho (up, down):  1.594E+03 0.000E+00

     total cpu time spent up to now is       12.5 secs

     total energy              =   -5556.44640418 Ry
     Harris-Foulkes estimate   =   -5556.49661075 Ry
     estimated scf accuracy    <       0.04202709 Ry

     iteration # 69     ecut=    65.00 Ry     beta= 0.70
     Davidson diagonalization with overlap
     ethr =  1.08E-05,  avg # of iterations =  2.0

     negative rho (up, down):  1.594E+03 0.000E+00

     total cpu time spent up to now is       12.6 secs

     total energy              =   -5556.43625045 Ry
     Harris-Foulkes estimate   =   -5556.44663012 Ry
     estimated scf accuracy    <       0.00942556 Ry

     iteration # 70     ecut=    65.00 Ry     beta= 0.70
     Davidson diagonalization with overlap
     ethr =  1.08E-05,  avg # of iterations =  2.0

     negative rho (up, down):  1.594E+03 0.000E+00

     total cpu time spent up to now is       12.8 secs

     total energy              =   -5556.43803243 Ry
     Harris-Foulkes estimate   =   -5556.43638499 Ry
     estimated scf accuracy    <       0.00000192 Ry

     iteration # 71     ecut=    65.00 Ry     beta= 0.70
     Davidson diagonalization with overlap
     ethr =  1.75E-08,  avg # of iterations =  4.0

     negative rho (up, down):  1.594E+03 0.000E+00

     total cpu time spent up to now is       12.9 secs

     total energy              =   -5556.43775923 Ry
     Harris-Foulkes estimate   =   -5556.43803471 Ry
     estimated scf accuracy    <       0.00000005 Ry

     iteration # 72     ecut=    65.00 Ry     beta= 0.70
     Davidson diagonalization with overlap
     ethr =  4.89E-10,  avg # of iterations =  2.0

     negative rho (up, down):  1.594E+03 0.000E+00

     total cpu time spent up to now is       13.1 secs

     End of self-consistent calculation

          k = 0.0000 0.0000 0.0000 (   965 PWs)   bands (ev):

  ******************-913.6640-913.6640-913.6640-847.8915-847.8915-722.6468
   -62.0018 -41.3991

     the Fermi energy is  -847.9564 ev

!    total energy              =   -5556.43779633 Ry
     Harris-Foulkes estimate   =   -5556.43775924 Ry
     estimated scf accuracy    <          1.1E-09 Ry

     total all-electron energy =    -42805.272259 Ry

     The total energy is the sum of the following terms:

     one-electron contribution =     268.83316442 Ry
     hartree contribution      =  216581.69121687 Ry
     xc contribution           =    1885.73722266 Ry
     ewald contribution        =     -71.95438534 Ry
     one-center paw contrib.   = -224220.73602686 Ry
     smearing contrib. (-TS)   =      -0.00898808 Ry

     convergence has been achieved in  72 iterations

     negative rho (up, down):  1.594E+03 0.000E+00

     Forces acting on atoms (cartesian axes, Ry/au):

     atom    1 type  1   force =     0.00000000    0.00000000    0.00000000

     Total force =     0.000000     Total SCF correction =     0.000000


     Computing stress (Cartesian axis) and pressure


     negative rho (up, down):  1.594E+03 0.000E+00
          total   stress  (Ry/bohr**3)                   (kbar)     P=********
 290.19328833   0.00000000   0.00000000    **********      0.00      0.00
   0.00000000 290.19328833  -0.00000000          0.00**********     -0.00
   0.00000000  -0.00000000 290.19328833          0.00     -0.00**********


     Writing output data file Au.save/

     init_run     :      0.32s CPU      0.35s WALL (       1 calls)
     electrons    :     10.68s CPU     11.83s WALL (       1 calls)
     forces       :      0.03s CPU      0.03s WALL (       1 calls)
     stress       :      0.07s CPU      0.07s WALL (       1 calls)

     Called by init_run:
     wfcinit      :      0.00s CPU      0.00s WALL (       1 calls)
     potinit      :      0.11s CPU      0.14s WALL (       1 calls)
     hinit0       :      0.17s CPU      0.18s WALL (       1 calls)

     Called by electrons:
     c_bands      :      1.03s CPU      1.09s WALL (      73 calls)
     sum_band     :      0.89s CPU      0.90s WALL (      73 calls)
     v_of_rho     :      0.32s CPU      0.34s WALL (      73 calls)
     newd         :      0.62s CPU      0.72s WALL (      73 calls)
     PAW_pot      :      7.80s CPU      8.79s WALL (      73 calls)
     mix_rho      :      0.08s CPU      0.09s WALL (      73 calls)

     Called by c_bands:
     init_us_2    :      0.04s CPU      0.04s WALL (     147 calls)
     cegterg      :      1.00s CPU      1.05s WALL (      73 calls)

     Called by sum_band:
     sum_band:bec :      0.00s CPU      0.00s WALL (      73 calls)
     addusdens    :      0.58s CPU      0.59s WALL (      73 calls)

     Called by *egterg:
     h_psi        :      0.68s CPU      0.72s WALL (     430 calls)
     s_psi        :      0.02s CPU      0.02s WALL (     430 calls)
     g_psi        :      0.00s CPU      0.00s WALL (     356 calls)
     cdiaghg      :      0.12s CPU      0.12s WALL (     428 calls)

     Called by h_psi:
     h_psi:pot    :      0.67s CPU      0.71s WALL (     430 calls)
     h_psi:calbec :      0.04s CPU      0.04s WALL (     430 calls)
     vloc_psi     :      0.61s CPU      0.64s WALL (     430 calls)
     add_vuspsi   :      0.02s CPU      0.02s WALL (     430 calls)

     General routines
     calbec       :      0.04s CPU      0.05s WALL (     508 calls)
     fft          :      0.19s CPU      0.20s WALL (     830 calls)
     ffts         :      0.01s CPU      0.01s WALL (      73 calls)
     fftw         :      0.66s CPU      0.69s WALL (    6104 calls)

     Parallel routines
     fft_scatt_xy :      0.06s CPU      0.06s WALL (    7007 calls)
     fft_scatt_yz :      0.29s CPU      0.31s WALL (    7007 calls)

     PWSCF        :    12.00s CPU        13.23s WALL


   This run was terminated on:  11:59:13  26Mar2024            

=------------------------------------------------------------------------------=
   JOB DONE.
=------------------------------------------------------------------------------=
