
     Program PWSCF v.6.3MaX starts on 26Mar2024 at 11:19: 7 

     This program is part of the open-source Quantum ESPRESSO suite
     for quantum simulation of materials; please cite
         "P. Giannozzi et al., J. Phys.:Condens. Matter 21 395502 (2009);
         "P. Giannozzi et al., J. Phys.:Condens. Matter 29 465901 (2017);
          URL http://www.quantum-espresso.org", 
     in publications or presentations arising from this work. More details at
     http://www.quantum-espresso.org/quote

     Parallel version (MPI), running on     5 processors

     MPI processes distributed on     1 nodes
     R & G space division:  proc/nbgrp/npool/nimage =       5
     Waiting for input...
     Reading input from standard input

     Current dimensions of program PWSCF are:
     Max number of different atomic species (ntypx) = 10
     Max number of k-points (npk) =  40000
     Max angular momentum in pseudopotentials (lmaxx) =  3

     Subspace diagonalization in iterative solution of the eigenvalue problem:
     a serial algorithm will be used


     Parallelization info
     --------------------
     sticks:   dense  smooth     PW     G-vecs:    dense   smooth      PW
     Min          32      32     12                  280      280      66
     Max          33      33     13                  283      283      67
     Sum         163     163     61                 1411     1411     331



     bravais-lattice index     =            2
     lattice parameter (alat)  =       7.7100  a.u.
     unit-cell volume          =     114.5785 (a.u.)^3
     number of atoms/cell      =            1
     number of atomic types    =            1
     number of electrons       =        11.00
     number of Kohn-Sham states=           10
     kinetic-energy cutoff     =      20.0000  Ry
     charge density cutoff     =      80.0000  Ry
     convergence threshold     =      1.0E-08
     mixing beta               =       0.7000
     number of iterations used =            8  plain     mixing
     Exchange-correlation      = PBESOL ( 1  4 10  8 0 0)

     celldm(1)=   7.710000  celldm(2)=   0.000000  celldm(3)=   0.000000
     celldm(4)=   0.000000  celldm(5)=   0.000000  celldm(6)=   0.000000

     crystal axes: (cart. coord. in units of alat)
               a(1) = (  -0.500000   0.000000   0.500000 )  
               a(2) = (   0.000000   0.500000   0.500000 )  
               a(3) = (  -0.500000   0.500000   0.000000 )  

     reciprocal axes: (cart. coord. in units 2 pi/alat)
               b(1) = ( -1.000000 -1.000000  1.000000 )  
               b(2) = (  1.000000  1.000000  1.000000 )  
               b(3) = ( -1.000000  1.000000 -1.000000 )  


     PseudoPot. # 1 for Au read from file:
     /home/lorenzo/pseudos/Au/Au.pbesol-n-rrkjus_psl.1.0.0.UPF
     MD5 check sum: 09626e9411213730b9a56fcc59c03ca8
     Pseudo is Ultrasoft + core correction, Zval = 11.0
     Generated using "atomic" code by A. Dal Corso v.6.3
     Using radial grid of 1279 points,  6 beta functions with: 
                l(1) =   0
                l(2) =   0
                l(3) =   1
                l(4) =   1
                l(5) =   2
                l(6) =   2
     Q(r) pseudized with 0 coefficients 


     atomic species   valence    mass     pseudopotential
        Au            11.00   196.96600     Au( 1.00)

     48 Sym. Ops., with inversion, found



   Cartesian axes

     site n.     atom                  positions (alat units)
         1           Au  tau(   1) = (   0.0000000   0.0000000   0.0000000  )

     number of k points=    10  gaussian smearing, width (Ry)=  0.0100
                       cart. coord. in units 2pi/alat
        k(    1) = (   0.0000000   0.0000000   0.0000000), wk =   0.0160000
        k(    2) = (  -0.2000000   0.2000000  -0.2000000), wk =   0.1280000
        k(    3) = (  -0.4000000   0.4000000  -0.4000000), wk =   0.1280000
        k(    4) = (   0.0000000   0.4000000   0.0000000), wk =   0.0960000
        k(    5) = (  -0.2000000   0.6000000  -0.2000000), wk =   0.3840000
        k(    6) = (   0.6000000  -0.2000000   0.6000000), wk =   0.3840000
        k(    7) = (   0.4000000   0.0000000   0.4000000), wk =   0.1920000
        k(    8) = (   0.0000000   0.8000000   0.0000000), wk =   0.0960000
        k(    9) = (   0.8000000   0.0000000   0.8000000), wk =   0.1920000
        k(   10) = (   0.6000000  -0.2000000   1.0000000), wk =   0.3840000

     Dense  grid:     1411 G-vectors     FFT dimensions: (  15,  15,  15)

     Estimated max dynamical RAM per process >       1.98 MB

     Estimated total dynamical RAM >       9.88 MB

     Initial potential from superposition of free atoms

     starting charge   10.99990, renormalised to   11.00000
     Starting wfcs are    9 randomized atomic wfcs +    1 random wfcs

     total cpu time spent up to now is        1.0 secs

     Self-consistent Calculation

     iteration #  1     ecut=    20.00 Ry     beta= 0.70
     Davidson diagonalization with overlap
     ethr =  1.00E-02,  avg # of iterations =  5.2

     Threshold (ethr) on eigenvalues was too large:
     Diagonalizing with lowered threshold

     Davidson diagonalization with overlap
     ethr =  6.17E-04,  avg # of iterations =  1.0

     total cpu time spent up to now is        1.1 secs

     total energy              =     -85.17699955 Ry
     Harris-Foulkes estimate   =     -85.21806777 Ry
     estimated scf accuracy    <       0.06917331 Ry

     iteration #  2     ecut=    20.00 Ry     beta= 0.70
     Davidson diagonalization with overlap
     ethr =  6.29E-04,  avg # of iterations =  2.8

     negative rho (up, down):  1.547E-03 0.000E+00

     total cpu time spent up to now is        1.1 secs

     total energy              =     -85.21982075 Ry
     Harris-Foulkes estimate   =     -85.20917808 Ry
     estimated scf accuracy    <       0.01615912 Ry

     iteration #  3     ecut=    20.00 Ry     beta= 0.70
     Davidson diagonalization with overlap
     ethr =  1.47E-04,  avg # of iterations =  4.3

     total cpu time spent up to now is        1.2 secs

     total energy              =     -80.13199762 Ry
     Harris-Foulkes estimate   =     -85.81957818 Ry
     estimated scf accuracy    <     141.21083372 Ry

     iteration #  4     ecut=    20.00 Ry     beta= 0.70
     Davidson diagonalization with overlap
     ethr =  1.47E-04,  avg # of iterations =  5.5

     total cpu time spent up to now is        1.3 secs

     total energy              =     -85.20117603 Ry
     Harris-Foulkes estimate   =     -85.20139098 Ry
     estimated scf accuracy    <       0.00257225 Ry

     iteration #  5     ecut=    20.00 Ry     beta= 0.70
     Davidson diagonalization with overlap
     ethr =  2.34E-05,  avg # of iterations =  1.5

     total cpu time spent up to now is        1.3 secs

     total energy              =     -85.20108949 Ry
     Harris-Foulkes estimate   =     -85.20119060 Ry
     estimated scf accuracy    <       0.00239257 Ry

     iteration #  6     ecut=    20.00 Ry     beta= 0.70
     Davidson diagonalization with overlap
     ethr =  2.18E-05,  avg # of iterations =  1.0

     total cpu time spent up to now is        1.3 secs

     total energy              =     -85.20101946 Ry
     Harris-Foulkes estimate   =     -85.20109170 Ry
     estimated scf accuracy    <       0.00235257 Ry

     iteration #  7     ecut=    20.00 Ry     beta= 0.70
     Davidson diagonalization with overlap
     ethr =  2.14E-05,  avg # of iterations =  1.0

     total cpu time spent up to now is        1.4 secs

     total energy              =     -85.20098387 Ry
     Harris-Foulkes estimate   =     -85.20102067 Ry
     estimated scf accuracy    <       0.00233240 Ry

     iteration #  8     ecut=    20.00 Ry     beta= 0.70
     Davidson diagonalization with overlap
     ethr =  2.12E-05,  avg # of iterations =  1.0

     total cpu time spent up to now is        1.4 secs

     total energy              =     -85.20094716 Ry
     Harris-Foulkes estimate   =     -85.20098453 Ry
     estimated scf accuracy    <       0.00231789 Ry

     iteration #  9     ecut=    20.00 Ry     beta= 0.70
     Davidson diagonalization with overlap
     ethr =  2.11E-05,  avg # of iterations =  1.0

     total cpu time spent up to now is        1.4 secs

     total energy              =     -85.20090180 Ry
     Harris-Foulkes estimate   =     -85.20094764 Ry
     estimated scf accuracy    <       0.00230412 Ry

     iteration # 10     ecut=    20.00 Ry     beta= 0.70
     Davidson diagonalization with overlap
     ethr =  2.09E-05,  avg # of iterations =  1.0

     total cpu time spent up to now is        1.5 secs

     total energy              =     -85.20073010 Ry
     Harris-Foulkes estimate   =     -85.20090225 Ry
     estimated scf accuracy    <       0.00229123 Ry

     iteration # 11     ecut=    20.00 Ry     beta= 0.70
     Davidson diagonalization with overlap
     ethr =  2.08E-05,  avg # of iterations =  1.0

     total cpu time spent up to now is        1.5 secs

     total energy              =     -85.20055777 Ry
     Harris-Foulkes estimate   =     -85.20073221 Ry
     estimated scf accuracy    <       0.00225419 Ry

     iteration # 12     ecut=    20.00 Ry     beta= 0.70
     Davidson diagonalization with overlap
     ethr =  2.05E-05,  avg # of iterations =  1.0

     negative rho (up, down):  8.287E-04 0.000E+00

     total cpu time spent up to now is        1.5 secs

     total energy              =     -85.10377853 Ry
     Harris-Foulkes estimate   =     -85.20055994 Ry
     estimated scf accuracy    <       0.00223279 Ry

     iteration # 13     ecut=    20.00 Ry     beta= 0.70
     Davidson diagonalization with overlap
     ethr =  2.03E-05,  avg # of iterations =  5.0

     negative rho (up, down):  5.332E-04 0.000E+00

     total cpu time spent up to now is        1.6 secs

     total energy              =     -96.81952797 Ry
     Harris-Foulkes estimate   =     -99.23966467 Ry
     estimated scf accuracy    <    2408.84725688 Ry

     iteration # 14     ecut=    20.00 Ry     beta= 0.70
     Davidson diagonalization with overlap
     ethr =  2.03E-05,  avg # of iterations =  2.3

     negative rho (up, down):  5.822E-05 0.000E+00

     total cpu time spent up to now is        1.6 secs

     total energy              =     -94.20741974 Ry
     Harris-Foulkes estimate   =     -96.84267298 Ry
     estimated scf accuracy    <    2314.52418526 Ry

     iteration # 15     ecut=    20.00 Ry     beta= 0.70
     Davidson diagonalization with overlap
     ethr =  2.03E-05,  avg # of iterations =  2.8

     total cpu time spent up to now is        1.7 secs

     total energy              =     -89.61365516 Ry
     Harris-Foulkes estimate   =     -94.24334253 Ry
     estimated scf accuracy    <    2184.57294906 Ry

     iteration # 16     ecut=    20.00 Ry     beta= 0.70
     Davidson diagonalization with overlap
     ethr =  2.03E-05,  avg # of iterations =  3.0

     negative rho (up, down):  3.849E-05 0.000E+00

     total cpu time spent up to now is        1.7 secs

     total energy              =     -94.06377882 Ry
     Harris-Foulkes estimate   =     -89.84640237 Ry
     estimated scf accuracy    <    1696.03487465 Ry

     iteration # 17     ecut=    20.00 Ry     beta= 0.70
     Davidson diagonalization with overlap
     ethr =  2.03E-05,  avg # of iterations =  3.3

     total cpu time spent up to now is        1.7 secs

     total energy              =     -89.65643132 Ry
     Harris-Foulkes estimate   =     -94.40032496 Ry
     estimated scf accuracy    <    2193.55823475 Ry

     iteration # 18     ecut=    20.00 Ry     beta= 0.70
     Davidson diagonalization with overlap
     ethr =  2.03E-05,  avg # of iterations =  3.4

     negative rho (up, down):  1.496E-03 0.000E+00

     total cpu time spent up to now is        1.8 secs

     total energy              =    -103.37151549 Ry
     Harris-Foulkes estimate   =     -89.89250981 Ry
     estimated scf accuracy    <    1702.26671568 Ry

     iteration # 19     ecut=    20.00 Ry     beta= 0.70
     Davidson diagonalization with overlap
     ethr =  2.03E-05,  avg # of iterations =  3.6

     total cpu time spent up to now is        1.8 secs

     total energy              =     -71.57432540 Ry
     Harris-Foulkes estimate   =    -105.48005921 Ry
     estimated scf accuracy    <    2584.60112890 Ry

     iteration # 20     ecut=    20.00 Ry     beta= 0.70
     Davidson diagonalization with overlap
     ethr =  2.03E-05,  avg # of iterations =  6.9

     total cpu time spent up to now is        1.9 secs

     total energy              =     -85.14572490 Ry
     Harris-Foulkes estimate   =     -85.19867715 Ry
     estimated scf accuracy    <       0.01049236 Ry

     iteration # 21     ecut=    20.00 Ry     beta= 0.70
     Davidson diagonalization with overlap
     ethr =  2.03E-05,  avg # of iterations =  5.0

     total cpu time spent up to now is        2.0 secs

     total energy              =     -85.19160812 Ry
     Harris-Foulkes estimate   =     -85.19185654 Ry
     estimated scf accuracy    <       0.00026802 Ry

     iteration # 22     ecut=    20.00 Ry     beta= 0.70
     Davidson diagonalization with overlap
     ethr =  2.44E-06,  avg # of iterations =  2.2

     total cpu time spent up to now is        2.0 secs

     total energy              =     -85.19209876 Ry
     Harris-Foulkes estimate   =     -85.19162060 Ry
     estimated scf accuracy    <       0.00023570 Ry

     iteration # 23     ecut=    20.00 Ry     beta= 0.70
     Davidson diagonalization with overlap
     ethr =  2.14E-06,  avg # of iterations =  3.6

     total cpu time spent up to now is        2.0 secs

     total energy              =     -85.19305574 Ry
     Harris-Foulkes estimate   =     -85.19215317 Ry
     estimated scf accuracy    <       0.00029897 Ry

     iteration # 24     ecut=    20.00 Ry     beta= 0.70
     Davidson diagonalization with overlap
     ethr =  2.14E-06,  avg # of iterations =  3.4

     total cpu time spent up to now is        2.1 secs

     total energy              =     -85.19318180 Ry
     Harris-Foulkes estimate   =     -85.19321696 Ry
     estimated scf accuracy    <       0.00044902 Ry

     iteration # 25     ecut=    20.00 Ry     beta= 0.70
     Davidson diagonalization with overlap
     ethr =  2.14E-06,  avg # of iterations =  1.0

     total cpu time spent up to now is        2.1 secs

     total energy              =     -85.19297741 Ry
     Harris-Foulkes estimate   =     -85.19318207 Ry
     estimated scf accuracy    <       0.00044521 Ry

     iteration # 26     ecut=    20.00 Ry     beta= 0.70
     Davidson diagonalization with overlap
     ethr =  2.14E-06,  avg # of iterations =  1.8

     total cpu time spent up to now is        2.1 secs

     total energy              =     -85.19306996 Ry
     Harris-Foulkes estimate   =     -85.19298274 Ry
     estimated scf accuracy    <       0.00041072 Ry

     iteration # 27     ecut=    20.00 Ry     beta= 0.70
     Davidson diagonalization with overlap
     ethr =  2.14E-06,  avg # of iterations =  1.0

     total cpu time spent up to now is        2.2 secs

     total energy              =     -85.19303921 Ry
     Harris-Foulkes estimate   =     -85.19307123 Ry
     estimated scf accuracy    <       0.00041649 Ry

     iteration # 28     ecut=    20.00 Ry     beta= 0.70
     Davidson diagonalization with overlap
     ethr =  2.14E-06,  avg # of iterations =  1.0

     total cpu time spent up to now is        2.2 secs

     total energy              =     -85.19372517 Ry
     Harris-Foulkes estimate   =     -85.19303937 Ry
     estimated scf accuracy    <       0.00041830 Ry

     iteration # 29     ecut=    20.00 Ry     beta= 0.70
     Davidson diagonalization with overlap
     ethr =  2.14E-06,  avg # of iterations =  2.7

     total cpu time spent up to now is        2.2 secs

     total energy              =     -85.18860437 Ry
     Harris-Foulkes estimate   =     -85.19379075 Ry
     estimated scf accuracy    <       0.00055166 Ry

     iteration # 30     ecut=    20.00 Ry     beta= 0.70
     Davidson diagonalization with overlap
     ethr =  2.14E-06,  avg # of iterations =  4.8

     total cpu time spent up to now is        2.3 secs

     total energy              =     -85.18933046 Ry
     Harris-Foulkes estimate   =     -85.19064636 Ry
     estimated scf accuracy    <       0.00009388 Ry

     iteration # 31     ecut=    20.00 Ry     beta= 0.70
     Davidson diagonalization with overlap
     ethr =  8.53E-07,  avg # of iterations =  3.7

     total cpu time spent up to now is        2.3 secs

     total energy              =     -85.19007923 Ry
     Harris-Foulkes estimate   =     -85.19008241 Ry
     estimated scf accuracy    <       0.00000238 Ry

     iteration # 32     ecut=    20.00 Ry     beta= 0.70
     Davidson diagonalization with overlap
     ethr =  2.16E-08,  avg # of iterations =  2.5

     total cpu time spent up to now is        2.4 secs

     total energy              =     -85.19008037 Ry
     Harris-Foulkes estimate   =     -85.19008239 Ry
     estimated scf accuracy    <       0.00000013 Ry

     iteration # 33     ecut=    20.00 Ry     beta= 0.70
     Davidson diagonalization with overlap
     ethr =  1.19E-09,  avg # of iterations =  3.3

     total cpu time spent up to now is        2.4 secs

     total energy              =     -85.19008152 Ry
     Harris-Foulkes estimate   =     -85.19008195 Ry
     estimated scf accuracy    <       0.00000004 Ry

     iteration # 34     ecut=    20.00 Ry     beta= 0.70
     Davidson diagonalization with overlap
     ethr =  3.58E-10,  avg # of iterations =  3.1

     total cpu time spent up to now is        2.5 secs

     End of self-consistent calculation

          k = 0.0000 0.0000 0.0000 (   169 PWs)   bands (ev):

     5.8579  11.0798  11.0798  11.0798  12.6020  12.6020  31.1969  35.0243
    35.0243  35.0243

          k =-0.2000 0.2000-0.2000 (   171 PWs)   bands (ev):

     7.1293  10.8477  11.3675  11.3675  12.6126  12.6126  29.3764  32.4765
    36.2250  36.2250

          k =-0.4000 0.4000-0.4000 (   174 PWs)   bands (ev):

     8.4344  11.1139  11.1139  13.1312  13.6156  13.6156  21.3887  30.8469
    34.0658  34.0658

          k = 0.0000 0.4000 0.0000 (   169 PWs)   bands (ev):

     7.5692  10.2828  11.8589  11.9107  11.9107  12.9887  32.5917  32.5917
    32.5933  33.4952

          k =-0.2000 0.6000-0.2000 (   171 PWs)   bands (ev):

     9.0787  10.2873  11.1302  12.0528  13.8057  14.3750  24.3708  30.5478
    30.5504  33.5550

          k = 0.6000-0.2000 0.6000 (   176 PWs)   bands (ev):

     9.3245  10.5641  11.6877  11.7636  13.5535  17.4415  19.8950  27.8419
    31.9375  32.4688

          k = 0.4000 0.0000 0.4000 (   170 PWs)   bands (ev):

     8.8318  10.4607  11.1776  11.9885  12.1402  14.2414  26.5629  29.0378
    33.6114  36.4864

          k = 0.0000 0.8000 0.0000 (   170 PWs)   bands (ev):

     8.7960   9.1984  13.6892  13.8035  13.8035  14.5414  24.7022  26.9899
    26.9899  32.9591

          k = 0.8000 0.0000 0.8000 (   180 PWs)   bands (ev):

     9.1172   9.6119  12.4290  13.1679  13.8964  19.5982  20.4471  23.7460
    27.6928  34.4310

          k = 0.6000-0.2000 1.0000 (   171 PWs)   bands (ev):

     9.8557  10.1358  10.8281  12.7678  13.7745  17.8878  22.9312  24.4283
    27.3804  37.3405

     the Fermi energy is    14.5789 ev

!    total energy              =     -85.19008195 Ry
     Harris-Foulkes estimate   =     -85.19008186 Ry
     estimated scf accuracy    <          8.8E-09 Ry

     The total energy is the sum of the following terms:

     one-electron contribution =      11.05350179 Ry
     hartree contribution      =       7.49269773 Ry
     xc contribution           =     -31.78152946 Ry
     ewald contribution        =     -71.95438536 Ry
     smearing contrib. (-TS)   =      -0.00036665 Ry

     convergence has been achieved in  34 iterations

     Forces acting on atoms (cartesian axes, Ry/au):

     atom    1 type  1   force =     0.00000000    0.00000000    0.00000000

     Total force =     0.000000     Total SCF correction =     0.000000


     Computing stress (Cartesian axis) and pressure

          total   stress  (Ry/bohr**3)                   (kbar)     P= -151.48
  -0.00102973   0.00000000  -0.00000000       -151.48      0.00     -0.00
   0.00000000  -0.00102973  -0.00000000          0.00   -151.48     -0.00
  -0.00000000   0.00000000  -0.00102973         -0.00      0.00   -151.48


     Writing output data file Au.save/

     init_run     :      0.11s CPU      0.11s WALL (       1 calls)
     electrons    :      1.31s CPU      1.48s WALL (       1 calls)
     forces       :      0.01s CPU      0.01s WALL (       1 calls)
     stress       :      0.02s CPU      0.02s WALL (       1 calls)

     Called by init_run:
     wfcinit      :      0.01s CPU      0.01s WALL (       1 calls)
     potinit      :      0.00s CPU      0.00s WALL (       1 calls)
     hinit0       :      0.09s CPU      0.09s WALL (       1 calls)

     Called by electrons:
     c_bands      :      1.04s CPU      1.18s WALL (      35 calls)
     sum_band     :      0.18s CPU      0.20s WALL (      35 calls)
     v_of_rho     :      0.03s CPU      0.03s WALL (      35 calls)
     newd         :      0.05s CPU      0.05s WALL (      35 calls)
     mix_rho      :      0.01s CPU      0.01s WALL (      35 calls)

     Called by c_bands:
     init_us_2    :      0.02s CPU      0.02s WALL (     730 calls)
     cegterg      :      1.00s CPU      1.14s WALL (     350 calls)

     Called by sum_band:
     sum_band:bec :      0.00s CPU      0.00s WALL (     350 calls)
     addusdens    :      0.05s CPU      0.05s WALL (      35 calls)

     Called by *egterg:
     h_psi        :      0.56s CPU      0.64s WALL (    1327 calls)
     s_psi        :      0.02s CPU      0.02s WALL (    1327 calls)
     g_psi        :      0.00s CPU      0.00s WALL (     967 calls)
     cdiaghg      :      0.28s CPU      0.32s WALL (    1307 calls)

     Called by h_psi:
     h_psi:pot    :      0.55s CPU      0.63s WALL (    1327 calls)
     h_psi:calbec :      0.04s CPU      0.04s WALL (    1327 calls)
     vloc_psi     :      0.49s CPU      0.56s WALL (    1327 calls)
     add_vuspsi   :      0.02s CPU      0.02s WALL (    1327 calls)

     General routines
     calbec       :      0.04s CPU      0.05s WALL (    1727 calls)
     fft          :      0.02s CPU      0.02s WALL (     412 calls)
     ffts         :      0.00s CPU      0.00s WALL (      35 calls)
     fftw         :      0.53s CPU      0.60s WALL (   22978 calls)

     Parallel routines
     fft_scatt_xy :      0.06s CPU      0.07s WALL (   23425 calls)
     fft_scatt_yz :      0.24s CPU      0.27s WALL (   23425 calls)

     PWSCF        :     2.34s CPU         2.55s WALL


   This run was terminated on:  11:19:10  26Mar2024            

=------------------------------------------------------------------------------=
   JOB DONE.
=------------------------------------------------------------------------------=
