
     Program PWSCF v.6.3MaX starts on 26Mar2024 at 12:40:33 

     This program is part of the open-source Quantum ESPRESSO suite
     for quantum simulation of materials; please cite
         "P. Giannozzi et al., J. Phys.:Condens. Matter 21 395502 (2009);
         "P. Giannozzi et al., J. Phys.:Condens. Matter 29 465901 (2017);
          URL http://www.quantum-espresso.org", 
     in publications or presentations arising from this work. More details at
     http://www.quantum-espresso.org/quote

     Parallel version (MPI), running on     5 processors

     MPI processes distributed on     1 nodes
     R & G space division:  proc/nbgrp/npool/nimage =       5
     Waiting for input...
     Reading input from standard input

     Current dimensions of program PWSCF are:
     Max number of different atomic species (ntypx) = 10
     Max number of k-points (npk) =  40000
     Max angular momentum in pseudopotentials (lmaxx) =  3
               file Au.pbesol-n-kjpaw_psl.1.0.0.UPF: wavefunction(s)  6S 5D renormalized

     Subspace diagonalization in iterative solution of the eigenvalue problem:
     a serial algorithm will be used


     Parallelization info
     --------------------
     sticks:   dense  smooth     PW     G-vecs:    dense   smooth      PW
     Min         153     153     48                 2863     2863     484
     Max         154     154     49                 2867     2867     485
     Sum         769     769    241                14331    14331    2421



     bravais-lattice index     =            2
     lattice parameter (alat)  =       7.7100  a.u.
     unit-cell volume          =     114.5785 (a.u.)^3
     number of atoms/cell      =            1
     number of atomic types    =            1
     number of electrons       =        11.00
     number of Kohn-Sham states=           10
     kinetic-energy cutoff     =      95.0000  Ry
     charge density cutoff     =     380.0000  Ry
     convergence threshold     =      1.0E-08
     mixing beta               =       0.7000
     number of iterations used =            8  plain     mixing
     Exchange-correlation      = SLA PW PSX PSC ( 1  4 10  8 0 0)

     celldm(1)=   7.710000  celldm(2)=   0.000000  celldm(3)=   0.000000
     celldm(4)=   0.000000  celldm(5)=   0.000000  celldm(6)=   0.000000

     crystal axes: (cart. coord. in units of alat)
               a(1) = (  -0.500000   0.000000   0.500000 )  
               a(2) = (   0.000000   0.500000   0.500000 )  
               a(3) = (  -0.500000   0.500000   0.000000 )  

     reciprocal axes: (cart. coord. in units 2 pi/alat)
               b(1) = ( -1.000000 -1.000000  1.000000 )  
               b(2) = (  1.000000  1.000000  1.000000 )  
               b(3) = ( -1.000000  1.000000 -1.000000 )  


     PseudoPot. # 1 for Au read from file:
     /home/lorenzo/pseudos/Au/Au.pbesol-n-kjpaw_psl.1.0.0.UPF
     MD5 check sum: abc371be705c47a6b6a6b4088b452d3e
     Pseudo is Projector augmented-wave + core cor, Zval = 11.0
     Generated using "atomic" code by A. Dal Corso v.6.3
     Shape of augmentation charge: PSQ
     Using radial grid of 1279 points,  6 beta functions with: 
                l(1) =   0
                l(2) =   0
                l(3) =   1
                l(4) =   1
                l(5) =   2
                l(6) =   2
     Q(r) pseudized with 0 coefficients 


     atomic species   valence    mass     pseudopotential
        Au            11.00   196.96600     Au( 1.00)

     48 Sym. Ops., with inversion, found



   Cartesian axes

     site n.     atom                  positions (alat units)
         1           Au  tau(   1) = (   0.0000000   0.0000000   0.0000000  )

     number of k points=    47  gaussian smearing, width (Ry)=  0.0100
                       cart. coord. in units 2pi/alat
        k(    1) = (   0.0000000   0.0000000   0.0000000), wk =   0.0020000
        k(    2) = (  -0.1000000   0.1000000  -0.1000000), wk =   0.0160000
        k(    3) = (  -0.2000000   0.2000000  -0.2000000), wk =   0.0160000
        k(    4) = (  -0.3000000   0.3000000  -0.3000000), wk =   0.0160000
        k(    5) = (  -0.4000000   0.4000000  -0.4000000), wk =   0.0160000
        k(    6) = (   0.5000000  -0.5000000   0.5000000), wk =   0.0080000
        k(    7) = (   0.0000000   0.2000000   0.0000000), wk =   0.0120000
        k(    8) = (  -0.1000000   0.3000000  -0.1000000), wk =   0.0480000
        k(    9) = (  -0.2000000   0.4000000  -0.2000000), wk =   0.0480000
        k(   10) = (  -0.3000000   0.5000000  -0.3000000), wk =   0.0480000
        k(   11) = (   0.6000000  -0.4000000   0.6000000), wk =   0.0480000
        k(   12) = (   0.5000000  -0.3000000   0.5000000), wk =   0.0480000
        k(   13) = (   0.4000000  -0.2000000   0.4000000), wk =   0.0480000
        k(   14) = (   0.3000000  -0.1000000   0.3000000), wk =   0.0480000
        k(   15) = (   0.2000000   0.0000000   0.2000000), wk =   0.0240000
        k(   16) = (   0.0000000   0.4000000   0.0000000), wk =   0.0120000
        k(   17) = (  -0.1000000   0.5000000  -0.1000000), wk =   0.0480000
        k(   18) = (  -0.2000000   0.6000000  -0.2000000), wk =   0.0480000
        k(   19) = (   0.7000000  -0.3000000   0.7000000), wk =   0.0480000
        k(   20) = (   0.6000000  -0.2000000   0.6000000), wk =   0.0480000
        k(   21) = (   0.5000000  -0.1000000   0.5000000), wk =   0.0480000
        k(   22) = (   0.4000000   0.0000000   0.4000000), wk =   0.0240000
        k(   23) = (   0.0000000   0.6000000   0.0000000), wk =   0.0120000
        k(   24) = (  -0.1000000   0.7000000  -0.1000000), wk =   0.0480000
        k(   25) = (   0.8000000  -0.2000000   0.8000000), wk =   0.0480000
        k(   26) = (   0.7000000  -0.1000000   0.7000000), wk =   0.0480000
        k(   27) = (   0.6000000  -0.0000000   0.6000000), wk =   0.0240000
        k(   28) = (   0.0000000   0.8000000   0.0000000), wk =   0.0120000
        k(   29) = (   0.9000000  -0.1000000   0.9000000), wk =   0.0480000
        k(   30) = (   0.8000000   0.0000000   0.8000000), wk =   0.0240000
        k(   31) = (   0.0000000  -1.0000000   0.0000000), wk =   0.0060000
        k(   32) = (  -0.2000000   0.4000000   0.0000000), wk =   0.0480000
        k(   33) = (  -0.3000000   0.5000000  -0.1000000), wk =   0.0960000
        k(   34) = (   0.6000000  -0.4000000   0.8000000), wk =   0.0960000
        k(   35) = (   0.5000000  -0.3000000   0.7000000), wk =   0.0480000
        k(   36) = (  -0.2000000   0.6000000   0.0000000), wk =   0.0480000
        k(   37) = (   0.7000000  -0.3000000   0.9000000), wk =   0.0960000
        k(   38) = (   0.6000000  -0.2000000   0.8000000), wk =   0.0960000
        k(   39) = (   0.5000000  -0.1000000   0.7000000), wk =   0.0960000
        k(   40) = (   0.4000000   0.0000000   0.6000000), wk =   0.0480000
        k(   41) = (   0.8000000  -0.2000000   1.0000000), wk =   0.0480000
        k(   42) = (   0.7000000  -0.1000000   0.9000000), wk =   0.0960000
        k(   43) = (   0.6000000   0.0000000   0.8000000), wk =   0.0480000
        k(   44) = (  -0.2000000  -1.0000000   0.0000000), wk =   0.0240000
        k(   45) = (   0.6000000  -0.2000000   1.0000000), wk =   0.0480000
        k(   46) = (   0.5000000  -0.1000000   0.9000000), wk =   0.0480000
        k(   47) = (  -0.4000000  -1.0000000   0.0000000), wk =   0.0240000

     Dense  grid:    14331 G-vectors     FFT dimensions: (  36,  36,  36)

     Estimated max dynamical RAM per process >      15.34 MB

     Estimated total dynamical RAM >      76.68 MB

     Initial potential from superposition of free atoms

     starting charge   10.99990, renormalised to   11.00000
     Starting wfcs are    9 randomized atomic wfcs +    1 random wfcs
     Checking if some PAW data can be deallocated... 

     total cpu time spent up to now is        1.6 secs

     Self-consistent Calculation

     iteration #  1     ecut=    95.00 Ry     beta= 0.70
     Davidson diagonalization with overlap
     ethr =  1.00E-02,  avg # of iterations =  5.4

     Threshold (ethr) on eigenvalues was too large:
     Diagonalizing with lowered threshold

     Davidson diagonalization with overlap
     ethr =  5.63E-04,  avg # of iterations =  1.6

     total cpu time spent up to now is        3.5 secs

     total energy              =    -764.65695727 Ry
     Harris-Foulkes estimate   =    -764.70089989 Ry
     estimated scf accuracy    <       0.06321048 Ry

     iteration #  2     ecut=    95.00 Ry     beta= 0.70
     Davidson diagonalization with overlap
     ethr =  5.75E-04,  avg # of iterations =  2.7

     total cpu time spent up to now is        4.5 secs

     total energy              =    -764.67615197 Ry
     Harris-Foulkes estimate   =    -764.68817093 Ry
     estimated scf accuracy    <       0.02007327 Ry

     iteration #  3     ecut=    95.00 Ry     beta= 0.70
     Davidson diagonalization with overlap
     ethr =  1.82E-04,  avg # of iterations =  2.1

     negative rho (up, down):  1.910E-03 0.000E+00

     total cpu time spent up to now is        5.4 secs

     total energy              =    -764.68047267 Ry
     Harris-Foulkes estimate   =    -764.68052118 Ry
     estimated scf accuracy    <       0.00038706 Ry

     iteration #  4     ecut=    95.00 Ry     beta= 0.70
     Davidson diagonalization with overlap
     ethr =  3.52E-06,  avg # of iterations =  3.7

     negative rho (up, down):  1.922E-03 0.000E+00

     total cpu time spent up to now is        6.8 secs

     total energy              =    -764.68090333 Ry
     Harris-Foulkes estimate   =    -764.68093572 Ry
     estimated scf accuracy    <       0.00032695 Ry

     iteration #  5     ecut=    95.00 Ry     beta= 0.70
     Davidson diagonalization with overlap
     ethr =  2.97E-06,  avg # of iterations =  1.0

     negative rho (up, down):  3.713E-03 0.000E+00

     total cpu time spent up to now is        7.6 secs

     total energy              =    -764.68073843 Ry
     Harris-Foulkes estimate   =    -764.68090447 Ry
     estimated scf accuracy    <       0.00025539 Ry

     iteration #  6     ecut=    95.00 Ry     beta= 0.70
     Davidson diagonalization with overlap
     ethr =  2.32E-06,  avg # of iterations =  2.2

     negative rho (up, down):  3.768E-03 0.000E+00

     total cpu time spent up to now is        8.6 secs

     total energy              =    -764.68081157 Ry
     Harris-Foulkes estimate   =    -764.68082498 Ry
     estimated scf accuracy    <       0.00003225 Ry

     iteration #  7     ecut=    95.00 Ry     beta= 0.70
     Davidson diagonalization with overlap
     ethr =  2.93E-07,  avg # of iterations =  1.3

     negative rho (up, down):  3.333E-03 0.000E+00

     total cpu time spent up to now is        9.4 secs

     total energy              =    -764.68081086 Ry
     Harris-Foulkes estimate   =    -764.68081463 Ry
     estimated scf accuracy    <       0.00000655 Ry

     iteration #  8     ecut=    95.00 Ry     beta= 0.70
     Davidson diagonalization with overlap
     ethr =  5.96E-08,  avg # of iterations =  2.5

     negative rho (up, down):  3.290E-03 0.000E+00

     total cpu time spent up to now is       10.4 secs

     total energy              =    -764.68081283 Ry
     Harris-Foulkes estimate   =    -764.68081288 Ry
     estimated scf accuracy    <       0.00000009 Ry

     iteration #  9     ecut=    95.00 Ry     beta= 0.70
     Davidson diagonalization with overlap
     ethr =  8.39E-10,  avg # of iterations =  3.4

     negative rho (up, down):  3.289E-03 0.000E+00

     total cpu time spent up to now is       11.9 secs

     End of self-consistent calculation

          k = 0.0000 0.0000 0.0000 (  1807 PWs)   bands (ev):

     5.8126  11.0804  11.0804  11.0804  12.6213  12.6213  31.1315  34.9848
    34.9848  34.9848

          k =-0.1000 0.1000-0.1000 (  1811 PWs)   bands (ev):

     6.1578  10.9737  11.1951  11.1951  12.5755  12.5755  31.4237  32.8883
    35.3151  35.3151

          k =-0.2000 0.2000-0.2000 (  1805 PWs)   bands (ev):

     7.0829  10.8341  11.3701  11.3701  12.6194  12.6194  28.9888  32.2150
    35.9241  35.9241

          k =-0.3000 0.3000-0.3000 (  1808 PWs)   bands (ev):

     8.0580  11.2975  11.2975  11.3144  13.0471  13.0471  24.9959  31.6240
    35.3549  35.3549

          k =-0.4000 0.4000-0.4000 (  1802 PWs)   bands (ev):

     8.3874  11.1219  11.1219  13.0895  13.5913  13.5913  21.1312  30.7489
    33.9438  33.9438

          k = 0.5000-0.5000 0.5000 (  1802 PWs)   bands (ev):

     8.4079  11.0449  11.0449  13.8318  13.8318  14.7345  18.8422  30.4113
    33.3322  33.3322

          k = 0.0000 0.2000 0.0000 (  1816 PWs)   bands (ev):

     6.2744  10.8451  11.2919  11.2919  12.3715  12.7250  31.6313  33.6239
    34.3891  34.3891

          k =-0.1000 0.3000-0.1000 (  1805 PWs)   bands (ev):

     7.0217  10.6173  11.4875  11.5217  12.2502  12.8505  30.4677  32.3308
    33.8014  35.4010

          k =-0.2000 0.4000-0.2000 (  1810 PWs)   bands (ev):

     8.0687  10.6590  11.3106  11.5594  12.8175  13.2099  26.5184  32.0746
    33.1365  35.3074

          k =-0.3000 0.5000-0.3000 (  1799 PWs)   bands (ev):

     8.6045  11.0263  11.3996  11.5917  13.6791  14.0150  22.4897  31.1616
    32.4797  33.6273

          k = 0.6000-0.4000 0.6000 (  1784 PWs)   bands (ev):

     8.6604  10.8868  11.2608  12.6152  13.8480  15.8056  19.2012  30.5392
    32.2434  32.4902

          k = 0.5000-0.3000 0.5000 (  1793 PWs)   bands (ev):

     8.6692  10.9395  11.2584  12.5288  13.5288  15.3001  20.1626  30.4097
    31.8883  33.6378

          k = 0.4000-0.2000 0.4000 (  1806 PWs)   bands (ev):

     8.5323  11.0801  11.3929  11.4062  12.8845  14.0329  23.8344  30.7471
    32.6835  35.8914

          k = 0.3000-0.1000 0.3000 (  1798 PWs)   bands (ev):

     7.7361  10.6510  11.3950  11.5656  12.3135  13.2271  27.8340  31.2892
    34.2043  36.2492

          k = 0.2000 0.0000 0.2000 (  1799 PWs)   bands (ev):

     6.7076  10.7807  11.3680  11.3796  12.3345  12.7644  31.2620  31.6067
    34.2468  36.8039

          k = 0.0000 0.4000 0.0000 (  1800 PWs)   bands (ev):

     7.5284  10.2725  11.8562  11.9010  11.9010  13.0039  32.1600  32.1600
    32.4357  32.8563

          k =-0.1000 0.5000-0.1000 (  1792 PWs)   bands (ev):

     8.4057  10.0336  11.4407  12.1409  12.7727  13.3011  28.3213  30.9529
    32.1722  33.3606

          k =-0.2000 0.6000-0.2000 (  1798 PWs)   bands (ev):

     9.0510  10.2737  11.1217  12.0475  13.7482  14.3274  24.1374  30.3031
    30.3508  32.9094

          k = 0.7000-0.3000 0.7000 (  1789 PWs)   bands (ev):

     9.1857  10.5411  11.4231  11.8681  13.8922  16.6145  20.3920  28.7203
    30.5354  32.3863

          k = 0.6000-0.2000 0.6000 (  1788 PWs)   bands (ev):

     9.2941  10.5713  11.6714  11.7678  13.5308  17.3355  19.7235  27.5813
    31.8662  32.1801

          k = 0.5000-0.1000 0.5000 (  1798 PWs)   bands (ev):

     9.3702  10.7143  11.0787  11.8128  12.8336  15.4849  23.1632  27.2875
    32.5526  34.1351

          k = 0.4000 0.0000 0.4000 (  1797 PWs)   bands (ev):

     8.7896  10.4418  11.1799  11.9795  12.1312  14.2161  26.3922  28.3279
    33.5352  36.3574

          k = 0.0000 0.6000 0.0000 (  1796 PWs)   bands (ev):

     8.7511   9.6350  12.1408  12.8036  12.8036  13.3648  29.2316  29.2316
    29.7852  32.3656

          k =-0.1000 0.7000-0.1000 (  1789 PWs)   bands (ev):

     9.0290   9.4956  12.1760  12.9162  13.7600  14.3420  25.6340  27.9732
    28.2578  33.2645

          k = 0.8000-0.2000 0.8000 (  1782 PWs)   bands (ev):

     9.2034   9.7844  11.8825  12.7252  13.9547  16.8814  21.9926  26.1394
    28.3531  33.3808

          k = 0.7000-0.1000 0.7000 (  1788 PWs)   bands (ev):

     9.4563  10.2442  11.4820  12.5047  13.6300  18.9728  20.1225  24.4775
    29.6181  33.1001

          k = 0.6000-0.0000 0.6000 (  1790 PWs)   bands (ev):

     9.7747  10.6404  10.8795  12.2486  13.0877  17.0582  23.1906  23.6913
    31.7420  32.8082

          k = 0.0000 0.8000 0.0000 (  1772 PWs)   bands (ev):

     8.8070   9.1644  13.6714  13.7273  13.7273  14.4998  24.6179  26.8730
    26.8730  32.7475

          k = 0.9000-0.1000 0.9000 (  1778 PWs)   bands (ev):

     8.8560   9.1753  13.3025  13.5189  14.0425  16.8652  22.2478  25.3547
    26.6219  33.6147

          k = 0.8000 0.0000 0.8000 (  1780 PWs)   bands (ev):

     9.1183   9.5972  12.4065  13.1687  13.8613  19.4247  20.3908  23.6628
    27.6621  33.7438

          k = 0.0000-1.0000 0.0000 (  1772 PWs)   bands (ev):

     8.6725   8.9936  13.7923  14.1538  14.1538  16.7423  21.5564  25.9422
    25.9422  33.0086

          k =-0.2000 0.4000 0.0000 (  1794 PWs)   bands (ev):

     7.8830  10.3584  11.3967  11.9069  12.2242  13.2670  29.0331  30.4942
    34.0960  34.4726

          k =-0.3000 0.5000-0.1000 (  1794 PWs)   bands (ev):

     8.8500  10.4369  11.0351  11.9285  12.7984  14.1604  25.4405  29.4232
    32.2434  35.1427

          k = 0.6000-0.4000 0.8000 (  1795 PWs)   bands (ev):

     9.1192  10.7189  11.2986  11.7726  13.5016  15.6136  21.5937  29.1651
    30.7939  33.9027

          k = 0.5000-0.3000 0.7000 (  1788 PWs)   bands (ev):

     9.1151  10.5976  11.6329  11.9035  13.7270  17.5197  18.8042  29.4845
    29.8799  33.2819

          k =-0.2000 0.6000 0.0000 (  1787 PWs)   bands (ev):

     9.0895   9.8169  11.2834  12.7960  12.8869  14.1555  26.7008  28.1747
    30.3087  35.0917

          k = 0.7000-0.3000 0.9000 (  1792 PWs)   bands (ev):

     9.4561  10.0520  11.0693  12.6055  13.5826  15.8530  23.2561  27.1998
    28.6924  34.7354

          k = 0.6000-0.2000 0.8000 (  1791 PWs)   bands (ev):

     9.6003  10.2759  11.1818  12.3183  13.7464  18.3564  19.9572  26.4543
    28.3784  34.4246

          k = 0.5000-0.1000 0.7000 (  1783 PWs)   bands (ev):

     9.8370  10.3231  10.9680  12.2571  13.4237  17.3636  21.4963  25.5395
    29.5177  34.7268

          k = 0.4000 0.0000 0.6000 (  1792 PWs)   bands (ev):

     9.7926  10.3066  10.6209  12.3823  12.8270  15.5637  24.3919  26.0345
    30.9493  35.7746

          k = 0.8000-0.2000 1.0000 (  1775 PWs)   bands (ev):

     9.1295   9.4049  12.2328  13.4364  13.7226  16.0730  23.8006  26.0605
    26.8089  34.7542

          k = 0.7000-0.1000 0.9000 (  1793 PWs)   bands (ev):

     9.3349   9.7211  11.8443  12.9975  13.9644  18.6167  21.3857  24.3531
    26.6750  35.2047

          k = 0.6000 0.0000 0.8000 (  1785 PWs)   bands (ev):

     9.6644  10.2196  11.2060  12.5824  13.7245  19.0722  21.6821  22.9103
    27.9199  35.0446

          k =-0.2000-1.0000 0.0000 (  1786 PWs)   bands (ev):

     8.9761   9.2538  12.9147  13.4277  14.1544  18.2947  21.1589  25.1920
    25.6059  34.8995

          k = 0.6000-0.2000 1.0000 (  1799 PWs)   bands (ev):

     9.8645  10.1102  10.8097  12.7440  13.7134  17.7678  22.8623  24.0909
    27.1459  37.1934

          k = 0.5000-0.1000 0.9000 (  1786 PWs)   bands (ev):

     9.9013  10.3475  10.7406  12.4885  13.9400  19.6076  21.0446  23.8078
    26.3133  37.1210

          k =-0.4000-1.0000 0.0000 (  1786 PWs)   bands (ev):

     9.6335  10.0269  11.2822  12.6457  14.1555  20.6191  20.8016  23.2751
    25.2747  37.8573

     the Fermi energy is    15.7425 ev

!    total energy              =    -764.68081292 Ry
     Harris-Foulkes estimate   =    -764.68081293 Ry
     estimated scf accuracy    <          8.2E-09 Ry

     total all-electron energy =    -38013.515275 Ry

     The total energy is the sum of the following terms:

     one-electron contribution =      13.86514069 Ry
     hartree contribution      =       7.57763794 Ry
     xc contribution           =     -31.82592577 Ry
     ewald contribution        =     -71.95438534 Ry
     one-center paw contrib.   =    -682.34289253 Ry
     smearing contrib. (-TS)   =      -0.00038792 Ry

     convergence has been achieved in   9 iterations

     negative rho (up, down):  3.289E-03 0.000E+00

     Forces acting on atoms (cartesian axes, Ry/au):

     atom    1 type  1   force =     0.00000000    0.00000000    0.00000000

     Total force =     0.000000     Total SCF correction =     0.000000


     Computing stress (Cartesian axis) and pressure


     negative rho (up, down):  3.289E-03 0.000E+00
          total   stress  (Ry/bohr**3)                   (kbar)     P=   16.79
   0.00011413  -0.00000000  -0.00000000         16.79     -0.00     -0.00
  -0.00000000   0.00011413   0.00000000         -0.00     16.79      0.00
  -0.00000000   0.00000000   0.00011413         -0.00      0.00     16.79


     Writing output data file Au.save/

     init_run     :      0.60s CPU      0.65s WALL (       1 calls)
     electrons    :      9.74s CPU     10.29s WALL (       1 calls)
     forces       :      0.10s CPU      0.10s WALL (       1 calls)
     stress       :      0.35s CPU      0.35s WALL (       1 calls)

     Called by init_run:
     wfcinit      :      0.25s CPU      0.27s WALL (       1 calls)
     potinit      :      0.11s CPU      0.13s WALL (       1 calls)
     hinit0       :      0.21s CPU      0.21s WALL (       1 calls)

     Called by electrons:
     c_bands      :      7.19s CPU      7.65s WALL (      10 calls)
     sum_band     :      1.41s CPU      1.48s WALL (      10 calls)
     v_of_rho     :      0.09s CPU      0.09s WALL (      10 calls)
     newd         :      0.14s CPU      0.14s WALL (      10 calls)
     PAW_pot      :      1.00s CPU      1.03s WALL (      10 calls)
     mix_rho      :      0.01s CPU      0.01s WALL (      10 calls)

     Called by c_bands:
     init_us_2    :      0.22s CPU      0.23s WALL (    1081 calls)
     cegterg      :      6.89s CPU      7.33s WALL (     470 calls)

     Called by sum_band:
     sum_band:bec :      0.00s CPU      0.00s WALL (     470 calls)
     addusdens    :      0.13s CPU      0.13s WALL (      10 calls)

     Called by *egterg:
     h_psi        :      5.65s CPU      6.05s WALL (    1730 calls)
     s_psi        :      0.17s CPU      0.18s WALL (    1730 calls)
     g_psi        :      0.02s CPU      0.02s WALL (    1213 calls)
     cdiaghg      :      0.39s CPU      0.40s WALL (    1636 calls)

     Called by h_psi:
     h_psi:pot    :      5.62s CPU      6.02s WALL (    1730 calls)
     h_psi:calbec :      0.25s CPU      0.27s WALL (    1730 calls)
     vloc_psi     :      5.18s CPU      5.55s WALL (    1730 calls)
     add_vuspsi   :      0.17s CPU      0.19s WALL (    1730 calls)

     General routines
     calbec       :      0.40s CPU      0.42s WALL (    2435 calls)
     fft          :      0.06s CPU      0.06s WALL (     137 calls)
     ffts         :      0.00s CPU      0.00s WALL (      10 calls)
     fftw         :      5.81s CPU      6.21s WALL (   29952 calls)

     Parallel routines
     fft_scatt_xy :      0.47s CPU      0.51s WALL (   30099 calls)
     fft_scatt_yz :      1.44s CPU      1.53s WALL (   30099 calls)

     PWSCF        :    11.76s CPU        12.45s WALL


   This run was terminated on:  12:40:45  26Mar2024            

=------------------------------------------------------------------------------=
   JOB DONE.
=------------------------------------------------------------------------------=
