
     Program PWSCF v.6.3MaX starts on 26Mar2024 at 11:34:56 

     This program is part of the open-source Quantum ESPRESSO suite
     for quantum simulation of materials; please cite
         "P. Giannozzi et al., J. Phys.:Condens. Matter 21 395502 (2009);
         "P. Giannozzi et al., J. Phys.:Condens. Matter 29 465901 (2017);
          URL http://www.quantum-espresso.org", 
     in publications or presentations arising from this work. More details at
     http://www.quantum-espresso.org/quote

     Parallel version (MPI), running on     5 processors

     MPI processes distributed on     1 nodes
     R & G space division:  proc/nbgrp/npool/nimage =       5
     Waiting for input...
     Reading input from standard input

     Current dimensions of program PWSCF are:
     Max number of different atomic species (ntypx) = 10
     Max number of k-points (npk) =  40000
     Max angular momentum in pseudopotentials (lmaxx) =  3
               file Au.pbesol-n-kjpaw_psl.1.0.0.UPF: wavefunction(s)  6S 5D renormalized

     Subspace diagonalization in iterative solution of the eigenvalue problem:
     a serial algorithm will be used


     Parallelization info
     --------------------
     sticks:   dense  smooth     PW     G-vecs:    dense   smooth      PW
     Min          62      62     21                  765      765     148
     Max          63      63     22                  770      770     151
     Sum         313     313    109                 3839     3839     749



     bravais-lattice index     =            2
     lattice parameter (alat)  =       7.7100  a.u.
     unit-cell volume          =     114.5785 (a.u.)^3
     number of atoms/cell      =            1
     number of atomic types    =            1
     number of electrons       =        11.00
     number of Kohn-Sham states=           10
     kinetic-energy cutoff     =      40.0000  Ry
     charge density cutoff     =     160.0000  Ry
     convergence threshold     =      1.0E-08
     mixing beta               =       0.7000
     number of iterations used =            8  plain     mixing
     Exchange-correlation      = SLA PW PSX PSC ( 1  4 10  8 0 0)

     celldm(1)=   7.710000  celldm(2)=   0.000000  celldm(3)=   0.000000
     celldm(4)=   0.000000  celldm(5)=   0.000000  celldm(6)=   0.000000

     crystal axes: (cart. coord. in units of alat)
               a(1) = (  -0.500000   0.000000   0.500000 )  
               a(2) = (   0.000000   0.500000   0.500000 )  
               a(3) = (  -0.500000   0.500000   0.000000 )  

     reciprocal axes: (cart. coord. in units 2 pi/alat)
               b(1) = ( -1.000000 -1.000000  1.000000 )  
               b(2) = (  1.000000  1.000000  1.000000 )  
               b(3) = ( -1.000000  1.000000 -1.000000 )  


     PseudoPot. # 1 for Au read from file:
     /home/lorenzo/pseudos/Au/Au.pbesol-n-kjpaw_psl.1.0.0.UPF
     MD5 check sum: abc371be705c47a6b6a6b4088b452d3e
     Pseudo is Projector augmented-wave + core cor, Zval = 11.0
     Generated using "atomic" code by A. Dal Corso v.6.3
     Shape of augmentation charge: PSQ
     Using radial grid of 1279 points,  6 beta functions with: 
                l(1) =   0
                l(2) =   0
                l(3) =   1
                l(4) =   1
                l(5) =   2
                l(6) =   2
     Q(r) pseudized with 0 coefficients 


     atomic species   valence    mass     pseudopotential
        Au            11.00   196.96600     Au( 1.00)

     48 Sym. Ops., with inversion, found



   Cartesian axes

     site n.     atom                  positions (alat units)
         1           Au  tau(   1) = (   0.0000000   0.0000000   0.0000000  )

     number of k points=    29  gaussian smearing, width (Ry)=  0.0100
                       cart. coord. in units 2pi/alat
        k(    1) = (   0.0000000   0.0000000   0.0000000), wk =   0.0039062
        k(    2) = (  -0.1250000   0.1250000  -0.1250000), wk =   0.0312500
        k(    3) = (  -0.2500000   0.2500000  -0.2500000), wk =   0.0312500
        k(    4) = (  -0.3750000   0.3750000  -0.3750000), wk =   0.0312500
        k(    5) = (   0.5000000  -0.5000000   0.5000000), wk =   0.0156250
        k(    6) = (   0.0000000   0.2500000   0.0000000), wk =   0.0234375
        k(    7) = (  -0.1250000   0.3750000  -0.1250000), wk =   0.0937500
        k(    8) = (  -0.2500000   0.5000000  -0.2500000), wk =   0.0937500
        k(    9) = (   0.6250000  -0.3750000   0.6250000), wk =   0.0937500
        k(   10) = (   0.5000000  -0.2500000   0.5000000), wk =   0.0937500
        k(   11) = (   0.3750000  -0.1250000   0.3750000), wk =   0.0937500
        k(   12) = (   0.2500000   0.0000000   0.2500000), wk =   0.0468750
        k(   13) = (   0.0000000   0.5000000   0.0000000), wk =   0.0234375
        k(   14) = (  -0.1250000   0.6250000  -0.1250000), wk =   0.0937500
        k(   15) = (   0.7500000  -0.2500000   0.7500000), wk =   0.0937500
        k(   16) = (   0.6250000  -0.1250000   0.6250000), wk =   0.0937500
        k(   17) = (   0.5000000   0.0000000   0.5000000), wk =   0.0468750
        k(   18) = (   0.0000000   0.7500000   0.0000000), wk =   0.0234375
        k(   19) = (   0.8750000  -0.1250000   0.8750000), wk =   0.0937500
        k(   20) = (   0.7500000   0.0000000   0.7500000), wk =   0.0468750
        k(   21) = (   0.0000000  -1.0000000   0.0000000), wk =   0.0117188
        k(   22) = (  -0.2500000   0.5000000   0.0000000), wk =   0.0937500
        k(   23) = (   0.6250000  -0.3750000   0.8750000), wk =   0.1875000
        k(   24) = (   0.5000000  -0.2500000   0.7500000), wk =   0.0937500
        k(   25) = (   0.7500000  -0.2500000   1.0000000), wk =   0.0937500
        k(   26) = (   0.6250000  -0.1250000   0.8750000), wk =   0.1875000
        k(   27) = (   0.5000000   0.0000000   0.7500000), wk =   0.0937500
        k(   28) = (  -0.2500000  -1.0000000   0.0000000), wk =   0.0468750
        k(   29) = (  -0.5000000  -1.0000000   0.0000000), wk =   0.0234375

     Dense  grid:     3839 G-vectors     FFT dimensions: (  24,  24,  24)

     Estimated max dynamical RAM per process >       4.60 MB

     Estimated total dynamical RAM >      22.98 MB

     Initial potential from superposition of free atoms

     starting charge   10.99990, renormalised to   11.00000
     Starting wfcs are    9 randomized atomic wfcs +    1 random wfcs
     Checking if some PAW data can be deallocated... 

     total cpu time spent up to now is        1.3 secs

     Self-consistent Calculation

     iteration #  1     ecut=    40.00 Ry     beta= 0.70
     Davidson diagonalization with overlap
     ethr =  1.00E-02,  avg # of iterations =  5.3

     Threshold (ethr) on eigenvalues was too large:
     Diagonalizing with lowered threshold

     Davidson diagonalization with overlap
     ethr =  5.44E-04,  avg # of iterations =  1.7

     total cpu time spent up to now is        1.9 secs

     total energy              =    -764.66238702 Ry
     Harris-Foulkes estimate   =    -764.69855695 Ry
     estimated scf accuracy    <       0.06086294 Ry

     iteration #  2     ecut=    40.00 Ry     beta= 0.70
     Davidson diagonalization with overlap
     ethr =  5.53E-04,  avg # of iterations =  4.3

     total cpu time spent up to now is        2.3 secs

     total energy              =    -717.98636171 Ry
     Harris-Foulkes estimate   =    -861.94573560 Ry
     estimated scf accuracy    <  126410.34111415 Ry

     iteration #  3     ecut=    40.00 Ry     beta= 0.70
     Davidson diagonalization with overlap
     ethr =  5.53E-04,  avg # of iterations =  7.7

     total cpu time spent up to now is        2.8 secs

     total energy              =    -764.67457248 Ry
     Harris-Foulkes estimate   =    -764.68698990 Ry
     estimated scf accuracy    <       0.02590526 Ry

     iteration #  4     ecut=    40.00 Ry     beta= 0.70
     Davidson diagonalization with overlap
     ethr =  2.36E-04,  avg # of iterations =  1.7

     total cpu time spent up to now is        3.1 secs

     total energy              =    -764.67843477 Ry
     Harris-Foulkes estimate   =    -764.67860557 Ry
     estimated scf accuracy    <       0.00509073 Ry

     iteration #  5     ecut=    40.00 Ry     beta= 0.70
     Davidson diagonalization with overlap
     ethr =  4.63E-05,  avg # of iterations =  2.8

     total cpu time spent up to now is        3.4 secs

     total energy              =    -764.67908699 Ry
     Harris-Foulkes estimate   =    -764.67914234 Ry
     estimated scf accuracy    <       0.00262607 Ry

     iteration #  6     ecut=    40.00 Ry     beta= 0.70
     Davidson diagonalization with overlap
     ethr =  2.39E-05,  avg # of iterations =  1.0

     total cpu time spent up to now is        3.7 secs

     total energy              =    -764.67913344 Ry
     Harris-Foulkes estimate   =    -764.67914397 Ry
     estimated scf accuracy    <       0.00253431 Ry

     iteration #  7     ecut=    40.00 Ry     beta= 0.70
     Davidson diagonalization with overlap
     ethr =  2.30E-05,  avg # of iterations =  1.2

     total cpu time spent up to now is        4.0 secs

     total energy              =    -764.67914358 Ry
     Harris-Foulkes estimate   =    -764.67917034 Ry
     estimated scf accuracy    <       0.00272555 Ry

     iteration #  8     ecut=    40.00 Ry     beta= 0.70
     Davidson diagonalization with overlap
     ethr =  2.30E-05,  avg # of iterations =  1.0

     total cpu time spent up to now is        4.3 secs

     total energy              =    -764.67915251 Ry
     Harris-Foulkes estimate   =    -764.67915409 Ry
     estimated scf accuracy    <       0.00270763 Ry

     iteration #  9     ecut=    40.00 Ry     beta= 0.70
     Davidson diagonalization with overlap
     ethr =  2.30E-05,  avg # of iterations =  1.3

     total cpu time spent up to now is        4.7 secs

     total energy              =    -764.67915503 Ry
     Harris-Foulkes estimate   =    -764.67915492 Ry
     estimated scf accuracy    <       0.00270116 Ry

     iteration # 10     ecut=    40.00 Ry     beta= 0.70
     Davidson diagonalization with overlap
     ethr =  2.30E-05,  avg # of iterations =  1.0

     total cpu time spent up to now is        5.0 secs

     total energy              =    -764.67915573 Ry
     Harris-Foulkes estimate   =    -764.67915595 Ry
     estimated scf accuracy    <       0.00270118 Ry

     iteration # 11     ecut=    40.00 Ry     beta= 0.70
     Davidson diagonalization with overlap
     ethr =  2.30E-05,  avg # of iterations =  1.0

     total cpu time spent up to now is        5.3 secs

     total energy              =    -764.67926420 Ry
     Harris-Foulkes estimate   =    -764.67915629 Ry
     estimated scf accuracy    <       0.00269975 Ry

     iteration # 12     ecut=    40.00 Ry     beta= 0.70
     Davidson diagonalization with overlap
     ethr =  2.30E-05,  avg # of iterations =  1.0

     total cpu time spent up to now is        5.6 secs

     total energy              =    -764.67861331 Ry
     Harris-Foulkes estimate   =    -764.67936998 Ry
     estimated scf accuracy    <       0.00307891 Ry

     iteration # 13     ecut=    40.00 Ry     beta= 0.70
     Davidson diagonalization with overlap
     ethr =  2.30E-05,  avg # of iterations =  3.1

     total cpu time spent up to now is        5.9 secs

     total energy              =    -764.67890203 Ry
     Harris-Foulkes estimate   =    -764.67900943 Ry
     estimated scf accuracy    <       0.00047064 Ry

     iteration # 14     ecut=    40.00 Ry     beta= 0.70
     Davidson diagonalization with overlap
     ethr =  4.28E-06,  avg # of iterations =  1.9

     total cpu time spent up to now is        6.2 secs

     total energy              =    -764.67891350 Ry
     Harris-Foulkes estimate   =    -764.67892540 Ry
     estimated scf accuracy    <       0.00014133 Ry

     iteration # 15     ecut=    40.00 Ry     beta= 0.70
     Davidson diagonalization with overlap
     ethr =  1.28E-06,  avg # of iterations =  2.6

     total cpu time spent up to now is        6.5 secs

     total energy              =    -764.67892091 Ry
     Harris-Foulkes estimate   =    -764.67892374 Ry
     estimated scf accuracy    <       0.00001710 Ry

     iteration # 16     ecut=    40.00 Ry     beta= 0.70
     Davidson diagonalization with overlap
     ethr =  1.55E-07,  avg # of iterations =  2.3

     total cpu time spent up to now is        6.8 secs

     total energy              =    -764.67892295 Ry
     Harris-Foulkes estimate   =    -764.67892336 Ry
     estimated scf accuracy    <       0.00000494 Ry

     iteration # 17     ecut=    40.00 Ry     beta= 0.70
     Davidson diagonalization with overlap
     ethr =  4.49E-08,  avg # of iterations =  2.0

     total cpu time spent up to now is        7.1 secs

     total energy              =    -764.67892353 Ry
     Harris-Foulkes estimate   =    -764.67892346 Ry
     estimated scf accuracy    <       0.00000030 Ry

     iteration # 18     ecut=    40.00 Ry     beta= 0.70
     Davidson diagonalization with overlap
     ethr =  2.75E-09,  avg # of iterations =  3.1

     total cpu time spent up to now is        7.4 secs

     total energy              =    -764.67892351 Ry
     Harris-Foulkes estimate   =    -764.67892364 Ry
     estimated scf accuracy    <       0.00000035 Ry

     iteration # 19     ecut=    40.00 Ry     beta= 0.70
     Davidson diagonalization with overlap
     ethr =  2.75E-09,  avg # of iterations =  2.1

     total cpu time spent up to now is        7.7 secs

     total energy              =    -764.67892358 Ry
     Harris-Foulkes estimate   =    -764.67892359 Ry
     estimated scf accuracy    <       0.00000012 Ry

     iteration # 20     ecut=    40.00 Ry     beta= 0.70
     Davidson diagonalization with overlap
     ethr =  1.05E-09,  avg # of iterations =  1.0

     total cpu time spent up to now is        8.0 secs

     total energy              =    -764.67892356 Ry
     Harris-Foulkes estimate   =    -764.67892358 Ry
     estimated scf accuracy    <       0.00000007 Ry

     iteration # 21     ecut=    40.00 Ry     beta= 0.70
     Davidson diagonalization with overlap
     ethr =  6.43E-10,  avg # of iterations =  2.6

     total cpu time spent up to now is        8.3 secs

     total energy              =    -764.67892358 Ry
     Harris-Foulkes estimate   =    -764.67892359 Ry
     estimated scf accuracy    <       0.00000008 Ry

     iteration # 22     ecut=    40.00 Ry     beta= 0.70
     Davidson diagonalization with overlap
     ethr =  6.43E-10,  avg # of iterations =  1.6

     total cpu time spent up to now is        8.5 secs

     total energy              =    -764.67892358 Ry
     Harris-Foulkes estimate   =    -764.67892358 Ry
     estimated scf accuracy    <       0.00000001 Ry

     iteration # 23     ecut=    40.00 Ry     beta= 0.70
     Davidson diagonalization with overlap
     ethr =  9.61E-11,  avg # of iterations =  2.9

     total cpu time spent up to now is        8.8 secs

     End of self-consistent calculation

          k = 0.0000 0.0000 0.0000 (   531 PWs)   bands (ev):

     5.8133  11.0893  11.0893  11.0893  12.6288  12.6288  31.1313  34.9848
    34.9848  34.9848

          k =-0.1250 0.1250-0.1250 (   507 PWs)   bands (ev):

     6.3459  10.9353  11.2564  11.2564  12.5708  12.5708  31.4030  32.2806
    35.4780  35.4780

          k =-0.2500 0.2500-0.2500 (   492 PWs)   bands (ev):

     7.6267  10.9396  11.3740  11.3740  12.7972  12.7972  27.0745  32.0823
    35.9348  35.9348

          k =-0.3750 0.3750-0.3750 (   492 PWs)   bands (ev):

     8.3656  11.1697  11.1697  12.5539  13.4789  13.4789  22.0845  30.9383
    34.2867  34.2867

          k = 0.5000-0.5000 0.5000 (   476 PWs)   bands (ev):

     8.4187  11.0531  11.0531  13.8416  13.8416  14.7349  18.8764  30.4105
    33.3340  33.3340

          k = 0.0000 0.2500 0.0000 (   504 PWs)   bands (ev):

     6.5271  10.7327  11.4179  11.4179  12.2549  12.7881  31.9302  33.1951
    34.0355  34.0355

          k =-0.1250 0.3750-0.1250 (   497 PWs)   bands (ev):

     7.6133  10.4562  11.4866  11.6895  12.3911  13.0383  29.0382  32.5123
    33.0154  35.0461

          k =-0.2500 0.5000-0.2500 (   492 PWs)   bands (ev):

     8.6535  10.9648  11.0750  11.5843  13.6067  13.7390  23.9132  31.4480
    32.0955  33.6414

          k = 0.6250-0.3750 0.6250 (   487 PWs)   bands (ev):

     8.7987  10.8184  11.3878  12.2626  13.8666  16.0775  19.4492  30.3291
    32.0395  32.0458

          k = 0.5000-0.2500 0.5000 (   493 PWs)   bands (ev):

     8.8212  10.8987  11.3817  12.1240  13.3842  15.3885  20.8456  29.8877
    31.8417  33.7103

          k = 0.3750-0.1250 0.3750 (   495 PWs)   bands (ev):

     8.4570  10.7459  11.2737  11.5994  12.5153  13.8796  25.6281  30.3268
    33.2306  36.9227

          k = 0.2500 0.0000 0.2500 (   503 PWs)   bands (ev):

     7.1713  10.6709  11.4372  11.5312  12.2266  12.9634  30.0660  31.3347
    34.3696  36.4326

          k = 0.0000 0.5000 0.0000 (   480 PWs)   bands (ev):

     8.2533   9.9555  11.7803  12.3365  12.3365  13.1876  30.7464  30.7464
    31.9335  32.8659

          k =-0.1250 0.6250-0.1250 (   488 PWs)   bands (ev):

     9.0259   9.7726  11.5618  12.5126  13.6651  13.8876  26.0334  29.3737
    29.5278  33.2561

          k = 0.7500-0.2500 0.7500 (   487 PWs)   bands (ev):

     9.2927  10.2129  11.4216  12.2881  13.9321  16.8043  21.2234  27.3021
    29.4052  32.9671

          k = 0.6250-0.1250 0.6250 (   486 PWs)   bands (ev):

     9.5700  10.4900  11.3202  12.1056  13.4266  17.6799  20.6341  25.6929
    31.1527  32.6363

          k = 0.5000 0.0000 0.5000 (   489 PWs)   bands (ev):

     9.6330  10.5390  10.8787  12.0227  12.6185  15.5072  24.3478  26.0885
    32.7858  34.0739

          k = 0.0000 0.7500 0.0000 (   484 PWs)   bands (ev):

     8.8532   9.2694  13.5325  13.5325  13.6109  13.7758  25.7658  27.3792
    27.3792  32.4639

          k = 0.8750-0.1250 0.8750 (   481 PWs)   bands (ev):

     8.9439   9.2950  12.9494  13.3594  14.0283  16.8989  22.4163  25.2162
    26.9724  33.6225

          k = 0.7500 0.0000 0.7500 (   492 PWs)   bands (ev):

     9.2961   9.9178  11.9355  12.9180  13.7186  19.6653  20.4566  23.1489
    28.4824  33.5451

          k = 0.0000-1.0000 0.0000 (   468 PWs)   bands (ev):

     8.6699   9.0064  13.7942  14.1711  14.1711  16.7434  21.5109  25.9434
    25.9434  32.7863

          k =-0.2500 0.5000 0.0000 (   488 PWs)   bands (ev):

     8.7483  10.1641  11.1317  12.3387  12.4279  13.9181  27.1896  28.9658
    32.2117  35.4569

          k = 0.6250-0.3750 0.8750 (   488 PWs)   bands (ev):

     9.4387  10.5876  10.7839  12.1415  13.3434  15.6514  22.8208  27.8138
    30.2301  34.7708

          k = 0.5000-0.2500 0.7500 (   484 PWs)   bands (ev):

     9.4476  10.4080  11.5080  11.9363  13.7031  18.3974  18.8724  28.0380
    29.0142  34.0024

          k = 0.7500-0.2500 1.0000 (   486 PWs)   bands (ev):

     9.3613   9.6253  11.5930  13.2248  13.5233  15.9126  24.1753  26.1264
    27.4914  35.4923

          k = 0.6250-0.1250 0.8750 (   491 PWs)   bands (ev):

     9.6138  10.0591  11.2691  12.6998  13.8889  18.9248  20.9554  24.5398
    26.8743  35.6783

          k = 0.5000 0.0000 0.7500 (   483 PWs)   bands (ev):

    10.0628  10.3470  10.6327  12.4896  13.5263  17.8388  22.9048  23.3728
    28.3930  35.6983

          k =-0.2500-1.0000 0.0000 (   484 PWs)   bands (ev):

     9.1309   9.4109  12.4935  13.2463  14.1720  18.9141  20.9746  24.8227
    25.4077  35.6541

          k =-0.5000-1.0000 0.0000 (   488 PWs)   bands (ev):

     9.7886  10.6059  10.6059  12.4763  14.1730  20.5247  22.1070  22.1070
    25.1010  39.3195

     the Fermi energy is    15.7453 ev

!    total energy              =    -764.67892360 Ry
     Harris-Foulkes estimate   =    -764.67892358 Ry
     estimated scf accuracy    <          2.4E-09 Ry

     total all-electron energy =    -38013.513386 Ry

     The total energy is the sum of the following terms:

     one-electron contribution =      13.86513960 Ry
     hartree contribution      =       7.57976229 Ry
     xc contribution           =     -31.82302569 Ry
     ewald contribution        =     -71.95438540 Ry
     one-center paw contrib.   =    -682.34602018 Ry
     smearing contrib. (-TS)   =      -0.00039422 Ry

     convergence has been achieved in  23 iterations

     Forces acting on atoms (cartesian axes, Ry/au):

     atom    1 type  1   force =     0.00000000    0.00000000    0.00000000

     Total force =     0.000000     Total SCF correction =     0.000000


     Computing stress (Cartesian axis) and pressure

          total   stress  (Ry/bohr**3)                   (kbar)     P=   21.51
   0.00014624   0.00000000   0.00000000         21.51      0.00      0.00
   0.00000000   0.00014624  -0.00000000          0.00     21.51     -0.00
   0.00000000   0.00000000   0.00014624          0.00      0.00     21.51


     Writing output data file Au.save/

     init_run     :      0.38s CPU      0.40s WALL (       1 calls)
     electrons    :      6.87s CPU      7.50s WALL (       1 calls)
     forces       :      0.02s CPU      0.02s WALL (       1 calls)
     stress       :      0.07s CPU      0.07s WALL (       1 calls)

     Called by init_run:
     wfcinit      :      0.07s CPU      0.08s WALL (       1 calls)
     potinit      :      0.14s CPU      0.15s WALL (       1 calls)
     hinit0       :      0.14s CPU      0.15s WALL (       1 calls)

     Called by electrons:
     c_bands      :      3.62s CPU      3.87s WALL (      24 calls)
     sum_band     :      0.70s CPU      0.75s WALL (      24 calls)
     v_of_rho     :      0.07s CPU      0.07s WALL (      24 calls)
     newd         :      0.11s CPU      0.11s WALL (      24 calls)
     PAW_pot      :      2.48s CPU      2.82s WALL (      24 calls)
     mix_rho      :      0.01s CPU      0.01s WALL (      24 calls)

     Called by c_bands:
     init_us_2    :      0.10s CPU      0.10s WALL (    1479 calls)
     cegterg      :      3.46s CPU      3.70s WALL (     696 calls)

     Called by sum_band:
     sum_band:bec :      0.01s CPU      0.01s WALL (     696 calls)
     addusdens    :      0.09s CPU      0.09s WALL (      24 calls)

     Called by *egterg:
     h_psi        :      2.52s CPU      2.70s WALL (    2352 calls)
     s_psi        :      0.07s CPU      0.08s WALL (    2352 calls)
     g_psi        :      0.01s CPU      0.01s WALL (    1627 calls)
     cdiaghg      :      0.48s CPU      0.51s WALL (    2294 calls)

     Called by h_psi:
     h_psi:pot    :      2.51s CPU      2.69s WALL (    2352 calls)
     h_psi:calbec :      0.13s CPU      0.14s WALL (    2352 calls)
     vloc_psi     :      2.29s CPU      2.46s WALL (    2352 calls)
     add_vuspsi   :      0.07s CPU      0.08s WALL (    2352 calls)

     General routines
     calbec       :      0.17s CPU      0.18s WALL (    3193 calls)
     fft          :      0.05s CPU      0.05s WALL (     291 calls)
     ffts         :      0.00s CPU      0.00s WALL (      24 calls)
     fftw         :      2.56s CPU      2.75s WALL (   40846 calls)

     Parallel routines
     fft_scatt_xy :      0.23s CPU      0.25s WALL (   41161 calls)
     fft_scatt_yz :      0.86s CPU      0.91s WALL (   41161 calls)

     PWSCF        :     8.32s CPU         9.04s WALL


   This run was terminated on:  11:35: 5  26Mar2024            

=------------------------------------------------------------------------------=
   JOB DONE.
=------------------------------------------------------------------------------=
