
     Program PWSCF v.6.3MaX starts on 26Mar2024 at 11:28:27 

     This program is part of the open-source Quantum ESPRESSO suite
     for quantum simulation of materials; please cite
         "P. Giannozzi et al., J. Phys.:Condens. Matter 21 395502 (2009);
         "P. Giannozzi et al., J. Phys.:Condens. Matter 29 465901 (2017);
          URL http://www.quantum-espresso.org", 
     in publications or presentations arising from this work. More details at
     http://www.quantum-espresso.org/quote

     Parallel version (MPI), running on     5 processors

     MPI processes distributed on     1 nodes
     R & G space division:  proc/nbgrp/npool/nimage =       5
     Waiting for input...
     Reading input from standard input

     Current dimensions of program PWSCF are:
     Max number of different atomic species (ntypx) = 10
     Max number of k-points (npk) =  40000
     Max angular momentum in pseudopotentials (lmaxx) =  3

     Subspace diagonalization in iterative solution of the eigenvalue problem:
     a serial algorithm will be used


     Parallelization info
     --------------------
     sticks:   dense  smooth     PW     G-vecs:    dense   smooth      PW
     Min          56      56     14                  627      627      82
     Max          57      57     15                  630      630      83
     Sum         283     283     73                 3143     3143     411



     bravais-lattice index     =            2
     lattice parameter (alat)  =       7.7100  a.u.
     unit-cell volume          =     114.5785 (a.u.)^3
     number of atoms/cell      =            1
     number of atomic types    =            1
     number of electrons       =        11.00
     number of Kohn-Sham states=           10
     kinetic-energy cutoff     =      35.0000  Ry
     charge density cutoff     =     140.0000  Ry
     convergence threshold     =      1.0E-08
     mixing beta               =       0.7000
     number of iterations used =            8  plain     mixing
     Exchange-correlation      = PBE ( 1  4  3  4 0 0)

     celldm(1)=   7.710000  celldm(2)=   0.000000  celldm(3)=   0.000000
     celldm(4)=   0.000000  celldm(5)=   0.000000  celldm(6)=   0.000000

     crystal axes: (cart. coord. in units of alat)
               a(1) = (  -0.500000   0.000000   0.500000 )  
               a(2) = (   0.000000   0.500000   0.500000 )  
               a(3) = (  -0.500000   0.500000   0.000000 )  

     reciprocal axes: (cart. coord. in units 2 pi/alat)
               b(1) = ( -1.000000 -1.000000  1.000000 )  
               b(2) = (  1.000000  1.000000  1.000000 )  
               b(3) = ( -1.000000  1.000000 -1.000000 )  


     PseudoPot. # 1 for Au read from file:
     /home/lorenzo/pseudos/Au/Au.pbe-n-rrkjus_psl.1.0.0.UPF
     MD5 check sum: d7e77ba19504afed2c9b41c931dde4f0
     Pseudo is Ultrasoft + core correction, Zval = 11.0
     Generated using "atomic" code by A. Dal Corso v.6.3
     Using radial grid of 1279 points,  6 beta functions with: 
                l(1) =   0
                l(2) =   0
                l(3) =   1
                l(4) =   1
                l(5) =   2
                l(6) =   2
     Q(r) pseudized with 0 coefficients 


     atomic species   valence    mass     pseudopotential
        Au            11.00   196.96600     Au( 1.00)

     48 Sym. Ops., with inversion, found



   Cartesian axes

     site n.     atom                  positions (alat units)
         1           Au  tau(   1) = (   0.0000000   0.0000000   0.0000000  )

     number of k points=     1  gaussian smearing, width (Ry)=  0.0100
                       cart. coord. in units 2pi/alat
        k(    1) = (   0.0000000   0.0000000   0.0000000), wk =   2.0000000

     Dense  grid:     3143 G-vectors     FFT dimensions: (  24,  24,  24)

     Estimated max dynamical RAM per process >       3.58 MB

     Estimated total dynamical RAM >      17.92 MB

     Initial potential from superposition of free atoms

     starting charge   10.99989, renormalised to   11.00000
     Starting wfcs are    9 randomized atomic wfcs +    1 random wfcs

     total cpu time spent up to now is        1.1 secs

     Self-consistent Calculation

     iteration #  1     ecut=    35.00 Ry     beta= 0.70
     Davidson diagonalization with overlap
     ethr =  1.00E-02,  avg # of iterations =  8.0

     Threshold (ethr) on eigenvalues was too large:
     Diagonalizing with lowered threshold

     Davidson diagonalization with overlap
     ethr =  8.43E-04,  avg # of iterations =  1.0

     total cpu time spent up to now is        1.1 secs

     total energy              =     -86.16433216 Ry
     Harris-Foulkes estimate   =     -86.21699499 Ry
     estimated scf accuracy    <       0.09249029 Ry

     iteration #  2     ecut=    35.00 Ry     beta= 0.70
     Davidson diagonalization with overlap
     ethr =  8.41E-04,  avg # of iterations =  2.0

     total cpu time spent up to now is        1.1 secs

     total energy              =     -86.18394270 Ry
     Harris-Foulkes estimate   =     -86.18665404 Ry
     estimated scf accuracy    <       0.00462267 Ry

     iteration #  3     ecut=    35.00 Ry     beta= 0.70
     Davidson diagonalization with overlap
     ethr =  4.20E-05,  avg # of iterations =  3.0

     total cpu time spent up to now is        1.2 secs

     total energy              =     -86.18555039 Ry
     Harris-Foulkes estimate   =     -86.18552038 Ry
     estimated scf accuracy    <       0.00029627 Ry

     iteration #  4     ecut=    35.00 Ry     beta= 0.70
     Davidson diagonalization with overlap
     ethr =  2.69E-06,  avg # of iterations =  3.0

     total cpu time spent up to now is        1.2 secs

     total energy              =     -86.18562892 Ry
     Harris-Foulkes estimate   =     -86.18565855 Ry
     estimated scf accuracy    <       0.00004645 Ry

     iteration #  5     ecut=    35.00 Ry     beta= 0.70
     Davidson diagonalization with overlap
     ethr =  4.22E-07,  avg # of iterations =  2.0

     total cpu time spent up to now is        1.2 secs

     total energy              =     -86.18563621 Ry
     Harris-Foulkes estimate   =     -86.18563673 Ry
     estimated scf accuracy    <       0.00000108 Ry

     iteration #  6     ecut=    35.00 Ry     beta= 0.70
     Davidson diagonalization with overlap
     ethr =  9.85E-09,  avg # of iterations =  4.0

     total cpu time spent up to now is        1.2 secs

     total energy              =     -86.18563749 Ry
     Harris-Foulkes estimate   =     -86.18563770 Ry
     estimated scf accuracy    <       0.00000039 Ry

     iteration #  7     ecut=    35.00 Ry     beta= 0.70
     Davidson diagonalization with overlap
     ethr =  3.57E-09,  avg # of iterations =  1.0

     total cpu time spent up to now is        1.2 secs

     total energy              =     -86.18563748 Ry
     Harris-Foulkes estimate   =     -86.18563752 Ry
     estimated scf accuracy    <       0.00000006 Ry

     iteration #  8     ecut=    35.00 Ry     beta= 0.70
     Davidson diagonalization with overlap
     ethr =  5.24E-10,  avg # of iterations =  3.0

     total cpu time spent up to now is        1.2 secs

     total energy              =     -86.18563752 Ry
     Harris-Foulkes estimate   =     -86.18563753 Ry
     estimated scf accuracy    <       0.00000002 Ry

     iteration #  9     ecut=    35.00 Ry     beta= 0.70
     Davidson diagonalization with overlap
     ethr =  1.69E-10,  avg # of iterations =  1.0

     total cpu time spent up to now is        1.3 secs

     End of self-consistent calculation

          k = 0.0000 0.0000 0.0000 (   411 PWs)   bands (ev):

     6.1488  10.9488  10.9488  10.9488  12.3229  12.3229  31.8955  35.3183
    35.3183  35.3183

     the Fermi energy is    12.3878 ev

!    total energy              =     -86.18563752 Ry
     Harris-Foulkes estimate   =     -86.18563753 Ry
     estimated scf accuracy    <          5.4E-09 Ry

     The total energy is the sum of the following terms:

     one-electron contribution =      10.42426168 Ry
     hartree contribution      =       7.33307373 Ry
     xc contribution           =     -31.97959940 Ry
     ewald contribution        =     -71.95438545 Ry
     smearing contrib. (-TS)   =      -0.00898808 Ry

     convergence has been achieved in   9 iterations

     Forces acting on atoms (cartesian axes, Ry/au):

     atom    1 type  1   force =     0.00000000    0.00000000    0.00000000

     Total force =     0.000000     Total SCF correction =     0.000000


     Computing stress (Cartesian axis) and pressure

          total   stress  (Ry/bohr**3)                   (kbar)     P= -862.74
  -0.00586478  -0.00000000   0.00000000       -862.74     -0.00      0.00
   0.00000000  -0.00586478  -0.00000000          0.00   -862.74     -0.00
   0.00000000  -0.00000000  -0.00586478          0.00     -0.00   -862.74


     Writing output data file Au.save/

     init_run     :      0.14s CPU      0.14s WALL (       1 calls)
     electrons    :      0.17s CPU      0.19s WALL (       1 calls)
     forces       :      0.02s CPU      0.02s WALL (       1 calls)
     stress       :      0.03s CPU      0.03s WALL (       1 calls)

     Called by init_run:
     wfcinit      :      0.00s CPU      0.00s WALL (       1 calls)
     potinit      :      0.01s CPU      0.01s WALL (       1 calls)
     hinit0       :      0.12s CPU      0.12s WALL (       1 calls)

     Called by electrons:
     c_bands      :      0.07s CPU      0.07s WALL (      10 calls)
     sum_band     :      0.05s CPU      0.05s WALL (      10 calls)
     v_of_rho     :      0.03s CPU      0.03s WALL (      10 calls)
     newd         :      0.03s CPU      0.04s WALL (      10 calls)
     mix_rho      :      0.00s CPU      0.00s WALL (      10 calls)

     Called by c_bands:
     init_us_2    :      0.00s CPU      0.00s WALL (      21 calls)
     cegterg      :      0.06s CPU      0.07s WALL (      10 calls)

     Called by sum_band:
     sum_band:bec :      0.00s CPU      0.00s WALL (      10 calls)
     addusdens    :      0.03s CPU      0.03s WALL (      10 calls)

     Called by *egterg:
     h_psi        :      0.05s CPU      0.05s WALL (      39 calls)
     s_psi        :      0.00s CPU      0.00s WALL (      39 calls)
     g_psi        :      0.00s CPU      0.00s WALL (      28 calls)
     cdiaghg      :      0.01s CPU      0.01s WALL (      37 calls)

     Called by h_psi:
     h_psi:pot    :      0.05s CPU      0.05s WALL (      39 calls)
     h_psi:calbec :      0.01s CPU      0.01s WALL (      39 calls)
     vloc_psi     :      0.04s CPU      0.04s WALL (      39 calls)
     add_vuspsi   :      0.00s CPU      0.00s WALL (      39 calls)

     General routines
     calbec       :      0.01s CPU      0.01s WALL (      54 calls)
     fft          :      0.02s CPU      0.02s WALL (     137 calls)
     ffts         :      0.00s CPU      0.00s WALL (      10 calls)
     fftw         :      0.04s CPU      0.04s WALL (     672 calls)

     Parallel routines
     fft_scatt_xy :      0.01s CPU      0.01s WALL (     819 calls)
     fft_scatt_yz :      0.02s CPU      0.02s WALL (     819 calls)

     PWSCF        :     1.31s CPU         1.36s WALL


   This run was terminated on:  11:28:28  26Mar2024            

=------------------------------------------------------------------------------=
   JOB DONE.
=------------------------------------------------------------------------------=
