
     Program PWSCF v.6.3MaX starts on 26Mar2024 at 11:48:21 

     This program is part of the open-source Quantum ESPRESSO suite
     for quantum simulation of materials; please cite
         "P. Giannozzi et al., J. Phys.:Condens. Matter 21 395502 (2009);
         "P. Giannozzi et al., J. Phys.:Condens. Matter 29 465901 (2017);
          URL http://www.quantum-espresso.org", 
     in publications or presentations arising from this work. More details at
     http://www.quantum-espresso.org/quote

     Parallel version (MPI), running on     5 processors

     MPI processes distributed on     1 nodes
     R & G space division:  proc/nbgrp/npool/nimage =       5
     Waiting for input...
     Reading input from standard input

     Current dimensions of program PWSCF are:
     Max number of different atomic species (ntypx) = 10
     Max number of k-points (npk) =  40000
     Max angular momentum in pseudopotentials (lmaxx) =  3

     Subspace diagonalization in iterative solution of the eigenvalue problem:
     a serial algorithm will be used


     Parallelization info
     --------------------
     sticks:   dense  smooth     PW     G-vecs:    dense   smooth      PW
     Min          89      89     30                 1260     1260     227
     Max          92      92     31                 1261     1261     228
     Sum         451     451    151                 6303     6303    1139



     bravais-lattice index     =            2
     lattice parameter (alat)  =       7.7100  a.u.
     unit-cell volume          =     114.5785 (a.u.)^3
     number of atoms/cell      =            1
     number of atomic types    =            1
     number of electrons       =        11.00
     number of Kohn-Sham states=           10
     kinetic-energy cutoff     =      55.0000  Ry
     charge density cutoff     =     220.0000  Ry
     convergence threshold     =      1.0E-08
     mixing beta               =       0.7000
     number of iterations used =            8  plain     mixing
     Exchange-correlation      = PBE ( 1  4  3  4 0 0)

     celldm(1)=   7.710000  celldm(2)=   0.000000  celldm(3)=   0.000000
     celldm(4)=   0.000000  celldm(5)=   0.000000  celldm(6)=   0.000000

     crystal axes: (cart. coord. in units of alat)
               a(1) = (  -0.500000   0.000000   0.500000 )  
               a(2) = (   0.000000   0.500000   0.500000 )  
               a(3) = (  -0.500000   0.500000   0.000000 )  

     reciprocal axes: (cart. coord. in units 2 pi/alat)
               b(1) = ( -1.000000 -1.000000  1.000000 )  
               b(2) = (  1.000000  1.000000  1.000000 )  
               b(3) = ( -1.000000  1.000000 -1.000000 )  


     PseudoPot. # 1 for Au read from file:
     /home/lorenzo/pseudos/Au/Au.pbe-n-rrkjus_psl.1.0.0.UPF
     MD5 check sum: d7e77ba19504afed2c9b41c931dde4f0
     Pseudo is Ultrasoft + core correction, Zval = 11.0
     Generated using "atomic" code by A. Dal Corso v.6.3
     Using radial grid of 1279 points,  6 beta functions with: 
                l(1) =   0
                l(2) =   0
                l(3) =   1
                l(4) =   1
                l(5) =   2
                l(6) =   2
     Q(r) pseudized with 0 coefficients 


     atomic species   valence    mass     pseudopotential
        Au            11.00   196.96600     Au( 1.00)

     48 Sym. Ops., with inversion, found



   Cartesian axes

     site n.     atom                  positions (alat units)
         1           Au  tau(   1) = (   0.0000000   0.0000000   0.0000000  )

     number of k points=    10  gaussian smearing, width (Ry)=  0.0100
                       cart. coord. in units 2pi/alat
        k(    1) = (   0.0000000   0.0000000   0.0000000), wk =   0.0160000
        k(    2) = (  -0.2000000   0.2000000  -0.2000000), wk =   0.1280000
        k(    3) = (  -0.4000000   0.4000000  -0.4000000), wk =   0.1280000
        k(    4) = (   0.0000000   0.4000000   0.0000000), wk =   0.0960000
        k(    5) = (  -0.2000000   0.6000000  -0.2000000), wk =   0.3840000
        k(    6) = (   0.6000000  -0.2000000   0.6000000), wk =   0.3840000
        k(    7) = (   0.4000000   0.0000000   0.4000000), wk =   0.1920000
        k(    8) = (   0.0000000   0.8000000   0.0000000), wk =   0.0960000
        k(    9) = (   0.8000000   0.0000000   0.8000000), wk =   0.1920000
        k(   10) = (   0.6000000  -0.2000000   1.0000000), wk =   0.3840000

     Dense  grid:     6303 G-vectors     FFT dimensions: (  25,  25,  25)

     Estimated max dynamical RAM per process >       6.37 MB

     Estimated total dynamical RAM >      31.87 MB

     Initial potential from superposition of free atoms

     starting charge   10.99989, renormalised to   11.00000
     Starting wfcs are    9 randomized atomic wfcs +    1 random wfcs

     total cpu time spent up to now is        1.0 secs

     Self-consistent Calculation

     iteration #  1     ecut=    55.00 Ry     beta= 0.70
     Davidson diagonalization with overlap
     ethr =  1.00E-02,  avg # of iterations =  5.7

     Threshold (ethr) on eigenvalues was too large:
     Diagonalizing with lowered threshold

     Davidson diagonalization with overlap
     ethr =  4.67E-04,  avg # of iterations =  1.6

     total cpu time spent up to now is        1.3 secs

     total energy              =     -85.37821890 Ry
     Harris-Foulkes estimate   =     -85.41166406 Ry
     estimated scf accuracy    <       0.05315807 Ry

     iteration #  2     ecut=    55.00 Ry     beta= 0.70
     Davidson diagonalization with overlap
     ethr =  4.83E-04,  avg # of iterations =  2.4

     total cpu time spent up to now is        1.5 secs

     total energy              =     -85.39241641 Ry
     Harris-Foulkes estimate   =     -85.40018736 Ry
     estimated scf accuracy    <       0.01262879 Ry

     iteration #  3     ecut=    55.00 Ry     beta= 0.70
     Davidson diagonalization with overlap
     ethr =  1.15E-04,  avg # of iterations =  2.0

     total cpu time spent up to now is        1.6 secs

     total energy              =     -85.39523444 Ry
     Harris-Foulkes estimate   =     -85.39529534 Ry
     estimated scf accuracy    <       0.00017538 Ry

     iteration #  4     ecut=    55.00 Ry     beta= 0.70
     Davidson diagonalization with overlap
     ethr =  1.59E-06,  avg # of iterations =  4.6

     total cpu time spent up to now is        1.7 secs

     total energy              =     -85.39541280 Ry
     Harris-Foulkes estimate   =     -85.39550098 Ry
     estimated scf accuracy    <       0.00017171 Ry

     iteration #  5     ecut=    55.00 Ry     beta= 0.70
     Davidson diagonalization with overlap
     ethr =  1.56E-06,  avg # of iterations =  1.0

     total cpu time spent up to now is        1.8 secs

     total energy              =     -85.39542642 Ry
     Harris-Foulkes estimate   =     -85.39543233 Ry
     estimated scf accuracy    <       0.00001095 Ry

     iteration #  6     ecut=    55.00 Ry     beta= 0.70
     Davidson diagonalization with overlap
     ethr =  9.95E-08,  avg # of iterations =  3.0

     total cpu time spent up to now is        1.9 secs

     total energy              =     -85.39543373 Ry
     Harris-Foulkes estimate   =     -85.39543376 Ry
     estimated scf accuracy    <       0.00000052 Ry

     iteration #  7     ecut=    55.00 Ry     beta= 0.70
     Davidson diagonalization with overlap
     ethr =  4.76E-09,  avg # of iterations =  1.4

     total cpu time spent up to now is        2.0 secs

     total energy              =     -85.39543355 Ry
     Harris-Foulkes estimate   =     -85.39543375 Ry
     estimated scf accuracy    <       0.00000035 Ry

     iteration #  8     ecut=    55.00 Ry     beta= 0.70
     Davidson diagonalization with overlap
     ethr =  3.18E-09,  avg # of iterations =  1.6

     total cpu time spent up to now is        2.1 secs

     End of self-consistent calculation

          k = 0.0000 0.0000 0.0000 (   749 PWs)   bands (ev):

     6.0974  11.3295  11.3295  11.3295  12.8602  12.8602  31.3957  35.2595
    35.2595  35.2595

          k =-0.2000 0.2000-0.2000 (   800 PWs)   bands (ev):

     7.3669  11.0862  11.6177  11.6177  12.8598  12.8598  29.2835  32.4874
    36.2137  36.2137

          k =-0.4000 0.4000-0.4000 (   790 PWs)   bands (ev):

     8.6521  11.3661  11.3661  13.3692  13.8350  13.8350  21.4192  31.0205
    34.2415  34.2415

          k = 0.0000 0.4000 0.0000 (   801 PWs)   bands (ev):

     7.8119  10.5224  12.0987  12.1503  12.1503  13.2421  32.4612  32.4612
    32.6940  33.1431

          k =-0.2000 0.6000-0.2000 (   797 PWs)   bands (ev):

     9.3155  10.5273  11.3732  12.2925  13.9908  14.5878  24.4299  30.5974
    30.6087  33.2074

          k = 0.6000-0.2000 0.6000 (   785 PWs)   bands (ev):

     9.5533  10.8173  11.9284  12.0108  13.7764  17.6115  20.0052  27.8644
    32.1426  32.4581

          k = 0.4000 0.0000 0.4000 (   797 PWs)   bands (ev):

     9.0687  10.6937  11.4265  12.2195  12.3798  14.4660  26.6784  28.6337
    33.8053  36.6285

          k = 0.0000 0.8000 0.0000 (   789 PWs)   bands (ev):

     9.0575   9.4156  13.9083  13.9768  13.9768  14.7808  24.8921  27.1663
    27.1663  32.9873

          k = 0.8000 0.0000 0.8000 (   782 PWs)   bands (ev):

     9.3666   9.8484  12.6624  13.4075  14.1103  19.7117  20.6755  23.9305
    27.9466  34.0252

          k = 0.6000-0.2000 1.0000 (   776 PWs)   bands (ev):

    10.1126  10.3631  11.0658  12.9855  13.9628  18.0448  23.1444  24.3868
    27.4046  37.4790

     the Fermi energy is    14.8112 ev

!    total energy              =     -85.39543361 Ry
     Harris-Foulkes estimate   =     -85.39543361 Ry
     estimated scf accuracy    <          1.4E-09 Ry

     The total energy is the sum of the following terms:

     one-electron contribution =      11.06334016 Ry
     hartree contribution      =       7.60548254 Ry
     xc contribution           =     -32.10953940 Ry
     ewald contribution        =     -71.95438542 Ry
     smearing contrib. (-TS)   =      -0.00033148 Ry

     convergence has been achieved in   8 iterations

     Forces acting on atoms (cartesian axes, Ry/au):

     atom    1 type  1   force =     0.00000000    0.00000000    0.00000000

     Total force =     0.000000     Total SCF correction =     0.000000


     Computing stress (Cartesian axis) and pressure

          total   stress  (Ry/bohr**3)                   (kbar)     P=   96.51
   0.00065606   0.00000000  -0.00000000         96.51      0.00     -0.00
   0.00000000   0.00065606  -0.00000000          0.00     96.51     -0.00
  -0.00000000   0.00000000   0.00065606         -0.00      0.00     96.51


     Writing output data file Au.save/

     init_run     :      0.21s CPU      0.21s WALL (       1 calls)
     electrons    :      1.02s CPU      1.06s WALL (       1 calls)
     forces       :      0.03s CPU      0.03s WALL (       1 calls)
     stress       :      0.09s CPU      0.09s WALL (       1 calls)

     Called by init_run:
     wfcinit      :      0.03s CPU      0.03s WALL (       1 calls)
     potinit      :      0.01s CPU      0.01s WALL (       1 calls)
     hinit0       :      0.16s CPU      0.16s WALL (       1 calls)

     Called by electrons:
     c_bands      :      0.73s CPU      0.77s WALL (       9 calls)
     sum_band     :      0.19s CPU      0.19s WALL (       9 calls)
     v_of_rho     :      0.03s CPU      0.04s WALL (       9 calls)
     newd         :      0.07s CPU      0.07s WALL (       9 calls)
     mix_rho      :      0.00s CPU      0.00s WALL (       9 calls)

     Called by c_bands:
     init_us_2    :      0.02s CPU      0.02s WALL (     210 calls)
     cegterg      :      0.70s CPU      0.74s WALL (      90 calls)

     Called by sum_band:
     sum_band:bec :      0.00s CPU      0.00s WALL (      90 calls)
     addusdens    :      0.05s CPU      0.06s WALL (       9 calls)

     Called by *egterg:
     h_psi        :      0.53s CPU      0.56s WALL (     333 calls)
     s_psi        :      0.02s CPU      0.02s WALL (     333 calls)
     g_psi        :      0.00s CPU      0.00s WALL (     233 calls)
     cdiaghg      :      0.08s CPU      0.08s WALL (     313 calls)

     Called by h_psi:
     h_psi:pot    :      0.53s CPU      0.56s WALL (     333 calls)
     h_psi:calbec :      0.03s CPU      0.03s WALL (     333 calls)
     vloc_psi     :      0.49s CPU      0.51s WALL (     333 calls)
     add_vuspsi   :      0.02s CPU      0.02s WALL (     333 calls)

     General routines
     calbec       :      0.04s CPU      0.05s WALL (     473 calls)
     fft          :      0.03s CPU      0.03s WALL (     126 calls)
     ffts         :      0.00s CPU      0.00s WALL (       9 calls)
     fftw         :      0.55s CPU      0.57s WALL (    5716 calls)

     Parallel routines
     fft_scatt_xy :      0.04s CPU      0.04s WALL (    5851 calls)
     fft_scatt_yz :      0.21s CPU      0.22s WALL (    5851 calls)

     PWSCF        :     2.19s CPU         2.27s WALL


   This run was terminated on:  11:48:23  26Mar2024            

=------------------------------------------------------------------------------=
   JOB DONE.
=------------------------------------------------------------------------------=
