
     Program PWSCF v.6.3MaX starts on 26Mar2024 at 11:55:16 

     This program is part of the open-source Quantum ESPRESSO suite
     for quantum simulation of materials; please cite
         "P. Giannozzi et al., J. Phys.:Condens. Matter 21 395502 (2009);
         "P. Giannozzi et al., J. Phys.:Condens. Matter 29 465901 (2017);
          URL http://www.quantum-espresso.org", 
     in publications or presentations arising from this work. More details at
     http://www.quantum-espresso.org/quote

     Parallel version (MPI), running on     5 processors

     MPI processes distributed on     1 nodes
     R & G space division:  proc/nbgrp/npool/nimage =       5
     Waiting for input...
     Reading input from standard input

     Current dimensions of program PWSCF are:
     Max number of different atomic species (ntypx) = 10
     Max number of k-points (npk) =  40000
     Max angular momentum in pseudopotentials (lmaxx) =  3

     Subspace diagonalization in iterative solution of the eigenvalue problem:
     a serial algorithm will be used


     Parallelization info
     --------------------
     sticks:   dense  smooth     PW     G-vecs:    dense   smooth      PW
     Min          99      99     32                 1446     1446     258
     Max         100     100     33                 1449     1449     259
     Sum         499     499    163                 7239     7239    1291



     bravais-lattice index     =            2
     lattice parameter (alat)  =       7.7100  a.u.
     unit-cell volume          =     114.5785 (a.u.)^3
     number of atoms/cell      =            1
     number of atomic types    =            1
     number of electrons       =        11.00
     number of Kohn-Sham states=           10
     kinetic-energy cutoff     =      60.0000  Ry
     charge density cutoff     =     240.0000  Ry
     convergence threshold     =      1.0E-08
     mixing beta               =       0.7000
     number of iterations used =            8  plain     mixing
     Exchange-correlation      = PBE ( 1  4  3  4 0 0)

     celldm(1)=   7.710000  celldm(2)=   0.000000  celldm(3)=   0.000000
     celldm(4)=   0.000000  celldm(5)=   0.000000  celldm(6)=   0.000000

     crystal axes: (cart. coord. in units of alat)
               a(1) = (  -0.500000   0.000000   0.500000 )  
               a(2) = (   0.000000   0.500000   0.500000 )  
               a(3) = (  -0.500000   0.500000   0.000000 )  

     reciprocal axes: (cart. coord. in units 2 pi/alat)
               b(1) = ( -1.000000 -1.000000  1.000000 )  
               b(2) = (  1.000000  1.000000  1.000000 )  
               b(3) = ( -1.000000  1.000000 -1.000000 )  


     PseudoPot. # 1 for Au read from file:
     /home/lorenzo/pseudos/Au/Au.pbe-n-rrkjus_psl.1.0.0.UPF
     MD5 check sum: d7e77ba19504afed2c9b41c931dde4f0
     Pseudo is Ultrasoft + core correction, Zval = 11.0
     Generated using "atomic" code by A. Dal Corso v.6.3
     Using radial grid of 1279 points,  6 beta functions with: 
                l(1) =   0
                l(2) =   0
                l(3) =   1
                l(4) =   1
                l(5) =   2
                l(6) =   2
     Q(r) pseudized with 0 coefficients 


     atomic species   valence    mass     pseudopotential
        Au            11.00   196.96600     Au( 1.00)

     48 Sym. Ops., with inversion, found



   Cartesian axes

     site n.     atom                  positions (alat units)
         1           Au  tau(   1) = (   0.0000000   0.0000000   0.0000000  )

     number of k points=    20  gaussian smearing, width (Ry)=  0.0100
                       cart. coord. in units 2pi/alat
        k(    1) = (   0.0000000   0.0000000   0.0000000), wk =   0.0058309
        k(    2) = (  -0.1428571   0.1428571  -0.1428571), wk =   0.0466472
        k(    3) = (  -0.2857143   0.2857143  -0.2857143), wk =   0.0466472
        k(    4) = (  -0.4285714   0.4285714  -0.4285714), wk =   0.0466472
        k(    5) = (   0.0000000   0.2857143   0.0000000), wk =   0.0349854
        k(    6) = (  -0.1428571   0.4285714  -0.1428571), wk =   0.1399417
        k(    7) = (  -0.2857143   0.5714286  -0.2857143), wk =   0.1399417
        k(    8) = (   0.5714286  -0.2857143   0.5714286), wk =   0.1399417
        k(    9) = (   0.4285714  -0.1428571   0.4285714), wk =   0.1399417
        k(   10) = (   0.2857143  -0.0000000   0.2857143), wk =   0.0699708
        k(   11) = (   0.0000000   0.5714286   0.0000000), wk =   0.0349854
        k(   12) = (  -0.1428571   0.7142857  -0.1428571), wk =   0.1399417
        k(   13) = (   0.7142857  -0.1428571   0.7142857), wk =   0.1399417
        k(   14) = (   0.5714286   0.0000000   0.5714286), wk =   0.0699708
        k(   15) = (   0.0000000   0.8571429   0.0000000), wk =   0.0349854
        k(   16) = (   0.8571429  -0.0000000   0.8571429), wk =   0.0699708
        k(   17) = (  -0.2857143   0.5714286   0.0000000), wk =   0.1399417
        k(   18) = (   0.5714286  -0.2857143   0.8571429), wk =   0.2798834
        k(   19) = (   0.7142857  -0.1428571   1.0000000), wk =   0.1399417
        k(   20) = (   0.5714286   0.0000000   0.8571429), wk =   0.1399417

     Dense  grid:     7239 G-vectors     FFT dimensions: (  27,  27,  27)

     Estimated max dynamical RAM per process >       7.49 MB

     Estimated total dynamical RAM >      37.47 MB

     Initial potential from superposition of free atoms

     starting charge   10.99989, renormalised to   11.00000
     Starting wfcs are    9 randomized atomic wfcs +    1 random wfcs

     total cpu time spent up to now is        1.2 secs

     Self-consistent Calculation

     iteration #  1     ecut=    60.00 Ry     beta= 0.70
     Davidson diagonalization with overlap
     ethr =  1.00E-02,  avg # of iterations =  5.2

     Threshold (ethr) on eigenvalues was too large:
     Diagonalizing with lowered threshold

     Davidson diagonalization with overlap
     ethr =  4.71E-04,  avg # of iterations =  2.0

     total cpu time spent up to now is        1.7 secs

     total energy              =     -85.37413953 Ry
     Harris-Foulkes estimate   =     -85.40723295 Ry
     estimated scf accuracy    <       0.05251611 Ry

     iteration #  2     ecut=    60.00 Ry     beta= 0.70
     Davidson diagonalization with overlap
     ethr =  4.77E-04,  avg # of iterations =  2.5

     total cpu time spent up to now is        2.0 secs

     total energy              =     -85.38837858 Ry
     Harris-Foulkes estimate   =     -85.39556774 Ry
     estimated scf accuracy    <       0.01154784 Ry

     iteration #  3     ecut=    60.00 Ry     beta= 0.70
     Davidson diagonalization with overlap
     ethr =  1.05E-04,  avg # of iterations =  2.2

     total cpu time spent up to now is        2.2 secs

     total energy              =     -85.39107355 Ry
     Harris-Foulkes estimate   =     -85.39112340 Ry
     estimated scf accuracy    <       0.00017040 Ry

     iteration #  4     ecut=    60.00 Ry     beta= 0.70
     Davidson diagonalization with overlap
     ethr =  1.55E-06,  avg # of iterations =  3.6

     total cpu time spent up to now is        2.7 secs

     total energy              =     -85.39122271 Ry
     Harris-Foulkes estimate   =     -85.39128146 Ry
     estimated scf accuracy    <       0.00011257 Ry

     iteration #  5     ecut=    60.00 Ry     beta= 0.70
     Davidson diagonalization with overlap
     ethr =  1.02E-06,  avg # of iterations =  1.1

     total cpu time spent up to now is        2.9 secs

     total energy              =     -85.39123039 Ry
     Harris-Foulkes estimate   =     -85.39123485 Ry
     estimated scf accuracy    <       0.00000729 Ry

     iteration #  6     ecut=    60.00 Ry     beta= 0.70
     Davidson diagonalization with overlap
     ethr =  6.63E-08,  avg # of iterations =  3.0

     total cpu time spent up to now is        3.2 secs

     total energy              =     -85.39123574 Ry
     Harris-Foulkes estimate   =     -85.39123606 Ry
     estimated scf accuracy    <       0.00000108 Ry

     iteration #  7     ecut=    60.00 Ry     beta= 0.70
     Davidson diagonalization with overlap
     ethr =  9.80E-09,  avg # of iterations =  1.1

     total cpu time spent up to now is        3.4 secs

     total energy              =     -85.39123555 Ry
     Harris-Foulkes estimate   =     -85.39123578 Ry
     estimated scf accuracy    <       0.00000036 Ry

     iteration #  8     ecut=    60.00 Ry     beta= 0.70
     Davidson diagonalization with overlap
     ethr =  3.24E-09,  avg # of iterations =  2.5

     total cpu time spent up to now is        3.6 secs

     total energy              =     -85.39123567 Ry
     Harris-Foulkes estimate   =     -85.39123569 Ry
     estimated scf accuracy    <       0.00000005 Ry

     iteration #  9     ecut=    60.00 Ry     beta= 0.70
     Davidson diagonalization with overlap
     ethr =  4.21E-10,  avg # of iterations =  2.0

     total cpu time spent up to now is        3.9 secs

     End of self-consistent calculation

          k = 0.0000 0.0000 0.0000 (   893 PWs)   bands (ev):

     6.0966  11.3201  11.3201  11.3201  12.8500  12.8500  31.3963  35.2594
    35.2594  35.2594

          k =-0.1429 0.1429-0.1429 (   911 PWs)   bands (ev):

     6.7837  11.1348  11.5243  11.5243  12.7894  12.7894  31.2766  32.3987
    35.8779  35.8779

          k =-0.2857 0.2857-0.2857 (   899 PWs)   bands (ev):

     8.2270  11.4235  11.5573  11.5573  13.2000  13.2000  25.8657  32.0350
    35.8450  35.8450

          k =-0.4286 0.4286-0.4286 (   893 PWs)   bands (ev):

     8.6605  11.3204  11.3204  13.9379  13.9379  14.0057  20.4579  30.8581
    33.9455  33.9455

          k = 0.0000 0.2857 0.0000 (   897 PWs)   bands (ev):

     7.0194  10.8665  11.7476  11.7476  12.3805  13.0555  32.3753  33.2555
    33.9183  33.9183

          k =-0.1429 0.4286-0.1429 (   890 PWs)   bands (ev):

     8.3277  10.5919  11.6094  12.0190  12.8953  13.4255  28.1547  32.5751
    32.6785  34.7282

          k =-0.2857 0.5714-0.2857 (   897 PWs)   bands (ev):

     9.1131  11.0933  11.6027  11.8215  14.0350  14.9644  22.3492  31.1189
    31.8090  32.9454

          k = 0.5714-0.2857 0.5714 (   901 PWs)   bands (ev):

     9.1647  10.9908  11.6672  12.4909  13.8985  16.9625  19.3962  29.8179
    32.0205  32.7975

          k = 0.4286-0.1429 0.4286 (   891 PWs)   bands (ev):

     9.0886  11.1334  11.4535  11.8162  12.9698  14.7080  24.3112  29.7540
    32.9194  35.9620

          k = 0.2857-0.0000 0.2857 (   911 PWs)   bands (ev):

     7.8216  10.8264  11.6577  11.8887  12.3707  13.3992  29.4542  30.9978
    34.9546  35.8138

          k = 0.0000 0.5714 0.0000 (   894 PWs)   bands (ev):

     8.9154   9.9627  12.2237  12.9038  12.9038  13.5403  29.9340  29.9340
    30.8302  32.6216

          k =-0.1429 0.7143-0.1429 (   895 PWs)   bands (ev):

     9.3751   9.8760  12.1413  12.9758  14.0972  15.2634  24.6519  28.0220
    28.7298  33.6238

          k = 0.7143-0.1429 0.7143 (   904 PWs)   bands (ev):

     9.6461  10.4506  11.7666  12.6819  13.9843  19.1880  19.9887  25.5491
    29.7405  33.3388

          k = 0.5714 0.0000 0.5714 (   893 PWs)   bands (ev):

    10.0564  10.9535  10.9975  12.3924  13.1916  16.8504  23.6988  24.6381
    32.6943  33.0240

          k = 0.0000 0.8571 0.0000 (   902 PWs)   bands (ev):

     8.9914   9.3253  13.9553  14.1643  14.1643  15.6368  23.6254  26.7194
    26.7194  33.1005

          k = 0.8571-0.0000 0.8571 (   906 PWs)   bands (ev):

     9.1786   9.5367  13.2549  13.6700  14.2403  18.6484  21.2800  24.6821
    27.1399  34.1144

          k =-0.2857 0.5714 0.0000 (   897 PWs)   bands (ev):

     9.5486  10.3007  11.1649  12.8261  12.9006  14.7968  26.1826  27.9485
    31.3150  36.3367

          k = 0.5714-0.2857 0.8571 (   906 PWs)   bands (ev):

     9.9191  10.5841  11.2336  12.4854  13.8114  17.3758  21.4906  27.1039
    29.2011  35.1418

          k = 0.7143-0.1429 1.0000 (   893 PWs)   bands (ev):

     9.5924   9.8347  12.0746  13.3977  14.1593  17.9212  22.8245  25.2091
    26.4250  36.5898

          k = 0.5714 0.0000 0.8571 (   902 PWs)   bands (ev):

     9.9886  10.4629  11.3021  12.7879  14.1518  19.8447  21.9145  23.1109
    27.0270  36.5746

     the Fermi energy is    15.6167 ev

!    total energy              =     -85.39123567 Ry
     Harris-Foulkes estimate   =     -85.39123568 Ry
     estimated scf accuracy    <          3.4E-09 Ry

     The total energy is the sum of the following terms:

     one-electron contribution =      11.07163375 Ry
     hartree contribution      =       7.59838791 Ry
     xc contribution           =     -32.10677495 Ry
     ewald contribution        =     -71.95438535 Ry
     smearing contrib. (-TS)   =      -0.00009702 Ry

     convergence has been achieved in   9 iterations

     Forces acting on atoms (cartesian axes, Ry/au):

     atom    1 type  1   force =     0.00000000    0.00000000    0.00000000

     Total force =     0.000000     Total SCF correction =     0.000000


     Computing stress (Cartesian axis) and pressure

          total   stress  (Ry/bohr**3)                   (kbar)     P=  101.54
   0.00069026   0.00000000   0.00000000        101.54      0.00      0.00
   0.00000000   0.00069026  -0.00000000          0.00    101.54     -0.00
   0.00000000  -0.00000000   0.00069026          0.00     -0.00    101.54


     Writing output data file Au.save/

     init_run     :      0.28s CPU      0.30s WALL (       1 calls)
     electrons    :      2.63s CPU      2.75s WALL (       1 calls)
     forces       :      0.04s CPU      0.04s WALL (       1 calls)
     stress       :      0.14s CPU      0.14s WALL (       1 calls)

     Called by init_run:
     wfcinit      :      0.08s CPU      0.08s WALL (       1 calls)
     potinit      :      0.01s CPU      0.01s WALL (       1 calls)
     hinit0       :      0.17s CPU      0.18s WALL (       1 calls)

     Called by electrons:
     c_bands      :      2.08s CPU      2.17s WALL (      10 calls)
     sum_band     :      0.43s CPU      0.45s WALL (      10 calls)
     v_of_rho     :      0.04s CPU      0.05s WALL (      10 calls)
     newd         :      0.09s CPU      0.09s WALL (      10 calls)
     mix_rho      :      0.01s CPU      0.01s WALL (      10 calls)

     Called by c_bands:
     init_us_2    :      0.06s CPU      0.06s WALL (     460 calls)
     cegterg      :      1.99s CPU      2.07s WALL (     200 calls)

     Called by sum_band:
     sum_band:bec :      0.00s CPU      0.00s WALL (     200 calls)
     addusdens    :      0.07s CPU      0.08s WALL (      10 calls)

     Called by *egterg:
     h_psi        :      1.56s CPU      1.63s WALL (     729 calls)
     s_psi        :      0.04s CPU      0.04s WALL (     729 calls)
     g_psi        :      0.00s CPU      0.00s WALL (     509 calls)
     cdiaghg      :      0.19s CPU      0.19s WALL (     689 calls)

     Called by h_psi:
     h_psi:pot    :      1.55s CPU      1.63s WALL (     729 calls)
     h_psi:calbec :      0.08s CPU      0.09s WALL (     729 calls)
     vloc_psi     :      1.42s CPU      1.49s WALL (     729 calls)
     add_vuspsi   :      0.04s CPU      0.05s WALL (     729 calls)

     General routines
     calbec       :      0.14s CPU      0.14s WALL (    1029 calls)
     fft          :      0.04s CPU      0.04s WALL (     137 calls)
     ffts         :      0.00s CPU      0.00s WALL (      10 calls)
     fftw         :      1.61s CPU      1.68s WALL (   12718 calls)

     Parallel routines
     fft_scatt_xy :      0.12s CPU      0.13s WALL (   12865 calls)
     fft_scatt_yz :      0.58s CPU      0.60s WALL (   12865 calls)

     PWSCF        :     4.00s CPU         4.20s WALL


   This run was terminated on:  11:55:20  26Mar2024            

=------------------------------------------------------------------------------=
   JOB DONE.
=------------------------------------------------------------------------------=
