
     Program PWSCF v.6.3MaX starts on 26Mar2024 at 11:19:13 

     This program is part of the open-source Quantum ESPRESSO suite
     for quantum simulation of materials; please cite
         "P. Giannozzi et al., J. Phys.:Condens. Matter 21 395502 (2009);
         "P. Giannozzi et al., J. Phys.:Condens. Matter 29 465901 (2017);
          URL http://www.quantum-espresso.org", 
     in publications or presentations arising from this work. More details at
     http://www.quantum-espresso.org/quote

     Parallel version (MPI), running on     5 processors

     MPI processes distributed on     1 nodes
     R & G space division:  proc/nbgrp/npool/nimage =       5
     Waiting for input...
     Reading input from standard input

     Current dimensions of program PWSCF are:
     Max number of different atomic species (ntypx) = 10
     Max number of k-points (npk) =  40000
     Max angular momentum in pseudopotentials (lmaxx) =  3

     Subspace diagonalization in iterative solution of the eigenvalue problem:
     a serial algorithm will be used


     Parallelization info
     --------------------
     sticks:   dense  smooth     PW     G-vecs:    dense   smooth      PW
     Min          32      32     12                  280      280      66
     Max          33      33     13                  283      283      67
     Sum         163     163     61                 1411     1411     331



     bravais-lattice index     =            2
     lattice parameter (alat)  =       7.7100  a.u.
     unit-cell volume          =     114.5785 (a.u.)^3
     number of atoms/cell      =            1
     number of atomic types    =            1
     number of electrons       =        11.00
     number of Kohn-Sham states=           10
     kinetic-energy cutoff     =      20.0000  Ry
     charge density cutoff     =      80.0000  Ry
     convergence threshold     =      1.0E-08
     mixing beta               =       0.7000
     number of iterations used =            8  plain     mixing
     Exchange-correlation      = PBE ( 1  4  3  4 0 0)

     celldm(1)=   7.710000  celldm(2)=   0.000000  celldm(3)=   0.000000
     celldm(4)=   0.000000  celldm(5)=   0.000000  celldm(6)=   0.000000

     crystal axes: (cart. coord. in units of alat)
               a(1) = (  -0.500000   0.000000   0.500000 )  
               a(2) = (   0.000000   0.500000   0.500000 )  
               a(3) = (  -0.500000   0.500000   0.000000 )  

     reciprocal axes: (cart. coord. in units 2 pi/alat)
               b(1) = ( -1.000000 -1.000000  1.000000 )  
               b(2) = (  1.000000  1.000000  1.000000 )  
               b(3) = ( -1.000000  1.000000 -1.000000 )  


     PseudoPot. # 1 for Au read from file:
     /home/lorenzo/pseudos/Au/Au.pbe-n-rrkjus_psl.1.0.0.UPF
     MD5 check sum: d7e77ba19504afed2c9b41c931dde4f0
     Pseudo is Ultrasoft + core correction, Zval = 11.0
     Generated using "atomic" code by A. Dal Corso v.6.3
     Using radial grid of 1279 points,  6 beta functions with: 
                l(1) =   0
                l(2) =   0
                l(3) =   1
                l(4) =   1
                l(5) =   2
                l(6) =   2
     Q(r) pseudized with 0 coefficients 


     atomic species   valence    mass     pseudopotential
        Au            11.00   196.96600     Au( 1.00)

     48 Sym. Ops., with inversion, found



   Cartesian axes

     site n.     atom                  positions (alat units)
         1           Au  tau(   1) = (   0.0000000   0.0000000   0.0000000  )

     number of k points=    16  gaussian smearing, width (Ry)=  0.0100
                       cart. coord. in units 2pi/alat
        k(    1) = (   0.0000000   0.0000000   0.0000000), wk =   0.0092593
        k(    2) = (  -0.1666667   0.1666667  -0.1666667), wk =   0.0740741
        k(    3) = (  -0.3333333   0.3333333  -0.3333333), wk =   0.0740741
        k(    4) = (   0.5000000  -0.5000000   0.5000000), wk =   0.0370370
        k(    5) = (   0.0000000   0.3333333   0.0000000), wk =   0.0555556
        k(    6) = (  -0.1666667   0.5000000  -0.1666667), wk =   0.2222222
        k(    7) = (   0.6666667  -0.3333333   0.6666667), wk =   0.2222222
        k(    8) = (   0.5000000  -0.1666667   0.5000000), wk =   0.2222222
        k(    9) = (   0.3333333   0.0000000   0.3333333), wk =   0.1111111
        k(   10) = (   0.0000000   0.6666667   0.0000000), wk =   0.0555556
        k(   11) = (   0.8333333  -0.1666667   0.8333333), wk =   0.2222222
        k(   12) = (   0.6666667  -0.0000000   0.6666667), wk =   0.1111111
        k(   13) = (   0.0000000  -1.0000000   0.0000000), wk =   0.0277778
        k(   14) = (   0.6666667  -0.3333333   1.0000000), wk =   0.2222222
        k(   15) = (   0.5000000  -0.1666667   0.8333333), wk =   0.2222222
        k(   16) = (  -0.3333333  -1.0000000   0.0000000), wk =   0.1111111

     Dense  grid:     1411 G-vectors     FFT dimensions: (  15,  15,  15)

     Estimated max dynamical RAM per process >       2.01 MB

     Estimated total dynamical RAM >      10.04 MB

     Initial potential from superposition of free atoms

     starting charge   10.99989, renormalised to   11.00000
     Starting wfcs are    9 randomized atomic wfcs +    1 random wfcs

     total cpu time spent up to now is        0.9 secs

     Self-consistent Calculation

     iteration #  1     ecut=    20.00 Ry     beta= 0.70
     Davidson diagonalization with overlap
     ethr =  1.00E-02,  avg # of iterations =  4.9

     Threshold (ethr) on eigenvalues was too large:
     Diagonalizing with lowered threshold

     Davidson diagonalization with overlap
     ethr =  4.68E-04,  avg # of iterations =  1.4

     total cpu time spent up to now is        1.1 secs

     total energy              =     -85.34426998 Ry
     Harris-Foulkes estimate   =     -85.37796453 Ry
     estimated scf accuracy    <       0.05289106 Ry

     iteration #  2     ecut=    20.00 Ry     beta= 0.70
     Davidson diagonalization with overlap
     ethr =  4.81E-04,  avg # of iterations =  2.0

     total cpu time spent up to now is        1.1 secs

     total energy              =     -85.35766898 Ry
     Harris-Foulkes estimate   =     -85.36200667 Ry
     estimated scf accuracy    <       0.00684547 Ry

     iteration #  3     ecut=    20.00 Ry     beta= 0.70
     Davidson diagonalization with overlap
     ethr =  6.22E-05,  avg # of iterations =  2.2

     total cpu time spent up to now is        1.2 secs

     total energy              =     -85.35923913 Ry
     Harris-Foulkes estimate   =     -85.35924287 Ry
     estimated scf accuracy    <       0.00006017 Ry

     iteration #  4     ecut=    20.00 Ry     beta= 0.70
     Davidson diagonalization with overlap
     ethr =  5.47E-07,  avg # of iterations =  2.9

     total cpu time spent up to now is        1.2 secs

     total energy              =     -85.35927657 Ry
     Harris-Foulkes estimate   =     -85.35928117 Ry
     estimated scf accuracy    <       0.00000831 Ry

     iteration #  5     ecut=    20.00 Ry     beta= 0.70
     Davidson diagonalization with overlap
     ethr =  7.55E-08,  avg # of iterations =  1.1

     total cpu time spent up to now is        1.3 secs

     total energy              =     -85.35927736 Ry
     Harris-Foulkes estimate   =     -85.35927762 Ry
     estimated scf accuracy    <       0.00000043 Ry

     iteration #  6     ecut=    20.00 Ry     beta= 0.70
     Davidson diagonalization with overlap
     ethr =  3.91E-09,  avg # of iterations =  2.6

     total cpu time spent up to now is        1.3 secs

     total energy              =     -85.35927759 Ry
     Harris-Foulkes estimate   =     -85.35927762 Ry
     estimated scf accuracy    <       0.00000006 Ry

     iteration #  7     ecut=    20.00 Ry     beta= 0.70
     Davidson diagonalization with overlap
     ethr =  5.47E-10,  avg # of iterations =  1.1

     total cpu time spent up to now is        1.4 secs

     total energy              =     -85.35927759 Ry
     Harris-Foulkes estimate   =     -85.35927760 Ry
     estimated scf accuracy    <       0.00000001 Ry

     iteration #  8     ecut=    20.00 Ry     beta= 0.70
     Davidson diagonalization with overlap
     ethr =  1.14E-10,  avg # of iterations =  2.0

     total cpu time spent up to now is        1.5 secs

     End of self-consistent calculation

          k = 0.0000 0.0000 0.0000 (   169 PWs)   bands (ev):

     6.1286  11.2472  11.2472  11.2472  12.7830  12.7830  31.4544  35.2929
    35.2929  35.2929

          k =-0.1667 0.1667-0.1667 (   172 PWs)   bands (ev):

     7.0439  11.0360  11.4964  11.4964  12.7362  12.7362  30.7952  32.5667
    36.2517  36.2517

          k =-0.3333 0.3333-0.3333 (   171 PWs)   bands (ev):

     8.5102  11.4131  11.4131  12.0236  13.4418  13.4418  24.1302  31.7181
    35.3606  35.3606

          k = 0.5000-0.5000 0.5000 (   168 PWs)   bands (ev):

     8.6489  11.2255  11.2255  14.0401  14.0401  15.0708  19.2269  30.7824
    33.6339  33.6339

          k = 0.0000 0.3333 0.0000 (   169 PWs)   bands (ev):

     7.3617  10.6611  11.8293  11.8293  12.2107  13.0597  33.0209  33.2547
    33.6435  33.6435

          k =-0.1667 0.5000-0.1667 (   169 PWs)   bands (ev):

     8.8651  10.4754  11.4013  12.0756  13.4118  13.6479  26.8456  31.9457
    32.6564  34.2610

          k = 0.6667-0.3333 0.6667 (   174 PWs)   bands (ev):

     9.2542  10.8658  11.8077  11.9363  14.0686  16.7380  20.2975  30.1954
    31.7014  32.6633

          k = 0.5000-0.1667 0.5000 (   173 PWs)   bands (ev):

     9.3470  10.9887  11.7133  11.7906  13.2676  15.7252  22.5102  29.1107
    32.6557  34.5839

          k = 0.3333 0.0000 0.3333 (   172 PWs)   bands (ev):

     8.3668  10.6899  11.5311  12.0044  12.2345  13.7346  28.4760  30.6457
    34.9610  35.6290

          k = 0.0000 0.6667 0.0000 (   174 PWs)   bands (ev):

     9.1283   9.6476  12.9883  13.3252  13.3252  13.6656  28.4418  28.7768
    28.7768  33.2046

          k = 0.8333-0.1667 0.8333 (   178 PWs)   bands (ev):

     9.3192   9.7413  12.5358  13.2060  14.1746  17.2134  22.6917  26.1343
    28.0763  34.6447

          k = 0.6667-0.0000 0.6667 (   172 PWs)   bands (ev):

     9.7960  10.6179  11.4735  12.6960  13.5768  18.5514  22.7056  23.4499
    30.7217  34.0091

          k = 0.0000-1.0000 0.0000 (   190 PWs)   bands (ev):

     8.9075   9.1971  13.9377  14.3208  14.3208  17.0546  21.9296  26.2485
    26.2485  33.9235

          k = 0.6667-0.3333 1.0000 (   178 PWs)   bands (ev):

     9.9942  10.2035  10.9592  12.9618  13.2957  15.9573  24.7501  26.6421
    30.1100  36.7348

          k = 0.5000-0.1667 0.8333 (   172 PWs)   bands (ev):

    10.1944  10.3020  11.1980  12.5523  13.9572  19.4709  20.2892  26.0863
    28.2639  36.1419

          k =-0.3333-1.0000 0.0000 (   172 PWs)   bands (ev):

     9.6457   9.9180  11.9967  13.0852  14.3798  20.3391  21.0836  24.4647
    26.0032  38.2107

     the Fermi energy is    15.9888 ev

!    total energy              =     -85.35927759 Ry
     Harris-Foulkes estimate   =     -85.35927759 Ry
     estimated scf accuracy    <          7.2E-11 Ry

     The total energy is the sum of the following terms:

     one-electron contribution =      11.12884952 Ry
     hartree contribution      =       7.55021693 Ry
     xc contribution           =     -32.08334968 Ry
     ewald contribution        =     -71.95438536 Ry
     smearing contrib. (-TS)   =      -0.00060900 Ry

     convergence has been achieved in   8 iterations

     Forces acting on atoms (cartesian axes, Ry/au):

     atom    1 type  1   force =     0.00000000    0.00000000    0.00000000

     Total force =     0.000000     Total SCF correction =     0.000000


     Computing stress (Cartesian axis) and pressure

          total   stress  (Ry/bohr**3)                   (kbar)     P=   -0.33
  -0.00000223  -0.00000000  -0.00000000         -0.33     -0.00     -0.00
  -0.00000000  -0.00000223   0.00000000         -0.00     -0.33      0.00
  -0.00000000   0.00000000  -0.00000223         -0.00      0.00     -0.33


     Writing output data file Au.save/

     init_run     :      0.11s CPU      0.11s WALL (       1 calls)
     electrons    :      0.46s CPU      0.55s WALL (       1 calls)
     forces       :      0.01s CPU      0.01s WALL (       1 calls)
     stress       :      0.05s CPU      0.05s WALL (       1 calls)

     Called by init_run:
     wfcinit      :      0.01s CPU      0.01s WALL (       1 calls)
     potinit      :      0.00s CPU      0.00s WALL (       1 calls)
     hinit0       :      0.09s CPU      0.09s WALL (       1 calls)

     Called by electrons:
     c_bands      :      0.37s CPU      0.44s WALL (       9 calls)
     sum_band     :      0.07s CPU      0.08s WALL (       9 calls)
     v_of_rho     :      0.01s CPU      0.01s WALL (       9 calls)
     newd         :      0.01s CPU      0.01s WALL (       9 calls)
     mix_rho      :      0.00s CPU      0.00s WALL (       9 calls)

     Called by c_bands:
     init_us_2    :      0.01s CPU      0.01s WALL (     336 calls)
     cegterg      :      0.36s CPU      0.42s WALL (     144 calls)

     Called by sum_band:
     sum_band:bec :      0.00s CPU      0.00s WALL (     144 calls)
     addusdens    :      0.01s CPU      0.01s WALL (       9 calls)

     Called by *egterg:
     h_psi        :      0.22s CPU      0.26s WALL (     483 calls)
     s_psi        :      0.01s CPU      0.01s WALL (     483 calls)
     g_psi        :      0.00s CPU      0.00s WALL (     323 calls)
     cdiaghg      :      0.08s CPU      0.10s WALL (     451 calls)

     Called by h_psi:
     h_psi:pot    :      0.22s CPU      0.26s WALL (     483 calls)
     h_psi:calbec :      0.01s CPU      0.02s WALL (     483 calls)
     vloc_psi     :      0.20s CPU      0.23s WALL (     483 calls)
     add_vuspsi   :      0.01s CPU      0.01s WALL (     483 calls)

     General routines
     calbec       :      0.03s CPU      0.03s WALL (     707 calls)
     fft          :      0.00s CPU      0.00s WALL (     126 calls)
     ffts         :      0.00s CPU      0.00s WALL (       9 calls)
     fftw         :      0.21s CPU      0.25s WALL (    8758 calls)

     Parallel routines
     fft_scatt_xy :      0.02s CPU      0.03s WALL (    8893 calls)
     fft_scatt_yz :      0.10s CPU      0.12s WALL (    8893 calls)

     PWSCF        :     1.50s CPU         1.65s WALL


   This run was terminated on:  11:19:15  26Mar2024            

=------------------------------------------------------------------------------=
   JOB DONE.
=------------------------------------------------------------------------------=
