
     Program PWSCF v.6.3MaX starts on 26Mar2024 at 11:13:11 

     This program is part of the open-source Quantum ESPRESSO suite
     for quantum simulation of materials; please cite
         "P. Giannozzi et al., J. Phys.:Condens. Matter 21 395502 (2009);
         "P. Giannozzi et al., J. Phys.:Condens. Matter 29 465901 (2017);
          URL http://www.quantum-espresso.org", 
     in publications or presentations arising from this work. More details at
     http://www.quantum-espresso.org/quote

     Parallel version (MPI), running on     5 processors

     MPI processes distributed on     1 nodes
     R & G space division:  proc/nbgrp/npool/nimage =       5
     Waiting for input...
     Reading input from standard input

     Current dimensions of program PWSCF are:
     Max number of different atomic species (ntypx) = 10
     Max number of k-points (npk) =  40000
     Max angular momentum in pseudopotentials (lmaxx) =  3
               file Au.pbesol-n-kjpaw_psl.1.0.0.UPF: wavefunction(s)  6S 5D renormalized

     Subspace diagonalization in iterative solution of the eigenvalue problem:
     a serial algorithm will be used


     Parallelization info
     --------------------
     sticks:   dense  smooth     PW     G-vecs:    dense   smooth      PW
     Min          17      17      7                  106      106      27
     Max          17      17      8                  107      107      28
     Sum          85      85     37                  531      531     137



     bravais-lattice index     =            2
     lattice parameter (alat)  =       7.7100  a.u.
     unit-cell volume          =     114.5785 (a.u.)^3
     number of atoms/cell      =            1
     number of atomic types    =            1
     number of electrons       =        11.00
     number of Kohn-Sham states=           10
     kinetic-energy cutoff     =      10.0000  Ry
     charge density cutoff     =      40.0000  Ry
     convergence threshold     =      1.0E-08
     mixing beta               =       0.7000
     number of iterations used =            8  plain     mixing
     Exchange-correlation      = SLA PW PSX PSC ( 1  4 10  8 0 0)

     celldm(1)=   7.710000  celldm(2)=   0.000000  celldm(3)=   0.000000
     celldm(4)=   0.000000  celldm(5)=   0.000000  celldm(6)=   0.000000

     crystal axes: (cart. coord. in units of alat)
               a(1) = (  -0.500000   0.000000   0.500000 )  
               a(2) = (   0.000000   0.500000   0.500000 )  
               a(3) = (  -0.500000   0.500000   0.000000 )  

     reciprocal axes: (cart. coord. in units 2 pi/alat)
               b(1) = ( -1.000000 -1.000000  1.000000 )  
               b(2) = (  1.000000  1.000000  1.000000 )  
               b(3) = ( -1.000000  1.000000 -1.000000 )  


     PseudoPot. # 1 for Au read from file:
     /home/lorenzo/pseudos/Au/Au.pbesol-n-kjpaw_psl.1.0.0.UPF
     MD5 check sum: abc371be705c47a6b6a6b4088b452d3e
     Pseudo is Projector augmented-wave + core cor, Zval = 11.0
     Generated using "atomic" code by A. Dal Corso v.6.3
     Shape of augmentation charge: PSQ
     Using radial grid of 1279 points,  6 beta functions with: 
                l(1) =   0
                l(2) =   0
                l(3) =   1
                l(4) =   1
                l(5) =   2
                l(6) =   2
     Q(r) pseudized with 0 coefficients 


     atomic species   valence    mass     pseudopotential
        Au            11.00   196.96600     Au( 1.00)

     48 Sym. Ops., with inversion, found



   Cartesian axes

     site n.     atom                  positions (alat units)
         1           Au  tau(   1) = (   0.0000000   0.0000000   0.0000000  )

     number of k points=    47  gaussian smearing, width (Ry)=  0.0100
                       cart. coord. in units 2pi/alat
        k(    1) = (   0.0000000   0.0000000   0.0000000), wk =   0.0020000
        k(    2) = (  -0.1000000   0.1000000  -0.1000000), wk =   0.0160000
        k(    3) = (  -0.2000000   0.2000000  -0.2000000), wk =   0.0160000
        k(    4) = (  -0.3000000   0.3000000  -0.3000000), wk =   0.0160000
        k(    5) = (  -0.4000000   0.4000000  -0.4000000), wk =   0.0160000
        k(    6) = (   0.5000000  -0.5000000   0.5000000), wk =   0.0080000
        k(    7) = (   0.0000000   0.2000000   0.0000000), wk =   0.0120000
        k(    8) = (  -0.1000000   0.3000000  -0.1000000), wk =   0.0480000
        k(    9) = (  -0.2000000   0.4000000  -0.2000000), wk =   0.0480000
        k(   10) = (  -0.3000000   0.5000000  -0.3000000), wk =   0.0480000
        k(   11) = (   0.6000000  -0.4000000   0.6000000), wk =   0.0480000
        k(   12) = (   0.5000000  -0.3000000   0.5000000), wk =   0.0480000
        k(   13) = (   0.4000000  -0.2000000   0.4000000), wk =   0.0480000
        k(   14) = (   0.3000000  -0.1000000   0.3000000), wk =   0.0480000
        k(   15) = (   0.2000000   0.0000000   0.2000000), wk =   0.0240000
        k(   16) = (   0.0000000   0.4000000   0.0000000), wk =   0.0120000
        k(   17) = (  -0.1000000   0.5000000  -0.1000000), wk =   0.0480000
        k(   18) = (  -0.2000000   0.6000000  -0.2000000), wk =   0.0480000
        k(   19) = (   0.7000000  -0.3000000   0.7000000), wk =   0.0480000
        k(   20) = (   0.6000000  -0.2000000   0.6000000), wk =   0.0480000
        k(   21) = (   0.5000000  -0.1000000   0.5000000), wk =   0.0480000
        k(   22) = (   0.4000000   0.0000000   0.4000000), wk =   0.0240000
        k(   23) = (   0.0000000   0.6000000   0.0000000), wk =   0.0120000
        k(   24) = (  -0.1000000   0.7000000  -0.1000000), wk =   0.0480000
        k(   25) = (   0.8000000  -0.2000000   0.8000000), wk =   0.0480000
        k(   26) = (   0.7000000  -0.1000000   0.7000000), wk =   0.0480000
        k(   27) = (   0.6000000  -0.0000000   0.6000000), wk =   0.0240000
        k(   28) = (   0.0000000   0.8000000   0.0000000), wk =   0.0120000
        k(   29) = (   0.9000000  -0.1000000   0.9000000), wk =   0.0480000
        k(   30) = (   0.8000000   0.0000000   0.8000000), wk =   0.0240000
        k(   31) = (   0.0000000  -1.0000000   0.0000000), wk =   0.0060000
        k(   32) = (  -0.2000000   0.4000000   0.0000000), wk =   0.0480000
        k(   33) = (  -0.3000000   0.5000000  -0.1000000), wk =   0.0960000
        k(   34) = (   0.6000000  -0.4000000   0.8000000), wk =   0.0960000
        k(   35) = (   0.5000000  -0.3000000   0.7000000), wk =   0.0480000
        k(   36) = (  -0.2000000   0.6000000   0.0000000), wk =   0.0480000
        k(   37) = (   0.7000000  -0.3000000   0.9000000), wk =   0.0960000
        k(   38) = (   0.6000000  -0.2000000   0.8000000), wk =   0.0960000
        k(   39) = (   0.5000000  -0.1000000   0.7000000), wk =   0.0960000
        k(   40) = (   0.4000000   0.0000000   0.6000000), wk =   0.0480000
        k(   41) = (   0.8000000  -0.2000000   1.0000000), wk =   0.0480000
        k(   42) = (   0.7000000  -0.1000000   0.9000000), wk =   0.0960000
        k(   43) = (   0.6000000   0.0000000   0.8000000), wk =   0.0480000
        k(   44) = (  -0.2000000  -1.0000000   0.0000000), wk =   0.0240000
        k(   45) = (   0.6000000  -0.2000000   1.0000000), wk =   0.0480000
        k(   46) = (   0.5000000  -0.1000000   0.9000000), wk =   0.0480000
        k(   47) = (  -0.4000000  -1.0000000   0.0000000), wk =   0.0240000

     Dense  grid:      531 G-vectors     FFT dimensions: (  12,  12,  12)

     Estimated max dynamical RAM per process >       1.12 MB

     Estimated total dynamical RAM >       5.59 MB

     Check: negative/imaginary core charge=   -0.000056    0.000000

     Initial potential from superposition of free atoms

     starting charge   10.99990, renormalised to   11.00000

     negative rho (up, down):  4.226E-05 0.000E+00
     Starting wfcs are    9 randomized atomic wfcs +    1 random wfcs
     Checking if some PAW data can be deallocated... 

     total cpu time spent up to now is        1.8 secs

     Self-consistent Calculation

     iteration #  1     ecut=    10.00 Ry     beta= 0.70
     Davidson diagonalization with overlap
     ethr =  1.00E-02,  avg # of iterations =  4.3

     total cpu time spent up to now is        2.3 secs

     total energy              =    -762.96366676 Ry
     Harris-Foulkes estimate   =    -763.62380626 Ry
     estimated scf accuracy    <       0.82898284 Ry

     iteration #  2     ecut=    10.00 Ry     beta= 0.70
     Davidson diagonalization with overlap
     ethr =  7.54E-03,  avg # of iterations =  2.0

     total cpu time spent up to now is        2.6 secs

     total energy              =    -763.19684393 Ry
     Harris-Foulkes estimate   =    -763.21777340 Ry
     estimated scf accuracy    <       0.04494999 Ry

     iteration #  3     ecut=    10.00 Ry     beta= 0.70
     Davidson diagonalization with overlap
     ethr =  4.09E-04,  avg # of iterations =  2.2

     total cpu time spent up to now is        2.8 secs

     total energy              =    -763.20258842 Ry
     Harris-Foulkes estimate   =    -763.20634899 Ry
     estimated scf accuracy    <       0.00199928 Ry

     iteration #  4     ecut=    10.00 Ry     beta= 0.70
     Davidson diagonalization with overlap
     ethr =  1.82E-05,  avg # of iterations =  2.8

     total cpu time spent up to now is        3.1 secs

     total energy              =    -763.19817476 Ry
     Harris-Foulkes estimate   =    -763.21442834 Ry
     estimated scf accuracy    <       0.00020858 Ry

     iteration #  5     ecut=    10.00 Ry     beta= 0.70
     Davidson diagonalization with overlap
     ethr =  1.90E-06,  avg # of iterations =  3.2

     total cpu time spent up to now is        3.4 secs

     total energy              =    -763.20543782 Ry
     Harris-Foulkes estimate   =    -763.20561371 Ry
     estimated scf accuracy    <       0.00000481 Ry

     iteration #  6     ecut=    10.00 Ry     beta= 0.70
     Davidson diagonalization with overlap
     ethr =  4.37E-08,  avg # of iterations =  3.0

     total cpu time spent up to now is        3.7 secs

     total energy              =    -763.20550004 Ry
     Harris-Foulkes estimate   =    -763.20550116 Ry
     estimated scf accuracy    <       0.00000006 Ry

     iteration #  7     ecut=    10.00 Ry     beta= 0.70
     Davidson diagonalization with overlap
     ethr =  5.07E-10,  avg # of iterations =  3.0

     total cpu time spent up to now is        4.0 secs

     End of self-consistent calculation

          k = 0.0000 0.0000 0.0000 (    59 PWs)   bands (ev):

     5.9101   9.5852   9.5852   9.5852  12.0645  12.0645  32.1258  35.3740
    35.3740  35.3740

          k =-0.1000 0.1000-0.1000 (    59 PWs)   bands (ev):

     6.2447   9.5679   9.7511   9.7511  12.0787  12.0787  32.6206  33.4421
    35.7655  35.7655

          k =-0.2000 0.2000-0.2000 (    62 PWs)   bands (ev):

     7.0649   9.7432   9.9851   9.9851  11.5039  11.5039  29.7727  33.6259
    36.4480  36.4480

          k =-0.3000 0.3000-0.3000 (    61 PWs)   bands (ev):

     7.7762   9.9479   9.9479  11.0466  12.3568  12.3568  25.8346  32.9802
    35.7770  35.7770

          k =-0.4000 0.4000-0.4000 (    61 PWs)   bands (ev):

     7.7998   9.9041   9.9041  13.1571  13.3496  13.3496  21.5243  31.7870
    33.9857  33.9857

          k = 0.5000-0.5000 0.5000 (    70 PWs)   bands (ev):

     7.6711   9.4964   9.4964  11.8031  11.8031  15.0388  18.7969  31.3885
    32.9516  32.9516

          k = 0.0000 0.2000 0.0000 (    60 PWs)   bands (ev):

     6.3615   9.3877   9.9011   9.9011  11.3013  12.2222  32.8512  34.2298
    34.9670  34.9670

          k =-0.1000 0.3000-0.1000 (    60 PWs)   bands (ev):

     7.0607   9.2929  10.2262  10.2984  11.2585  12.4619  31.2826  33.8417
    34.5870  36.2509

          k =-0.2000 0.4000-0.2000 (    61 PWs)   bands (ev):

     7.9002   9.7571  10.1946  10.2876  12.1610  12.5452  27.3180  33.7471
    33.9367  36.2121

          k =-0.3000 0.5000-0.3000 (    63 PWs)   bands (ev):

     7.8929   9.8228  10.1639  10.9905  13.2120  13.8708  22.7368  32.4351
    32.8664  34.2940

          k = 0.6000-0.4000 0.6000 (    61 PWs)   bands (ev):

     7.9767   9.8230  10.2093  12.3163  13.7997  16.1373  19.2954  31.6650
    32.4234  32.6369

          k = 0.5000-0.3000 0.5000 (    63 PWs)   bands (ev):

     8.0089   9.8063   9.9363  11.9982  13.0852  15.1634  20.4120  31.4571
    32.2983  33.7729

          k = 0.4000-0.2000 0.4000 (    65 PWs)   bands (ev):

     7.8733   9.7536  10.1485  10.6780  11.8975  13.2710  24.1363  31.9958
    33.1552  36.1371

          k = 0.3000-0.1000 0.3000 (    61 PWs)   bands (ev):

     7.6418   9.6278  10.2438  10.3279  11.1903  12.8132  28.5307  32.9687
    34.8932  37.1853

          k = 0.2000 0.0000 0.2000 (    61 PWs)   bands (ev):

     6.7677   9.4656   9.9683  10.0900  11.0525  12.0616  31.8520  33.2074
    34.7293  37.2077

          k = 0.0000 0.4000 0.0000 (    60 PWs)   bands (ev):

     7.5334   8.9118  10.8363  10.8363  10.8810  12.6700  33.0931  33.0931
    33.1020  34.8500

          k =-0.1000 0.5000-0.1000 (    59 PWs)   bands (ev):

     8.2527   8.9256  10.5595  11.3480  12.4211  13.1793  28.9477  31.8776
    33.7049  34.7733

          k =-0.2000 0.6000-0.2000 (    66 PWs)   bands (ev):

     8.2951   9.3541  10.1309  10.8248  12.2892  13.8071  24.2592  30.6810
    31.6263  34.5440

          k = 0.7000-0.3000 0.7000 (    61 PWs)   bands (ev):

     8.4117   9.8357  10.7022  11.0060  13.6590  16.8183  20.4786  29.9092
    30.7962  33.9675

          k = 0.6000-0.2000 0.6000 (    60 PWs)   bands (ev):

     8.5500   9.9780  10.8058  11.2280  13.1125  17.4946  20.0925  28.6676
    32.3546  33.7411

          k = 0.5000-0.1000 0.5000 (    61 PWs)   bands (ev):

     8.6507   9.9626  10.5588  10.9047  11.9778  15.6690  23.3642  28.5212
    33.9127  34.7880

          k = 0.4000 0.0000 0.4000 (    61 PWs)   bands (ev):

     8.5148   9.7370  10.3414  10.8979  11.0542  13.8365  26.5399  30.2410
    34.6394  37.4975

          k = 0.0000 0.6000 0.0000 (    60 PWs)   bands (ev):

     8.3570   8.4033  11.7239  12.3337  12.3337  13.3315  29.6032  30.1160
    30.1160  34.4475

          k =-0.1000 0.7000-0.1000 (    59 PWs)   bands (ev):

     8.3323   8.8317  11.8727  13.0346  13.1236  14.2144  25.2887  28.7110
    29.3266  35.6839

          k = 0.8000-0.2000 0.8000 (    59 PWs)   bands (ev):

     8.3659   9.3125  11.4094  12.8189  13.3688  17.0135  21.7463  27.7137
    28.7068  36.1145

          k = 0.7000-0.1000 0.7000 (    64 PWs)   bands (ev):

     8.4696   9.5610  10.6962  11.4150  12.6038  18.6536  20.7402  25.3172
    29.9967  35.5832

          k = 0.6000-0.0000 0.6000 (    63 PWs)   bands (ev):

     8.7426   9.9094  10.1172  11.3230  12.2647  16.9823  23.4573  24.6431
    32.4213  34.8224

          k = 0.0000 0.8000 0.0000 (    64 PWs)   bands (ev):

     7.9469   8.2921  12.7637  12.7637  12.9828  14.5081  24.3323  26.9233
    26.9233  35.7812

          k = 0.9000-0.1000 0.9000 (    62 PWs)   bands (ev):

     8.0010   8.3287  12.8811  13.0731  13.1879  16.9954  21.8035  25.9383
    26.6793  36.5931

          k = 0.8000 0.0000 0.8000 (    60 PWs)   bands (ev):

     8.3005   8.9911  12.1737  13.0110  13.0378  19.8027  20.0478  24.7669
    27.8738  37.1012

          k = 0.0000-1.0000 0.0000 (    64 PWs)   bands (ev):

     7.7526   8.0501  13.1166  13.1208  13.1208  16.9039  21.1568  25.8939
    25.8939  36.2934

          k =-0.2000 0.4000 0.0000 (    61 PWs)   bands (ev):

     7.8389   9.1484  10.2963  10.8072  11.1407  12.8508  29.5151  32.1221
    35.5911  35.7037

          k =-0.3000 0.5000-0.1000 (    60 PWs)   bands (ev):

     8.5554   9.6926  10.0694  10.9913  12.2835  14.0493  25.8401  30.8235
    33.7001  36.0462

          k = 0.6000-0.4000 0.8000 (    64 PWs)   bands (ev):

     8.3630   9.5127  10.6328  10.7061  12.5601  15.5710  21.7069  29.9466
    32.0218  34.3887

          k = 0.5000-0.3000 0.7000 (    62 PWs)   bands (ev):

     8.4061   9.6135  10.6071  11.4441  12.9031  18.0176  18.7455  30.1137
    31.0927  33.7810

          k =-0.2000 0.6000 0.0000 (    60 PWs)   bands (ev):

     8.7808   8.7835  10.4937  12.3421  12.5393  13.8839  26.5226  29.5026
    31.9314  35.6661

          k = 0.7000-0.3000 0.9000 (    61 PWs)   bands (ev):

     8.6568   9.4518  10.3086  12.1176  13.0316  15.8262  23.1810  27.9768
    30.3881  36.0575

          k = 0.6000-0.2000 0.8000 (    59 PWs)   bands (ev):

     8.8322   9.9164  10.4656  11.8922  13.3919  18.5208  20.2061  27.4335
    29.7599  35.9273

          k = 0.5000-0.1000 0.7000 (    61 PWs)   bands (ev):

     8.9152   9.7685  10.2705  11.5824  12.8205  17.3717  21.8088  26.5264
    30.8967  35.8197

          k = 0.4000 0.0000 0.6000 (    59 PWs)   bands (ev):

     9.2951   9.6849   9.8810  11.8196  12.3606  15.7443  24.3769  27.7365
    32.6481  36.1770

          k = 0.8000-0.2000 1.0000 (    59 PWs)   bands (ev):

     8.3628   8.7053  12.0961  13.1756  13.5203  16.1600  23.3168  26.4294
    28.2765  36.7796

          k = 0.7000-0.1000 0.9000 (    62 PWs)   bands (ev):

     8.5095   9.0524  11.1192  12.3279  13.2115  18.7307  21.1727  25.1650
    27.6905  37.6810

          k = 0.6000 0.0000 0.8000 (    63 PWs)   bands (ev):

     8.7214   9.5840  10.2714  11.7904  12.9192  18.6898  22.2827  23.5569
    29.0189  37.2021

          k =-0.2000-1.0000 0.0000 (    60 PWs)   bands (ev):

     8.2485   8.3929  12.7986  13.2938  13.3853  18.7772  20.6106  25.3906
    26.5191  37.4819

          k = 0.6000-0.2000 1.0000 (    61 PWs)   bands (ev):

     9.3069   9.4298  10.0530  11.9990  12.9042  17.8061  22.8115  24.8434
    28.9825  38.0358

          k = 0.5000-0.1000 0.9000 (    60 PWs)   bands (ev):

     9.4249   9.7143   9.9330  11.5913  13.8136  19.2659  21.6738  24.2845
    28.1434  38.6486

          k =-0.4000-1.0000 0.0000 (    62 PWs)   bands (ev):

     9.0985   9.2278  10.5547  11.6990  13.4297  19.9453  21.2655  23.8832
    27.0746  40.1115

     the Fermi energy is    15.7921 ev

!    total energy              =    -763.20550051 Ry
     Harris-Foulkes estimate   =    -763.20550064 Ry
     estimated scf accuracy    <          1.3E-09 Ry

     total all-electron energy =    -38012.039963 Ry

     The total energy is the sum of the following terms:

     one-electron contribution =      15.75351077 Ry
     hartree contribution      =       5.66635115 Ry
     xc contribution           =     -30.92074959 Ry
     ewald contribution        =     -71.95438535 Ry
     one-center paw contrib.   =    -681.74977410 Ry
     smearing contrib. (-TS)   =      -0.00045339 Ry

     convergence has been achieved in   7 iterations

     Forces acting on atoms (cartesian axes, Ry/au):

     atom    1 type  1   force =     0.00000000    0.00000000    0.00000000

     Total force =     0.000000     Total SCF correction =     0.000000


     Computing stress (Cartesian axis) and pressure

          total   stress  (Ry/bohr**3)                   (kbar)     P=-4832.94
  -0.03285364  -0.00000000   0.00000000      -4832.94     -0.00      0.00
  -0.00000000  -0.03285364  -0.00000000         -0.00  -4832.94     -0.00
  -0.00000000   0.00000000  -0.03285364         -0.00      0.00  -4832.94


     Writing output data file Au.save/

     init_run     :      0.22s CPU      0.25s WALL (       1 calls)
     electrons    :      1.90s CPU      2.17s WALL (       1 calls)
     forces       :      0.02s CPU      0.02s WALL (       1 calls)
     stress       :      0.02s CPU      0.02s WALL (       1 calls)

     Called by init_run:
     wfcinit      :      0.02s CPU      0.03s WALL (       1 calls)
     potinit      :      0.12s CPU      0.14s WALL (       1 calls)
     hinit0       :      0.06s CPU      0.07s WALL (       1 calls)

     Called by electrons:
     c_bands      :      0.99s CPU      1.12s WALL (       7 calls)
     sum_band     :      0.10s CPU      0.12s WALL (       7 calls)
     v_of_rho     :      0.00s CPU      0.00s WALL (       8 calls)
     newd         :      0.01s CPU      0.01s WALL (       8 calls)
     PAW_pot      :      0.91s CPU      1.03s WALL (       8 calls)
     mix_rho      :      0.00s CPU      0.00s WALL (       7 calls)

     Called by c_bands:
     init_us_2    :      0.01s CPU      0.01s WALL (     799 calls)
     cegterg      :      0.96s CPU      1.09s WALL (     329 calls)

     Called by sum_band:
     sum_band:bec :      0.00s CPU      0.00s WALL (     329 calls)
     addusdens    :      0.00s CPU      0.00s WALL (       7 calls)

     Called by *egterg:
     h_psi        :      0.50s CPU      0.58s WALL (    1337 calls)
     s_psi        :      0.02s CPU      0.02s WALL (    1337 calls)
     g_psi        :      0.00s CPU      0.00s WALL (     961 calls)
     cdiaghg      :      0.33s CPU      0.37s WALL (    1290 calls)

     Called by h_psi:
     h_psi:pot    :      0.50s CPU      0.58s WALL (    1337 calls)
     h_psi:calbec :      0.03s CPU      0.04s WALL (    1337 calls)
     vloc_psi     :      0.44s CPU      0.51s WALL (    1337 calls)
     add_vuspsi   :      0.02s CPU      0.02s WALL (    1337 calls)

     General routines
     calbec       :      0.04s CPU      0.05s WALL (    1901 calls)
     fft          :      0.00s CPU      0.00s WALL (     114 calls)
     ffts         :      0.00s CPU      0.00s WALL (       7 calls)
     fftw         :      0.46s CPU      0.54s WALL (   23424 calls)

     Parallel routines
     fft_scatt_xy :      0.05s CPU      0.06s WALL (   23545 calls)
     fft_scatt_yz :      0.21s CPU      0.25s WALL (   23545 calls)

     PWSCF        :     3.79s CPU         4.20s WALL


   This run was terminated on:  11:13:15  26Mar2024            

=------------------------------------------------------------------------------=
   JOB DONE.
=------------------------------------------------------------------------------=
