
     Program PWSCF v.6.3MaX starts on 26Mar2024 at 11:32:41 

     This program is part of the open-source Quantum ESPRESSO suite
     for quantum simulation of materials; please cite
         "P. Giannozzi et al., J. Phys.:Condens. Matter 21 395502 (2009);
         "P. Giannozzi et al., J. Phys.:Condens. Matter 29 465901 (2017);
          URL http://www.quantum-espresso.org", 
     in publications or presentations arising from this work. More details at
     http://www.quantum-espresso.org/quote

     Parallel version (MPI), running on     5 processors

     MPI processes distributed on     1 nodes
     R & G space division:  proc/nbgrp/npool/nimage =       5
     Waiting for input...
     Reading input from standard input

     Current dimensions of program PWSCF are:
     Max number of different atomic species (ntypx) = 10
     Max number of k-points (npk) =  40000
     Max angular momentum in pseudopotentials (lmaxx) =  3
               file Au.pbesol-n-kjpaw_psl.1.0.0.UPF: wavefunction(s)  6S 5D renormalized

     Subspace diagonalization in iterative solution of the eigenvalue problem:
     a serial algorithm will be used


     Parallelization info
     --------------------
     sticks:   dense  smooth     PW     G-vecs:    dense   smooth      PW
     Min          62      62     17                  765      765     106
     Max          63      63     17                  770      770     107
     Sum         313     313     85                 3839     3839     531



     bravais-lattice index     =            2
     lattice parameter (alat)  =       7.7100  a.u.
     unit-cell volume          =     114.5785 (a.u.)^3
     number of atoms/cell      =            1
     number of atomic types    =            1
     number of electrons       =        11.00
     number of Kohn-Sham states=           10
     kinetic-energy cutoff     =      40.0000  Ry
     charge density cutoff     =     160.0000  Ry
     convergence threshold     =      1.0E-08
     mixing beta               =       0.7000
     number of iterations used =            8  plain     mixing
     Exchange-correlation      = SLA PW PSX PSC ( 1  4 10  8 0 0)

     celldm(1)=   7.710000  celldm(2)=   0.000000  celldm(3)=   0.000000
     celldm(4)=   0.000000  celldm(5)=   0.000000  celldm(6)=   0.000000

     crystal axes: (cart. coord. in units of alat)
               a(1) = (  -0.500000   0.000000   0.500000 )  
               a(2) = (   0.000000   0.500000   0.500000 )  
               a(3) = (  -0.500000   0.500000   0.000000 )  

     reciprocal axes: (cart. coord. in units 2 pi/alat)
               b(1) = ( -1.000000 -1.000000  1.000000 )  
               b(2) = (  1.000000  1.000000  1.000000 )  
               b(3) = ( -1.000000  1.000000 -1.000000 )  


     PseudoPot. # 1 for Au read from file:
     /home/lorenzo/pseudos/Au/Au.pbesol-n-kjpaw_psl.1.0.0.UPF
     MD5 check sum: abc371be705c47a6b6a6b4088b452d3e
     Pseudo is Projector augmented-wave + core cor, Zval = 11.0
     Generated using "atomic" code by A. Dal Corso v.6.3
     Shape of augmentation charge: PSQ
     Using radial grid of 1279 points,  6 beta functions with: 
                l(1) =   0
                l(2) =   0
                l(3) =   1
                l(4) =   1
                l(5) =   2
                l(6) =   2
     Q(r) pseudized with 0 coefficients 


     atomic species   valence    mass     pseudopotential
        Au            11.00   196.96600     Au( 1.00)

     48 Sym. Ops., with inversion, found



   Cartesian axes

     site n.     atom                  positions (alat units)
         1           Au  tau(   1) = (   0.0000000   0.0000000   0.0000000  )

     number of k points=     1  gaussian smearing, width (Ry)=  0.0100
                       cart. coord. in units 2pi/alat
        k(    1) = (   0.0000000   0.0000000   0.0000000), wk =   2.0000000

     Dense  grid:     3839 G-vectors     FFT dimensions: (  24,  24,  24)

     Estimated max dynamical RAM per process >       4.17 MB

     Estimated total dynamical RAM >      20.84 MB

     Initial potential from superposition of free atoms

     starting charge   10.99990, renormalised to   11.00000
     Starting wfcs are    9 randomized atomic wfcs +    1 random wfcs
     Checking if some PAW data can be deallocated... 

     total cpu time spent up to now is        1.1 secs

     Self-consistent Calculation

     iteration #  1     ecut=    40.00 Ry     beta= 0.70
     Davidson diagonalization with overlap
     ethr =  1.00E-02,  avg # of iterations = 11.0

     Threshold (ethr) on eigenvalues was too large:
     Diagonalizing with lowered threshold

     Davidson diagonalization with overlap
     ethr =  9.11E-04,  avg # of iterations =  1.0

     total cpu time spent up to now is        1.3 secs

     total energy              =    -765.50757649 Ry
     Harris-Foulkes estimate   =    -765.51769917 Ry
     estimated scf accuracy    <       0.10030062 Ry

     iteration #  2     ecut=    40.00 Ry     beta= 0.70
     Davidson diagonalization with overlap
     ethr =  9.12E-04,  avg # of iterations =  5.0

     total cpu time spent up to now is        1.4 secs

     total energy              =    -719.54163584 Ry
     Harris-Foulkes estimate   =   -1174.02440869 Ry
     estimated scf accuracy    <  134361.47462568 Ry

     iteration #  3     ecut=    40.00 Ry     beta= 0.70
     Davidson diagonalization with overlap
     ethr =  9.12E-04,  avg # of iterations =  4.0

     total cpu time spent up to now is        1.6 secs

     total energy              =    -765.47674668 Ry
     Harris-Foulkes estimate   =    -765.48089073 Ry
     estimated scf accuracy    <       0.00994157 Ry

     iteration #  4     ecut=    40.00 Ry     beta= 0.70
     Davidson diagonalization with overlap
     ethr =  9.04E-05,  avg # of iterations =  2.0

     total cpu time spent up to now is        1.7 secs

     total energy              =    -765.47796856 Ry
     Harris-Foulkes estimate   =    -765.47819022 Ry
     estimated scf accuracy    <       0.00257699 Ry

     iteration #  5     ecut=    40.00 Ry     beta= 0.70
     Davidson diagonalization with overlap
     ethr =  2.34E-05,  avg # of iterations =  8.0

     total cpu time spent up to now is        1.8 secs

     total energy              =    -765.47808278 Ry
     Harris-Foulkes estimate   =    -765.47810505 Ry
     estimated scf accuracy    <       0.00166479 Ry

     iteration #  6     ecut=    40.00 Ry     beta= 0.70
     Davidson diagonalization with overlap
     ethr =  1.51E-05,  avg # of iterations =  8.0

     total cpu time spent up to now is        1.9 secs

     total energy              =    -765.47805918 Ry
     Harris-Foulkes estimate   =    -765.47808945 Ry
     estimated scf accuracy    <       0.00158832 Ry

     iteration #  7     ecut=    40.00 Ry     beta= 0.70
     Davidson diagonalization with overlap
     ethr =  1.44E-05,  avg # of iterations =  1.0

     total cpu time spent up to now is        2.1 secs

     total energy              =    -765.47805639 Ry
     Harris-Foulkes estimate   =    -765.47806163 Ry
     estimated scf accuracy    <       0.00152494 Ry

     iteration #  8     ecut=    40.00 Ry     beta= 0.70
     Davidson diagonalization with overlap
     ethr =  1.39E-05,  avg # of iterations =  1.0

     total cpu time spent up to now is        2.2 secs

     total energy              =    -765.47804759 Ry
     Harris-Foulkes estimate   =    -765.47805725 Ry
     estimated scf accuracy    <       0.00150786 Ry

     iteration #  9     ecut=    40.00 Ry     beta= 0.70
     Davidson diagonalization with overlap
     ethr =  1.37E-05,  avg # of iterations =  1.0

     total cpu time spent up to now is        2.3 secs

     total energy              =    -765.47803813 Ry
     Harris-Foulkes estimate   =    -765.47804820 Ry
     estimated scf accuracy    <       0.00147394 Ry

     iteration # 10     ecut=    40.00 Ry     beta= 0.70
     Davidson diagonalization with overlap
     ethr =  1.34E-05,  avg # of iterations =  1.0

     total cpu time spent up to now is        2.5 secs

     total energy              =    -765.47803750 Ry
     Harris-Foulkes estimate   =    -765.47803850 Ry
     estimated scf accuracy    <       0.00146222 Ry

     iteration # 11     ecut=    40.00 Ry     beta= 0.70
     Davidson diagonalization with overlap
     ethr =  1.33E-05,  avg # of iterations =  1.0

     total cpu time spent up to now is        2.6 secs

     total energy              =    -765.47698766 Ry
     Harris-Foulkes estimate   =    -765.47803774 Ry
     estimated scf accuracy    <       0.00144556 Ry

     iteration # 12     ecut=    40.00 Ry     beta= 0.70
     Davidson diagonalization with overlap
     ethr =  1.31E-05,  avg # of iterations =  4.0

     total cpu time spent up to now is        2.7 secs

     total energy              =    -765.47721206 Ry
     Harris-Foulkes estimate   =    -765.47717949 Ry
     estimated scf accuracy    <       0.00074458 Ry

     iteration # 13     ecut=    40.00 Ry     beta= 0.70
     Davidson diagonalization with overlap
     ethr =  6.77E-06,  avg # of iterations =  2.0

     total cpu time spent up to now is        2.9 secs

     total energy              =    -765.47702134 Ry
     Harris-Foulkes estimate   =    -765.47721336 Ry
     estimated scf accuracy    <       0.00075035 Ry

     iteration # 14     ecut=    40.00 Ry     beta= 0.70
     Davidson diagonalization with overlap
     ethr =  6.77E-06,  avg # of iterations =  3.0

     total cpu time spent up to now is        3.0 secs

     total energy              =    -765.47670067 Ry
     Harris-Foulkes estimate   =    -765.47702995 Ry
     estimated scf accuracy    <       0.00063792 Ry

     iteration # 15     ecut=    40.00 Ry     beta= 0.70
     Davidson diagonalization with overlap
     ethr =  5.80E-06,  avg # of iterations =  3.0

     total cpu time spent up to now is        3.1 secs

     total energy              =    -765.47673758 Ry
     Harris-Foulkes estimate   =    -765.47674771 Ry
     estimated scf accuracy    <       0.00032907 Ry

     iteration # 16     ecut=    40.00 Ry     beta= 0.70
     Davidson diagonalization with overlap
     ethr =  2.99E-06,  avg # of iterations =  9.0

     total cpu time spent up to now is        3.3 secs

     total energy              =    -765.47677549 Ry
     Harris-Foulkes estimate   =    -765.47674010 Ry
     estimated scf accuracy    <       0.00031301 Ry

     iteration # 17     ecut=    40.00 Ry     beta= 0.70
     Davidson diagonalization with overlap
     ethr =  2.85E-06,  avg # of iterations =  2.0

     total cpu time spent up to now is        3.4 secs

     total energy              =    -765.47677030 Ry
     Harris-Foulkes estimate   =    -765.47677622 Ry
     estimated scf accuracy    <       0.00033881 Ry

     iteration # 18     ecut=    40.00 Ry     beta= 0.70
     Davidson diagonalization with overlap
     ethr =  2.85E-06,  avg # of iterations =  2.0

     total cpu time spent up to now is        3.5 secs

     total energy              =    -765.47682820 Ry
     Harris-Foulkes estimate   =    -765.47677297 Ry
     estimated scf accuracy    <       0.00031329 Ry

     iteration # 19     ecut=    40.00 Ry     beta= 0.70
     Davidson diagonalization with overlap
     ethr =  2.85E-06,  avg # of iterations =  2.0

     total cpu time spent up to now is        3.7 secs

     total energy              =    -765.47597186 Ry
     Harris-Foulkes estimate   =    -765.47682923 Ry
     estimated scf accuracy    <       0.00033990 Ry

     iteration # 20     ecut=    40.00 Ry     beta= 0.70
     Davidson diagonalization with overlap
     ethr =  2.85E-06,  avg # of iterations =  5.0

     total cpu time spent up to now is        3.8 secs

     total energy              =    -764.80819916 Ry
     Harris-Foulkes estimate   =    -769.30987080 Ry
     estimated scf accuracy    <   71580.34365841 Ry

     iteration # 21     ecut=    40.00 Ry     beta= 0.70
     Davidson diagonalization with overlap
     ethr =  2.85E-06,  avg # of iterations =  3.0

     total cpu time spent up to now is        3.9 secs

     total energy              =    -765.52931531 Ry
     Harris-Foulkes estimate   =    -765.48075203 Ry
     estimated scf accuracy    <       3.45534942 Ry

     iteration # 22     ecut=    40.00 Ry     beta= 0.70
     Davidson diagonalization with overlap
     ethr =  2.85E-06,  avg # of iterations =  3.0

     total cpu time spent up to now is        4.1 secs

     total energy              =    -773.62420301 Ry
     Harris-Foulkes estimate   =    -772.13773444 Ry
     estimated scf accuracy    <   79074.72705619 Ry

     iteration # 23     ecut=    40.00 Ry     beta= 0.70
     Davidson diagonalization with overlap
     ethr =  2.85E-06,  avg # of iterations =  3.0

     total cpu time spent up to now is        4.2 secs

     total energy              =    -767.93680138 Ry
     Harris-Foulkes estimate   =    -773.64041277 Ry
     estimated scf accuracy    <   82499.82902851 Ry

     iteration # 24     ecut=    40.00 Ry     beta= 0.70
     Davidson diagonalization with overlap
     ethr =  2.85E-06,  avg # of iterations =  3.0

     total cpu time spent up to now is        4.3 secs

     total energy              =    -741.79735419 Ry
     Harris-Foulkes estimate   =    -768.17935627 Ry
     estimated scf accuracy    <   68226.03845753 Ry

     iteration # 25     ecut=    40.00 Ry     beta= 0.70
     Davidson diagonalization with overlap
     ethr =  2.85E-06,  avg # of iterations =  4.0

     total cpu time spent up to now is        4.5 secs

     total energy              =    -765.47460143 Ry
     Harris-Foulkes estimate   =    -765.47864070 Ry
     estimated scf accuracy    <       0.00302774 Ry

     iteration # 26     ecut=    40.00 Ry     beta= 0.70
     Davidson diagonalization with overlap
     ethr =  2.85E-06,  avg # of iterations =  4.0

     total cpu time spent up to now is        4.6 secs

     total energy              =    -765.47670342 Ry
     Harris-Foulkes estimate   =    -765.47666746 Ry
     estimated scf accuracy    <       0.00103314 Ry

     iteration # 27     ecut=    40.00 Ry     beta= 0.70
     Davidson diagonalization with overlap
     ethr =  2.85E-06,  avg # of iterations =  2.0

     total cpu time spent up to now is        4.7 secs

     total energy              =    -765.47639916 Ry
     Harris-Foulkes estimate   =    -765.47674243 Ry
     estimated scf accuracy    <       0.00324575 Ry

     iteration # 28     ecut=    40.00 Ry     beta= 0.70
     Davidson diagonalization with overlap
     ethr =  2.85E-06,  avg # of iterations =  3.0

     total cpu time spent up to now is        4.8 secs

     total energy              =    -765.47678540 Ry
     Harris-Foulkes estimate   =    -765.47665537 Ry
     estimated scf accuracy    <       0.00032359 Ry

     iteration # 29     ecut=    40.00 Ry     beta= 0.70
     Davidson diagonalization with overlap
     ethr =  2.85E-06,  avg # of iterations =  3.0

     total cpu time spent up to now is        5.0 secs

     total energy              =    -765.47708442 Ry
     Harris-Foulkes estimate   =    -765.47699702 Ry
     estimated scf accuracy    <       0.00041844 Ry

     iteration # 30     ecut=    40.00 Ry     beta= 0.70
     Davidson diagonalization with overlap
     ethr =  2.85E-06,  avg # of iterations =  3.0

     total cpu time spent up to now is        5.1 secs

     total energy              =    -765.47697653 Ry
     Harris-Foulkes estimate   =    -765.47708914 Ry
     estimated scf accuracy    <       0.00048593 Ry

     iteration # 31     ecut=    40.00 Ry     beta= 0.70
     Davidson diagonalization with overlap
     ethr =  2.85E-06,  avg # of iterations =  3.0

     total cpu time spent up to now is        5.2 secs

     total energy              =    -765.47382108 Ry
     Harris-Foulkes estimate   =    -765.47698505 Ry
     estimated scf accuracy    <       0.00041474 Ry

     iteration # 32     ecut=    40.00 Ry     beta= 0.70
     Davidson diagonalization with overlap
     ethr =  2.85E-06,  avg # of iterations =  4.0

     total cpu time spent up to now is        5.4 secs

     total energy              =    -798.64329980 Ry
     Harris-Foulkes estimate   =    -796.32226454 Ry
     estimated scf accuracy    <  109894.37393588 Ry

     iteration # 33     ecut=    40.00 Ry     beta= 0.70
     Davidson diagonalization with overlap
     ethr =  2.85E-06,  avg # of iterations =  2.0

     total cpu time spent up to now is        5.5 secs

     total energy              =    -745.65657379 Ry
     Harris-Foulkes estimate   =    -798.65100663 Ry
     estimated scf accuracy    <  111334.82972011 Ry

     iteration # 34     ecut=    40.00 Ry     beta= 0.70
     Davidson diagonalization with overlap
     ethr =  2.85E-06,  avg # of iterations =  5.0

     total cpu time spent up to now is        5.6 secs

     total energy              =    -765.47727853 Ry
     Harris-Foulkes estimate   =    -765.47710873 Ry
     estimated scf accuracy    <       0.00049277 Ry

     iteration # 35     ecut=    40.00 Ry     beta= 0.70
     Davidson diagonalization with overlap
     ethr =  2.85E-06,  avg # of iterations =  3.0

     total cpu time spent up to now is        5.7 secs

     total energy              =    -765.47734672 Ry
     Harris-Foulkes estimate   =    -765.47729340 Ry
     estimated scf accuracy    <       0.00063856 Ry

     iteration # 36     ecut=    40.00 Ry     beta= 0.70
     Davidson diagonalization with overlap
     ethr =  2.85E-06,  avg # of iterations =  2.0

     total cpu time spent up to now is        5.9 secs

     total energy              =    -765.47760970 Ry
     Harris-Foulkes estimate   =    -765.47734752 Ry
     estimated scf accuracy    <       0.00067587 Ry

     iteration # 37     ecut=    40.00 Ry     beta= 0.70
     Davidson diagonalization with overlap
     ethr =  2.85E-06,  avg # of iterations =  3.0

     total cpu time spent up to now is        6.0 secs

     total energy              =    -765.47808384 Ry
     Harris-Foulkes estimate   =    -765.47763372 Ry
     estimated scf accuracy    <       0.00093609 Ry

     iteration # 38     ecut=    40.00 Ry     beta= 0.70
     Davidson diagonalization with overlap
     ethr =  2.85E-06,  avg # of iterations =  3.0

     total cpu time spent up to now is        6.1 secs

     total energy              =    -765.47837796 Ry
     Harris-Foulkes estimate   =    -765.47814242 Ry
     estimated scf accuracy    <       0.00151282 Ry

     iteration # 39     ecut=    40.00 Ry     beta= 0.70
     Davidson diagonalization with overlap
     ethr =  2.85E-06,  avg # of iterations =  3.0

     total cpu time spent up to now is        6.3 secs

     total energy              =    -765.47846265 Ry
     Harris-Foulkes estimate   =    -765.47839046 Ry
     estimated scf accuracy    <       0.00185855 Ry

     iteration # 40     ecut=    40.00 Ry     beta= 0.70
     Davidson diagonalization with overlap
     ethr =  2.85E-06,  avg # of iterations =  2.0

     total cpu time spent up to now is        6.4 secs

     total energy              =    -765.47816833 Ry
     Harris-Foulkes estimate   =    -765.47846340 Ry
     estimated scf accuracy    <       0.00191185 Ry

     iteration # 41     ecut=    40.00 Ry     beta= 0.70
     Davidson diagonalization with overlap
     ethr =  2.85E-06,  avg # of iterations =  3.0

     total cpu time spent up to now is        6.5 secs

     total energy              =    -765.47629551 Ry
     Harris-Foulkes estimate   =    -765.47818184 Ry
     estimated scf accuracy    <       0.00156307 Ry

     iteration # 42     ecut=    40.00 Ry     beta= 0.70
     Davidson diagonalization with overlap
     ethr =  2.85E-06,  avg # of iterations =  4.0

     total cpu time spent up to now is        6.7 secs

     total energy              =    -765.47661369 Ry
     Harris-Foulkes estimate   =    -765.47683825 Ry
     estimated scf accuracy    <       0.00033627 Ry

     iteration # 43     ecut=    40.00 Ry     beta= 0.70
     Davidson diagonalization with overlap
     ethr =  2.85E-06,  avg # of iterations =  3.0

     total cpu time spent up to now is        6.8 secs

     total energy              =    -765.47671990 Ry
     Harris-Foulkes estimate   =    -765.47664514 Ry
     estimated scf accuracy    <       0.00017960 Ry

     iteration # 44     ecut=    40.00 Ry     beta= 0.70
     Davidson diagonalization with overlap
     ethr =  1.63E-06,  avg # of iterations =  3.0

     total cpu time spent up to now is        6.9 secs

     total energy              =    -765.47644279 Ry
     Harris-Foulkes estimate   =    -765.47673841 Ry
     estimated scf accuracy    <       0.00027724 Ry

     iteration # 45     ecut=    40.00 Ry     beta= 0.70
     Davidson diagonalization with overlap
     ethr =  1.63E-06,  avg # of iterations =  3.0

     total cpu time spent up to now is        7.0 secs

     total energy              =    -765.47663272 Ry
     Harris-Foulkes estimate   =    -765.47657996 Ry
     estimated scf accuracy    <       0.00046523 Ry

     iteration # 46     ecut=    40.00 Ry     beta= 0.70
     Davidson diagonalization with overlap
     ethr =  1.63E-06,  avg # of iterations =  3.0

     total cpu time spent up to now is        7.2 secs

     total energy              =    -765.47302931 Ry
     Harris-Foulkes estimate   =    -765.47680904 Ry
     estimated scf accuracy    <       0.00855984 Ry

     iteration # 47     ecut=    40.00 Ry     beta= 0.70
     Davidson diagonalization with overlap
     ethr =  1.63E-06,  avg # of iterations =  4.0

     total cpu time spent up to now is        7.3 secs

     total energy              =    -765.47848751 Ry
     Harris-Foulkes estimate   =    -765.47749474 Ry
     estimated scf accuracy    <       0.00085815 Ry

     iteration # 48     ecut=    40.00 Ry     beta= 0.70
     Davidson diagonalization with overlap
     ethr =  1.63E-06,  avg # of iterations =  3.0

     total cpu time spent up to now is        7.4 secs

     total energy              =    -765.47633987 Ry
     Harris-Foulkes estimate   =    -765.47880579 Ry
     estimated scf accuracy    <       0.00260785 Ry

     iteration # 49     ecut=    40.00 Ry     beta= 0.70
     Davidson diagonalization with overlap
     ethr =  1.63E-06,  avg # of iterations =  4.0

     total cpu time spent up to now is        7.6 secs

     total energy              =    -765.47663442 Ry
     Harris-Foulkes estimate   =    -765.47711510 Ry
     estimated scf accuracy    <       0.00053555 Ry

     iteration # 50     ecut=    40.00 Ry     beta= 0.70
     Davidson diagonalization with overlap
     ethr =  1.63E-06,  avg # of iterations =  3.0

     total cpu time spent up to now is        7.7 secs

     total energy              =    -765.47662125 Ry
     Harris-Foulkes estimate   =    -765.47671923 Ry
     estimated scf accuracy    <       0.00022809 Ry

     iteration # 51     ecut=    40.00 Ry     beta= 0.70
     Davidson diagonalization with overlap
     ethr =  1.63E-06,  avg # of iterations =  3.0

     total cpu time spent up to now is        7.8 secs

     total energy              =    -765.47608388 Ry
     Harris-Foulkes estimate   =    -765.47663301 Ry
     estimated scf accuracy    <       0.00017484 Ry

     iteration # 52     ecut=    40.00 Ry     beta= 0.70
     Davidson diagonalization with overlap
     ethr =  1.59E-06,  avg # of iterations =  4.0

     total cpu time spent up to now is        7.9 secs

     total energy              =    -755.65795415 Ry
     Harris-Foulkes estimate   =    -772.83971248 Ry
     estimated scf accuracy    <   80744.93549415 Ry

     iteration # 53     ecut=    40.00 Ry     beta= 0.70
     Davidson diagonalization with overlap
     ethr =  1.59E-06,  avg # of iterations =  4.0

     total cpu time spent up to now is        8.1 secs

     total energy              =    -765.47669829 Ry
     Harris-Foulkes estimate   =    -765.47676418 Ry
     estimated scf accuracy    <       0.00026785 Ry

     iteration # 54     ecut=    40.00 Ry     beta= 0.70
     Davidson diagonalization with overlap
     ethr =  1.59E-06,  avg # of iterations =  3.0

     total cpu time spent up to now is        8.2 secs

     total energy              =    -765.47607163 Ry
     Harris-Foulkes estimate   =    -765.47670305 Ry
     estimated scf accuracy    <       0.00021771 Ry

     iteration # 55     ecut=    40.00 Ry     beta= 0.70
     Davidson diagonalization with overlap
     ethr =  1.59E-06,  avg # of iterations =  4.0

     negative rho (up, down):  2.804E+00 0.000E+00

     total cpu time spent up to now is        8.3 secs

     total energy              =     260.28195910 Ry
     Harris-Foulkes estimate   =    -769.04964266 Ry
     estimated scf accuracy    <   70917.17300459 Ry

     iteration # 56     ecut=    40.00 Ry     beta= 0.70
     Davidson diagonalization with overlap
     ethr =  1.59E-06,  avg # of iterations =  7.0

     negative rho (up, down):  2.575E+01 0.000E+00

     total cpu time spent up to now is        8.5 secs

     total energy              =   -4138.35172695 Ry
     Harris-Foulkes estimate   =   -2097.67517325 Ry
     estimated scf accuracy    <  134231.66340985 Ry

     iteration # 57     ecut=    40.00 Ry     beta= 0.70
     Davidson diagonalization with overlap
     ethr =  1.59E-06,  avg # of iterations =  6.0

     negative rho (up, down):  8.059E+00 0.000E+00

     total cpu time spent up to now is        8.6 secs

     total energy              =    1048.67440657 Ry
     Harris-Foulkes estimate   =   -4138.66495799 Ry
     estimated scf accuracy    <  131390.07088139 Ry

     iteration # 58     ecut=    40.00 Ry     beta= 0.70
     Davidson diagonalization with overlap
     ethr =  1.59E-06,  avg # of iterations =  6.0

     negative rho (up, down):  4.537E+00 0.000E+00

     total cpu time spent up to now is        8.7 secs

     total energy              =    1261.31683586 Ry
     Harris-Foulkes estimate   =   -2480.73917573 Ry
     estimated scf accuracy    <  133954.99463120 Ry

     iteration # 59     ecut=    40.00 Ry     beta= 0.70
     Davidson diagonalization with overlap
     ethr =  1.59E-06,  avg # of iterations =  8.0

     negative rho (up, down):  3.518E-02 0.000E+00

     total cpu time spent up to now is        8.9 secs

     total energy              =   -1285.58093190 Ry
     Harris-Foulkes estimate   =   -2685.77843363 Ry
     estimated scf accuracy    <  134007.08944820 Ry

     iteration # 60     ecut=    40.00 Ry     beta= 0.70
     Davidson diagonalization with overlap
     ethr =  1.59E-06,  avg # of iterations =  7.0

     total cpu time spent up to now is        9.0 secs

     total energy              =   -1113.21835265 Ry
     Harris-Foulkes estimate   =   -1286.01394088 Ry
     estimated scf accuracy    <  134588.57444360 Ry

     iteration # 61     ecut=    40.00 Ry     beta= 0.70
     Davidson diagonalization with overlap
     ethr =  1.59E-06,  avg # of iterations =  3.0

     total cpu time spent up to now is        9.1 secs

     total energy              =    -996.73853624 Ry
     Harris-Foulkes estimate   =   -1113.31218288 Ry
     estimated scf accuracy    <  134284.70312882 Ry

     iteration # 62     ecut=    40.00 Ry     beta= 0.70
     Davidson diagonalization with overlap
     ethr =  1.59E-06,  avg # of iterations =  3.0

     total cpu time spent up to now is        9.3 secs

     total energy              =    -363.63581338 Ry
     Harris-Foulkes estimate   =    -996.85905033 Ry
     estimated scf accuracy    <  133625.85374345 Ry

     iteration # 63     ecut=    40.00 Ry     beta= 0.70
     Davidson diagonalization with overlap
     ethr =  1.59E-06,  avg # of iterations =  7.0

     negative rho (up, down):  2.663E+02 0.000E+00

     total cpu time spent up to now is        9.4 secs

     total energy              =  -18847.16076119 Ry
     Harris-Foulkes estimate   =   -1074.99330385 Ry
     estimated scf accuracy    <  133771.29425761 Ry

     iteration # 64     ecut=    40.00 Ry     beta= 0.70
     Davidson diagonalization with overlap
     c_bands:  1 eigenvalues not converged
     ethr =  1.59E-06,  avg # of iterations = 20.0

     negative rho (up, down):  1.103E+03 0.000E+00

     total cpu time spent up to now is        9.6 secs

     total energy              =  -58602.21363882 Ry
     Harris-Foulkes estimate   =  -18964.32488707 Ry
     estimated scf accuracy    <  105234.61530653 Ry

     iteration # 65     ecut=    40.00 Ry     beta= 0.70
     Davidson diagonalization with overlap
     c_bands:  2 eigenvalues not converged
     ethr =  1.59E-06,  avg # of iterations = 40.0

     negative rho (up, down):  8.718E+02 0.000E+00

     total cpu time spent up to now is        9.8 secs

     total energy              =  -49756.12100477 Ry
     Harris-Foulkes estimate   =  -58617.69903787 Ry
     estimated scf accuracy    <   36107.47357286 Ry

     iteration # 66     ecut=    40.00 Ry     beta= 0.70
     Davidson diagonalization with overlap
     c_bands:  2 eigenvalues not converged
     ethr =  1.59E-06,  avg # of iterations = 40.0

     negative rho (up, down):  5.087E+02 0.000E+00

     total cpu time spent up to now is       10.0 secs

     total energy              =  -32680.44677048 Ry
     Harris-Foulkes estimate   =  -49756.30876320 Ry
     estimated scf accuracy    <   51632.06607453 Ry

     iteration # 67     ecut=    40.00 Ry     beta= 0.70
     Davidson diagonalization with overlap
     ethr =  1.59E-06,  avg # of iterations = 40.0

     negative rho (up, down):  7.638E+02 0.000E+00

     total cpu time spent up to now is       10.1 secs

     total energy              =  -45108.68781677 Ry
     Harris-Foulkes estimate   =  -32681.06987493 Ry
     estimated scf accuracy    <   81614.65012627 Ry

     iteration # 68     ecut=    40.00 Ry     beta= 0.70
     Davidson diagonalization with overlap
     c_bands:  5 eigenvalues not converged
     ethr =  1.59E-06,  avg # of iterations = 20.0

     negative rho (up, down):  1.216E+03 0.000E+00

     total cpu time spent up to now is       10.3 secs

     total energy              =  -62403.10998749 Ry
     Harris-Foulkes estimate   =  -45109.42096566 Ry
     estimated scf accuracy    <   59843.04783307 Ry

     iteration # 69     ecut=    40.00 Ry     beta= 0.70
     Davidson diagonalization with overlap
     c_bands:  3 eigenvalues not converged
     ethr =  1.59E-06,  avg # of iterations = 40.0

     negative rho (up, down):  1.097E+03 0.000E+00

     total cpu time spent up to now is       10.5 secs

     total energy              =  -58440.66685138 Ry
     Harris-Foulkes estimate   =  -62405.89598234 Ry
     estimated scf accuracy    <   29570.79105841 Ry

     iteration # 70     ecut=    40.00 Ry     beta= 0.70
     Davidson diagonalization with overlap
     c_bands:  2 eigenvalues not converged
     ethr =  1.59E-06,  avg # of iterations = 20.0

     negative rho (up, down):  1.860E+03 0.000E+00

     total cpu time spent up to now is       10.6 secs

     total energy              =  -76582.55386156 Ry
     Harris-Foulkes estimate   =  -58441.00942612 Ry
     estimated scf accuracy    <   36509.03849667 Ry

     iteration # 71     ecut=    40.00 Ry     beta= 0.70
     Davidson diagonalization with overlap
     c_bands:  5 eigenvalues not converged
     ethr =  1.59E-06,  avg # of iterations = 80.0

     negative rho (up, down):  2.286E+03 0.000E+00

     total cpu time spent up to now is       10.9 secs

     total energy              =  -79203.66009966 Ry
     Harris-Foulkes estimate   =  -76609.81596550 Ry
     estimated scf accuracy    <    4672.53708137 Ry

     iteration # 72     ecut=    40.00 Ry     beta= 0.70
     Davidson diagonalization with overlap
     c_bands:  5 eigenvalues not converged
     ethr =  1.59E-06,  avg # of iterations = 40.0

     negative rho (up, down):  2.286E+03 0.000E+00

     total cpu time spent up to now is       11.1 secs

     total energy              =  -79206.15229951 Ry
     Harris-Foulkes estimate   =  -79205.26902412 Ry
     estimated scf accuracy    <       0.08080721 Ry

     iteration # 73     ecut=    40.00 Ry     beta= 0.70
     Davidson diagonalization with overlap
     c_bands:  4 eigenvalues not converged
     ethr =  1.59E-06,  avg # of iterations = 20.0

     negative rho (up, down):  2.287E+03 0.000E+00

     total cpu time spent up to now is       11.2 secs

     total energy              =  -79206.65877002 Ry
     Harris-Foulkes estimate   =  -79206.29450965 Ry
     estimated scf accuracy    <       0.12521841 Ry

     iteration # 74     ecut=    40.00 Ry     beta= 0.70
     Davidson diagonalization with overlap
     c_bands:  4 eigenvalues not converged
     ethr =  1.59E-06,  avg # of iterations = 20.0

     negative rho (up, down):  2.287E+03 0.000E+00

     total cpu time spent up to now is       11.4 secs

     total energy              =  -79206.71288189 Ry
     Harris-Foulkes estimate   =  -79206.69580841 Ry
     estimated scf accuracy    <       0.09922050 Ry

     iteration # 75     ecut=    40.00 Ry     beta= 0.70
     Davidson diagonalization with overlap
     c_bands:  4 eigenvalues not converged
     ethr =  1.59E-06,  avg # of iterations = 20.0

     negative rho (up, down):  2.287E+03 0.000E+00

     total cpu time spent up to now is       11.6 secs

     total energy              =  -79206.70798680 Ry
     Harris-Foulkes estimate   =  -79206.71641682 Ry
     estimated scf accuracy    <       0.03292904 Ry

     iteration # 76     ecut=    40.00 Ry     beta= 0.70
     Davidson diagonalization with overlap
     c_bands:  3 eigenvalues not converged
     ethr =  1.59E-06,  avg # of iterations = 20.0

     negative rho (up, down):  2.287E+03 0.000E+00

     total cpu time spent up to now is       11.7 secs

     total energy              =  -79206.69612731 Ry
     Harris-Foulkes estimate   =  -79206.70879950 Ry
     estimated scf accuracy    <       0.03454816 Ry

     iteration # 77     ecut=    40.00 Ry     beta= 0.70
     Davidson diagonalization with overlap
     ethr =  1.59E-06,  avg # of iterations =  7.0

     negative rho (up, down):  2.287E+03 0.000E+00

     total cpu time spent up to now is       11.8 secs

     total energy              =  -79206.66591324 Ry
     Harris-Foulkes estimate   =  -79206.69634515 Ry
     estimated scf accuracy    <       0.02030626 Ry

     iteration # 78     ecut=    40.00 Ry     beta= 0.70
     Davidson diagonalization with overlap
     ethr =  1.59E-06,  avg # of iterations = 12.0

     negative rho (up, down):  2.287E+03 0.000E+00

     total cpu time spent up to now is       12.0 secs

     total energy              =  -79206.67001156 Ry
     Harris-Foulkes estimate   =  -79206.66991394 Ry
     estimated scf accuracy    <       0.00019922 Ry

     iteration # 79     ecut=    40.00 Ry     beta= 0.70
     Davidson diagonalization with overlap
     ethr =  1.59E-06,  avg # of iterations = 18.0

     negative rho (up, down):  2.287E+03 0.000E+00

     total cpu time spent up to now is       12.1 secs

     total energy              =  -79206.67016127 Ry
     Harris-Foulkes estimate   =  -79206.67035975 Ry
     estimated scf accuracy    <       0.00000289 Ry

     iteration # 80     ecut=    40.00 Ry     beta= 0.70
     Davidson diagonalization with overlap
     c_bands:  4 eigenvalues not converged
     ethr =  2.63E-08,  avg # of iterations = 20.0

     negative rho (up, down):  2.287E+03 0.000E+00

     total cpu time spent up to now is       12.2 secs

     total energy              =  -79206.67026018 Ry
     Harris-Foulkes estimate   =  -79206.67024133 Ry
     estimated scf accuracy    <       0.00000107 Ry

     iteration # 81     ecut=    40.00 Ry     beta= 0.70
     Davidson diagonalization with overlap
     c_bands:  4 eigenvalues not converged
     ethr =  9.74E-09,  avg # of iterations = 20.0

     negative rho (up, down):  2.287E+03 0.000E+00

     total cpu time spent up to now is       12.4 secs

     total energy              =  -79206.67030075 Ry
     Harris-Foulkes estimate   =  -79206.67027057 Ry
     estimated scf accuracy    <       0.00000005 Ry

     iteration # 82     ecut=    40.00 Ry     beta= 0.70
     Davidson diagonalization with overlap
     c_bands:  4 eigenvalues not converged
     ethr =  4.73E-10,  avg # of iterations = 20.0

     negative rho (up, down):  2.287E+03 0.000E+00

     total cpu time spent up to now is       12.5 secs

     End of self-consistent calculation

          k = 0.0000 0.0000 0.0000 (   531 PWs)   bands (ev):

  ***************************-518.4880-264.5927-264.5927-264.5927 -69.7556
   -69.7554 -69.7552

     the Fermi energy is  -264.5927 ev

!    total energy              =  -79206.67030934 Ry
     Harris-Foulkes estimate   =  -79206.67030274 Ry
     estimated scf accuracy    <          5.7E-09 Ry

     total all-electron energy =   -116455.504772 Ry

     The total energy is the sum of the following terms:

     one-electron contribution =     141.30382582 Ry
     hartree contribution      =  135402.46624452 Ry
     xc contribution           =   -1554.57716074 Ry
     ewald contribution        =     -71.95438540 Ry
     one-center paw contrib.   = -213123.89190785 Ry
     smearing contrib. (-TS)   =      -0.01692569 Ry

     convergence has been achieved in  82 iterations

     negative rho (up, down):  2.287E+03 0.000E+00

     Forces acting on atoms (cartesian axes, Ry/au):

     atom    1 type  1   force =     0.00000000    0.00000000    0.00000000

     Total force =     0.000000     Total SCF correction =     0.000000


     Computing stress (Cartesian axis) and pressure


     negative rho (up, down):  2.287E+03 0.000E+00
          total   stress  (Ry/bohr**3)                   (kbar)     P=********
1266.88733487  -0.00000000  -0.00000000    **********     -0.00     -0.00
  -0.000000001266.88733487   0.00000000         -0.00**********      0.00
  -0.00000000   0.000000001266.88733487         -0.00      0.00**********


     Writing output data file Au.save/

     init_run     :      0.26s CPU      0.27s WALL (       1 calls)
     electrons    :     10.02s CPU     11.40s WALL (       1 calls)
     forces       :      0.01s CPU      0.01s WALL (       1 calls)
     stress       :      0.04s CPU      0.04s WALL (       1 calls)

     Called by init_run:
     wfcinit      :      0.00s CPU      0.00s WALL (       1 calls)
     potinit      :      0.11s CPU      0.12s WALL (       1 calls)
     hinit0       :      0.13s CPU      0.13s WALL (       1 calls)

     Called by electrons:
     c_bands      :      1.12s CPU      1.20s WALL (      83 calls)
     sum_band     :      0.46s CPU      0.47s WALL (      83 calls)
     v_of_rho     :      0.21s CPU      0.22s WALL (      83 calls)
     newd         :      0.33s CPU      0.33s WALL (      83 calls)
     PAW_pot      :      7.91s CPU      9.18s WALL (      83 calls)
     mix_rho      :      0.05s CPU      0.05s WALL (      83 calls)

     Called by c_bands:
     init_us_2    :      0.02s CPU      0.02s WALL (     167 calls)
     cegterg      :      1.10s CPU      1.18s WALL (      91 calls)

     Called by sum_band:
     sum_band:bec :      0.00s CPU      0.00s WALL (      83 calls)
     addusdens    :      0.29s CPU      0.29s WALL (      83 calls)

     Called by *egterg:
     h_psi        :      0.68s CPU      0.72s WALL (     844 calls)
     s_psi        :      0.02s CPU      0.03s WALL (     844 calls)
     g_psi        :      0.00s CPU      0.00s WALL (     752 calls)
     cdiaghg      :      0.21s CPU      0.23s WALL (     842 calls)

     Called by h_psi:
     h_psi:pot    :      0.67s CPU      0.72s WALL (     844 calls)
     h_psi:calbec :      0.04s CPU      0.04s WALL (     844 calls)
     vloc_psi     :      0.60s CPU      0.65s WALL (     844 calls)
     add_vuspsi   :      0.02s CPU      0.03s WALL (     844 calls)

     General routines
     calbec       :      0.04s CPU      0.04s WALL (     932 calls)
     fft          :      0.11s CPU      0.12s WALL (     940 calls)
     ffts         :      0.01s CPU      0.01s WALL (      83 calls)
     fftw         :      0.61s CPU      0.65s WALL (   11032 calls)

     Parallel routines
     fft_scatt_xy :      0.06s CPU      0.07s WALL (   12055 calls)
     fft_scatt_yz :      0.22s CPU      0.23s WALL (   12055 calls)

     PWSCF        :    11.19s CPU        12.62s WALL


   This run was terminated on:  11:32:54  26Mar2024            

=------------------------------------------------------------------------------=
   JOB DONE.
=------------------------------------------------------------------------------=
