
     Program PWSCF v.6.3MaX starts on 26Mar2024 at 12:36:24 

     This program is part of the open-source Quantum ESPRESSO suite
     for quantum simulation of materials; please cite
         "P. Giannozzi et al., J. Phys.:Condens. Matter 21 395502 (2009);
         "P. Giannozzi et al., J. Phys.:Condens. Matter 29 465901 (2017);
          URL http://www.quantum-espresso.org", 
     in publications or presentations arising from this work. More details at
     http://www.quantum-espresso.org/quote

     Parallel version (MPI), running on     5 processors

     MPI processes distributed on     1 nodes
     R & G space division:  proc/nbgrp/npool/nimage =       5
     Waiting for input...
     Reading input from standard input

     Current dimensions of program PWSCF are:
     Max number of different atomic species (ntypx) = 10
     Max number of k-points (npk) =  40000
     Max angular momentum in pseudopotentials (lmaxx) =  3
               file Au.pbesol-n-kjpaw_psl.1.0.0.UPF: wavefunction(s)  6S 5D renormalized

     Subspace diagonalization in iterative solution of the eigenvalue problem:
     a serial algorithm will be used


     Parallelization info
     --------------------
     sticks:   dense  smooth     PW     G-vecs:    dense   smooth      PW
     Min         149     149     42                 2664     2664     421
     Max         149     149     43                 2665     2665     422
     Sum         745     745    211                13323    13323    2109



     bravais-lattice index     =            2
     lattice parameter (alat)  =       7.7100  a.u.
     unit-cell volume          =     114.5785 (a.u.)^3
     number of atoms/cell      =            1
     number of atomic types    =            1
     number of electrons       =        11.00
     number of Kohn-Sham states=           10
     kinetic-energy cutoff     =      90.0000  Ry
     charge density cutoff     =     360.0000  Ry
     convergence threshold     =      1.0E-08
     mixing beta               =       0.7000
     number of iterations used =            8  plain     mixing
     Exchange-correlation      = SLA PW PSX PSC ( 1  4 10  8 0 0)

     celldm(1)=   7.710000  celldm(2)=   0.000000  celldm(3)=   0.000000
     celldm(4)=   0.000000  celldm(5)=   0.000000  celldm(6)=   0.000000

     crystal axes: (cart. coord. in units of alat)
               a(1) = (  -0.500000   0.000000   0.500000 )  
               a(2) = (   0.000000   0.500000   0.500000 )  
               a(3) = (  -0.500000   0.500000   0.000000 )  

     reciprocal axes: (cart. coord. in units 2 pi/alat)
               b(1) = ( -1.000000 -1.000000  1.000000 )  
               b(2) = (  1.000000  1.000000  1.000000 )  
               b(3) = ( -1.000000  1.000000 -1.000000 )  


     PseudoPot. # 1 for Au read from file:
     /home/lorenzo/pseudos/Au/Au.pbesol-n-kjpaw_psl.1.0.0.UPF
     MD5 check sum: abc371be705c47a6b6a6b4088b452d3e
     Pseudo is Projector augmented-wave + core cor, Zval = 11.0
     Generated using "atomic" code by A. Dal Corso v.6.3
     Shape of augmentation charge: PSQ
     Using radial grid of 1279 points,  6 beta functions with: 
                l(1) =   0
                l(2) =   0
                l(3) =   1
                l(4) =   1
                l(5) =   2
                l(6) =   2
     Q(r) pseudized with 0 coefficients 


     atomic species   valence    mass     pseudopotential
        Au            11.00   196.96600     Au( 1.00)

     48 Sym. Ops., with inversion, found



   Cartesian axes

     site n.     atom                  positions (alat units)
         1           Au  tau(   1) = (   0.0000000   0.0000000   0.0000000  )

     number of k points=     8  gaussian smearing, width (Ry)=  0.0100
                       cart. coord. in units 2pi/alat
        k(    1) = (   0.0000000   0.0000000   0.0000000), wk =   0.0312500
        k(    2) = (  -0.2500000   0.2500000  -0.2500000), wk =   0.2500000
        k(    3) = (   0.5000000  -0.5000000   0.5000000), wk =   0.1250000
        k(    4) = (   0.0000000   0.5000000   0.0000000), wk =   0.1875000
        k(    5) = (   0.7500000  -0.2500000   0.7500000), wk =   0.7500000
        k(    6) = (   0.5000000   0.0000000   0.5000000), wk =   0.3750000
        k(    7) = (   0.0000000  -1.0000000   0.0000000), wk =   0.0937500
        k(    8) = (  -0.5000000  -1.0000000   0.0000000), wk =   0.1875000

     Dense  grid:    13323 G-vectors     FFT dimensions: (  36,  36,  36)

     Estimated max dynamical RAM per process >      12.41 MB

     Estimated total dynamical RAM >      62.03 MB

     Initial potential from superposition of free atoms

     starting charge   10.99990, renormalised to   11.00000
     Starting wfcs are    9 randomized atomic wfcs +    1 random wfcs
     Checking if some PAW data can be deallocated... 

     total cpu time spent up to now is        1.3 secs

     Self-consistent Calculation

     iteration #  1     ecut=    90.00 Ry     beta= 0.70
     Davidson diagonalization with overlap
     ethr =  1.00E-02,  avg # of iterations =  6.5

     Threshold (ethr) on eigenvalues was too large:
     Diagonalizing with lowered threshold

     Davidson diagonalization with overlap
     ethr =  5.39E-04,  avg # of iterations =  1.9

     negative rho (up, down):  2.740E-04 0.000E+00

     total cpu time spent up to now is        1.8 secs

     total energy              =    -764.64420214 Ry
     Harris-Foulkes estimate   =    -764.68702759 Ry
     estimated scf accuracy    <       0.06275464 Ry

     iteration #  2     ecut=    90.00 Ry     beta= 0.70
     Davidson diagonalization with overlap
     ethr =  5.70E-04,  avg # of iterations =  3.0

     negative rho (up, down):  1.582E-03 0.000E+00

     total cpu time spent up to now is        2.1 secs

     total energy              =    -764.66279043 Ry
     Harris-Foulkes estimate   =    -764.67357526 Ry
     estimated scf accuracy    <       0.01788365 Ry

     iteration #  3     ecut=    90.00 Ry     beta= 0.70
     Davidson diagonalization with overlap
     ethr =  1.63E-04,  avg # of iterations =  2.5

     negative rho (up, down):  5.381E-03 0.000E+00

     total cpu time spent up to now is        2.3 secs

     total energy              =    -764.66675775 Ry
     Harris-Foulkes estimate   =    -764.66679213 Ry
     estimated scf accuracy    <       0.00036619 Ry

     iteration #  4     ecut=    90.00 Ry     beta= 0.70
     Davidson diagonalization with overlap
     ethr =  3.33E-06,  avg # of iterations =  3.6

     negative rho (up, down):  6.190E-03 0.000E+00

     total cpu time spent up to now is        2.7 secs

     total energy              =    -764.66706532 Ry
     Harris-Foulkes estimate   =    -764.66708618 Ry
     estimated scf accuracy    <       0.00031792 Ry

     iteration #  5     ecut=    90.00 Ry     beta= 0.70
     Davidson diagonalization with overlap
     ethr =  2.89E-06,  avg # of iterations =  1.0

     negative rho (up, down):  1.216E-02 0.000E+00

     total cpu time spent up to now is        2.9 secs

     total energy              =    -764.66701127 Ry
     Harris-Foulkes estimate   =    -764.66706671 Ry
     estimated scf accuracy    <       0.00024306 Ry

     iteration #  6     ecut=    90.00 Ry     beta= 0.70
     Davidson diagonalization with overlap
     ethr =  2.21E-06,  avg # of iterations =  1.8

     negative rho (up, down):  1.651E-03 0.000E+00

     total cpu time spent up to now is        3.2 secs

     total energy              =    -764.66699529 Ry
     Harris-Foulkes estimate   =    -764.66703347 Ry
     estimated scf accuracy    <       0.00007007 Ry

     iteration #  7     ecut=    90.00 Ry     beta= 0.70
     Davidson diagonalization with overlap
     ethr =  6.37E-07,  avg # of iterations =  2.8

     negative rho (up, down):  1.997E-02 0.000E+00

     total cpu time spent up to now is        3.5 secs

     total energy              =    -764.66698809 Ry
     Harris-Foulkes estimate   =    -764.66701556 Ry
     estimated scf accuracy    <       0.00032067 Ry

     iteration #  8     ecut=    90.00 Ry     beta= 0.70
     Davidson diagonalization with overlap
     ethr =  6.37E-07,  avg # of iterations =  3.1

     negative rho (up, down):  1.860E-02 0.000E+00

     total cpu time spent up to now is        3.8 secs

     total energy              =    -764.66704209 Ry
     Harris-Foulkes estimate   =    -764.66704321 Ry
     estimated scf accuracy    <       0.00003954 Ry

     iteration #  9     ecut=    90.00 Ry     beta= 0.70
     Davidson diagonalization with overlap
     ethr =  3.59E-07,  avg # of iterations =  1.0

     negative rho (up, down):  2.685E-02 0.000E+00

     total cpu time spent up to now is        4.0 secs

     total energy              =    -764.66704372 Ry
     Harris-Foulkes estimate   =    -764.66704222 Ry
     estimated scf accuracy    <       0.00004786 Ry

     iteration # 10     ecut=    90.00 Ry     beta= 0.70
     Davidson diagonalization with overlap
     ethr =  3.59E-07,  avg # of iterations =  1.8

     negative rho (up, down):  3.910E-02 0.000E+00

     total cpu time spent up to now is        4.3 secs

     total energy              =    -764.66704439 Ry
     Harris-Foulkes estimate   =    -764.66704721 Ry
     estimated scf accuracy    <       0.00002240 Ry

     iteration # 11     ecut=    90.00 Ry     beta= 0.70
     Davidson diagonalization with overlap
     ethr =  2.04E-07,  avg # of iterations =  2.6

     negative rho (up, down):  4.050E-02 0.000E+00

     total cpu time spent up to now is        4.5 secs

     total energy              =    -764.66705171 Ry
     Harris-Foulkes estimate   =    -764.66705158 Ry
     estimated scf accuracy    <       0.00000357 Ry

     iteration # 12     ecut=    90.00 Ry     beta= 0.70
     Davidson diagonalization with overlap
     ethr =  3.25E-08,  avg # of iterations =  1.4

     negative rho (up, down):  3.647E-02 0.000E+00

     total cpu time spent up to now is        4.8 secs

     total energy              =    -764.66705056 Ry
     Harris-Foulkes estimate   =    -764.66705182 Ry
     estimated scf accuracy    <       0.00000122 Ry

     iteration # 13     ecut=    90.00 Ry     beta= 0.70
     Davidson diagonalization with overlap
     ethr =  1.11E-08,  avg # of iterations =  2.9

     negative rho (up, down):  4.132E-02 0.000E+00

     total cpu time spent up to now is        5.1 secs

     total energy              =    -764.66705108 Ry
     Harris-Foulkes estimate   =    -764.66705106 Ry
     estimated scf accuracy    <       0.00000830 Ry

     iteration # 14     ecut=    90.00 Ry     beta= 0.70
     Davidson diagonalization with overlap
     ethr =  1.11E-08,  avg # of iterations =  2.8

     negative rho (up, down):  4.163E-02 0.000E+00

     total cpu time spent up to now is        5.4 secs

     total energy              =    -764.66705194 Ry
     Harris-Foulkes estimate   =    -764.66705192 Ry
     estimated scf accuracy    <       0.00000112 Ry

     iteration # 15     ecut=    90.00 Ry     beta= 0.70
     Davidson diagonalization with overlap
     ethr =  1.02E-08,  avg # of iterations =  1.0

     negative rho (up, down):  4.206E-02 0.000E+00

     total cpu time spent up to now is        5.6 secs

     total energy              =    -764.66705198 Ry
     Harris-Foulkes estimate   =    -764.66705196 Ry
     estimated scf accuracy    <       0.00000068 Ry

     iteration # 16     ecut=    90.00 Ry     beta= 0.70
     Davidson diagonalization with overlap
     ethr =  6.18E-09,  avg # of iterations =  1.0

     negative rho (up, down):  4.266E-02 0.000E+00

     total cpu time spent up to now is        5.9 secs

     total energy              =    -764.66705201 Ry
     Harris-Foulkes estimate   =    -764.66705199 Ry
     estimated scf accuracy    <       0.00000042 Ry

     iteration # 17     ecut=    90.00 Ry     beta= 0.70
     Davidson diagonalization with overlap
     ethr =  3.81E-09,  avg # of iterations =  1.6

     negative rho (up, down):  4.266E-02 0.000E+00

     total cpu time spent up to now is        6.3 secs

     total energy              =    -764.66705203 Ry
     Harris-Foulkes estimate   =    -764.66705203 Ry
     estimated scf accuracy    <       0.00000012 Ry

     iteration # 18     ecut=    90.00 Ry     beta= 0.70
     Davidson diagonalization with overlap
     ethr =  1.07E-09,  avg # of iterations =  2.1

     negative rho (up, down):  4.260E-02 0.000E+00

     total cpu time spent up to now is        6.5 secs

     total energy              =    -764.66705204 Ry
     Harris-Foulkes estimate   =    -764.66705204 Ry
     estimated scf accuracy    <       0.00000029 Ry

     iteration # 19     ecut=    90.00 Ry     beta= 0.70
     Davidson diagonalization with overlap
     ethr =  1.07E-09,  avg # of iterations =  1.0

     negative rho (up, down):  4.266E-02 0.000E+00

     total cpu time spent up to now is        6.9 secs

     total energy              =    -764.66705204 Ry
     Harris-Foulkes estimate   =    -764.66705204 Ry
     estimated scf accuracy    <       0.00000039 Ry

     iteration # 20     ecut=    90.00 Ry     beta= 0.70
     Davidson diagonalization with overlap
     ethr =  1.07E-09,  avg # of iterations =  1.0

     negative rho (up, down):  4.287E-02 0.000E+00

     total cpu time spent up to now is        7.1 secs

     total energy              =    -764.66705205 Ry
     Harris-Foulkes estimate   =    -764.66705204 Ry
     estimated scf accuracy    <       0.00000035 Ry

     iteration # 21     ecut=    90.00 Ry     beta= 0.70
     Davidson diagonalization with overlap
     ethr =  1.07E-09,  avg # of iterations =  1.0

     negative rho (up, down):  4.312E-02 0.000E+00

     total cpu time spent up to now is        7.4 secs

     total energy              =    -764.66705206 Ry
     Harris-Foulkes estimate   =    -764.66705205 Ry
     estimated scf accuracy    <       0.00000025 Ry

     iteration # 22     ecut=    90.00 Ry     beta= 0.70
     Davidson diagonalization with overlap
     ethr =  1.07E-09,  avg # of iterations =  1.0

     negative rho (up, down):  4.305E-02 0.000E+00

     total cpu time spent up to now is        7.6 secs

     total energy              =    -764.66705206 Ry
     Harris-Foulkes estimate   =    -764.66705207 Ry
     estimated scf accuracy    <       0.00000012 Ry

     iteration # 23     ecut=    90.00 Ry     beta= 0.70
     Davidson diagonalization with overlap
     ethr =  1.05E-09,  avg # of iterations =  1.0

     negative rho (up, down):  4.309E-02 0.000E+00

     total cpu time spent up to now is        7.9 secs

     total energy              =    -764.66705206 Ry
     Harris-Foulkes estimate   =    -764.66705206 Ry
     estimated scf accuracy    <       0.00000018 Ry

     iteration # 24     ecut=    90.00 Ry     beta= 0.70
     Davidson diagonalization with overlap
     ethr =  1.05E-09,  avg # of iterations =  1.0

     negative rho (up, down):  4.348E-02 0.000E+00

     total cpu time spent up to now is        8.2 secs

     total energy              =    -764.66705207 Ry
     Harris-Foulkes estimate   =    -764.66705207 Ry
     estimated scf accuracy    <       0.00000018 Ry

     iteration # 25     ecut=    90.00 Ry     beta= 0.70
     Davidson diagonalization with overlap
     ethr =  1.05E-09,  avg # of iterations =  1.6

     negative rho (up, down):  4.361E-02 0.000E+00

     total cpu time spent up to now is        8.4 secs

     total energy              =    -764.66705208 Ry
     Harris-Foulkes estimate   =    -764.66705208 Ry
     estimated scf accuracy    <       0.00000006 Ry

     iteration # 26     ecut=    90.00 Ry     beta= 0.70
     Davidson diagonalization with overlap
     ethr =  5.91E-10,  avg # of iterations =  1.0

     negative rho (up, down):  4.348E-02 0.000E+00

     total cpu time spent up to now is        8.7 secs

     total energy              =    -764.66705208 Ry
     Harris-Foulkes estimate   =    -764.66705208 Ry
     estimated scf accuracy    <       0.00000002 Ry

     iteration # 27     ecut=    90.00 Ry     beta= 0.70
     Davidson diagonalization with overlap
     ethr =  2.03E-10,  avg # of iterations =  1.4

     negative rho (up, down):  4.278E-02 0.000E+00

     total cpu time spent up to now is        8.9 secs

     total energy              =    -764.66705204 Ry
     Harris-Foulkes estimate   =    -764.66705208 Ry
     estimated scf accuracy    <       0.00000009 Ry

     iteration # 28     ecut=    90.00 Ry     beta= 0.70
     Davidson diagonalization with overlap
     ethr =  2.03E-10,  avg # of iterations =  2.9

     negative rho (up, down):  4.276E-02 0.000E+00

     total cpu time spent up to now is        9.2 secs

     total energy              =    -764.66705205 Ry
     Harris-Foulkes estimate   =    -764.66705205 Ry
     estimated scf accuracy    <       0.00000038 Ry

     iteration # 29     ecut=    90.00 Ry     beta= 0.70
     Davidson diagonalization with overlap
     ethr =  2.03E-10,  avg # of iterations =  1.0

     negative rho (up, down):  4.261E-02 0.000E+00

     total cpu time spent up to now is        9.5 secs

     total energy              =    -764.66705204 Ry
     Harris-Foulkes estimate   =    -764.66705205 Ry
     estimated scf accuracy    <       0.00000040 Ry

     iteration # 30     ecut=    90.00 Ry     beta= 0.70
     Davidson diagonalization with overlap
     ethr =  2.03E-10,  avg # of iterations =  1.2

     negative rho (up, down):  4.324E-02 0.000E+00

     total cpu time spent up to now is        9.7 secs

     total energy              =    -764.66705206 Ry
     Harris-Foulkes estimate   =    -764.66705204 Ry
     estimated scf accuracy    <       0.00000048 Ry

     iteration # 31     ecut=    90.00 Ry     beta= 0.70
     Davidson diagonalization with overlap
     ethr =  2.03E-10,  avg # of iterations =  3.0

     negative rho (up, down):  4.395E-02 0.000E+00

     total cpu time spent up to now is       10.0 secs

     total energy              =    -764.66705208 Ry
     Harris-Foulkes estimate   =    -764.66705207 Ry
     estimated scf accuracy    <       0.00000017 Ry

     iteration # 32     ecut=    90.00 Ry     beta= 0.70
     Davidson diagonalization with overlap
     ethr =  2.03E-10,  avg # of iterations =  2.9

     negative rho (up, down):  4.432E-02 0.000E+00

     total cpu time spent up to now is       10.3 secs

     total energy              =    -764.66705209 Ry
     Harris-Foulkes estimate   =    -764.66705209 Ry
     estimated scf accuracy    <       0.00000001 Ry

     iteration # 33     ecut=    90.00 Ry     beta= 0.70
     Davidson diagonalization with overlap
     ethr =  1.33E-10,  avg # of iterations =  2.6

     negative rho (up, down):  4.429E-02 0.000E+00

     total cpu time spent up to now is       10.5 secs

     End of self-consistent calculation

          k = 0.0000 0.0000 0.0000 (  1639 PWs)   bands (ev):

     5.8124  11.0766  11.0766  11.0766  12.6217  12.6217  31.1272  34.9887
    34.9887  34.9887

          k =-0.2500 0.2500-0.2500 (  1642 PWs)   bands (ev):

     7.6212  10.9292  11.3629  11.3629  12.7883  12.7883  26.9547  32.0123
    35.7976  35.7976

          k = 0.5000-0.5000 0.5000 (  1676 PWs)   bands (ev):

     8.3988  11.0435  11.0435  13.8288  13.8288  14.7365  18.8071  30.4142
    33.3301  33.3301

          k = 0.0000 0.5000 0.0000 (  1636 PWs)   bands (ev):

     8.2557   9.9389  11.7723  12.3233  12.3233  13.1847  30.6215  30.6215
    32.2544  32.8785

          k = 0.7500-0.2500 0.7500 (  1651 PWs)   bands (ev):

     9.2820  10.2077  11.4118  12.2783  13.9178  16.7861  21.1885  27.4211
    29.4442  32.8350

          k = 0.5000 0.0000 0.5000 (  1658 PWs)   bands (ev):

     9.6231  10.5262  10.8735  12.0141  12.6039  15.4921  24.3947  25.9095
    32.8301  34.3467

          k = 0.0000-1.0000 0.0000 (  1660 PWs)   bands (ev):

     8.6814   8.9839  13.7987  14.1420  14.1420  16.7407  21.5995  25.9423
    25.9423  33.2193

          k =-0.5000-1.0000 0.0000 (  1648 PWs)   bands (ev):

     9.7906  10.5934  10.5934  12.4693  14.1440  20.5519  22.0355  22.0355
    25.3572  38.9635

     the Fermi energy is    16.6070 ev

!    total energy              =    -764.66705210 Ry
     Harris-Foulkes estimate   =    -764.66705210 Ry
     estimated scf accuracy    <          1.6E-09 Ry

     total all-electron energy =    -38013.501514 Ry

     The total energy is the sum of the following terms:

     one-electron contribution =      13.88239763 Ry
     hartree contribution      =       7.58544623 Ry
     xc contribution           =     -31.84745457 Ry
     ewald contribution        =     -71.95438534 Ry
     one-center paw contrib.   =    -682.33258085 Ry
     smearing contrib. (-TS)   =      -0.00047520 Ry

     convergence has been achieved in  33 iterations

     negative rho (up, down):  4.429E-02 0.000E+00

     Forces acting on atoms (cartesian axes, Ry/au):

     atom    1 type  1   force =     0.00000000    0.00000000    0.00000000

     Total force =     0.000000     Total SCF correction =     0.000000


     Computing stress (Cartesian axis) and pressure


     negative rho (up, down):  4.429E-02 0.000E+00
          total   stress  (Ry/bohr**3)                   (kbar)     P=   38.91
   0.00026453  -0.00000000  -0.00000000         38.91     -0.00     -0.00
  -0.00000000   0.00026453  -0.00000000         -0.00     38.91     -0.00
  -0.00000000  -0.00000000   0.00026453         -0.00     -0.00     38.91


     Writing output data file Au.save/

     init_run     :      0.43s CPU      0.45s WALL (       1 calls)
     electrons    :      8.85s CPU      9.23s WALL (       1 calls)
     forces       :      0.05s CPU      0.05s WALL (       1 calls)
     stress       :      0.15s CPU      0.16s WALL (       1 calls)

     Called by init_run:
     wfcinit      :      0.04s CPU      0.05s WALL (       1 calls)
     potinit      :      0.13s CPU      0.14s WALL (       1 calls)
     hinit0       :      0.22s CPU      0.22s WALL (       1 calls)

     Called by electrons:
     c_bands      :      3.42s CPU      3.65s WALL (      34 calls)
     sum_band     :      1.27s CPU      1.32s WALL (      34 calls)
     v_of_rho     :      0.33s CPU      0.34s WALL (      34 calls)
     newd         :      0.45s CPU      0.45s WALL (      34 calls)
     PAW_pot      :      3.41s CPU      3.51s WALL (      34 calls)
     mix_rho      :      0.07s CPU      0.07s WALL (      34 calls)

     Called by c_bands:
     init_us_2    :      0.11s CPU      0.12s WALL (     568 calls)
     cegterg      :      3.25s CPU      3.47s WALL (     272 calls)

     Called by sum_band:
     sum_band:bec :      0.00s CPU      0.00s WALL (     272 calls)
     addusdens    :      0.44s CPU      0.45s WALL (      34 calls)

     Called by *egterg:
     h_psi        :      2.66s CPU      2.86s WALL (     823 calls)
     s_psi        :      0.08s CPU      0.08s WALL (     823 calls)
     g_psi        :      0.01s CPU      0.01s WALL (     543 calls)
     cdiaghg      :      0.16s CPU      0.17s WALL (     807 calls)

     Called by h_psi:
     h_psi:pot    :      2.65s CPU      2.84s WALL (     823 calls)
     h_psi:calbec :      0.12s CPU      0.13s WALL (     823 calls)
     vloc_psi     :      2.44s CPU      2.62s WALL (     823 calls)
     add_vuspsi   :      0.08s CPU      0.08s WALL (     823 calls)

     General routines
     calbec       :      0.18s CPU      0.19s WALL (    1135 calls)
     fft          :      0.17s CPU      0.17s WALL (     401 calls)
     ffts         :      0.01s CPU      0.01s WALL (      34 calls)
     fftw         :      2.81s CPU      3.01s WALL (   15430 calls)

     Parallel routines
     fft_scatt_xy :      0.25s CPU      0.27s WALL (   15865 calls)
     fft_scatt_yz :      0.75s CPU      0.80s WALL (   15865 calls)

     PWSCF        :    10.36s CPU        10.80s WALL


   This run was terminated on:  12:36:35  26Mar2024            

=------------------------------------------------------------------------------=
   JOB DONE.
=------------------------------------------------------------------------------=
