
     Program PWSCF v.6.3MaX starts on 26Mar2024 at 12:13:59 

     This program is part of the open-source Quantum ESPRESSO suite
     for quantum simulation of materials; please cite
         "P. Giannozzi et al., J. Phys.:Condens. Matter 21 395502 (2009);
         "P. Giannozzi et al., J. Phys.:Condens. Matter 29 465901 (2017);
          URL http://www.quantum-espresso.org", 
     in publications or presentations arising from this work. More details at
     http://www.quantum-espresso.org/quote

     Parallel version (MPI), running on     5 processors

     MPI processes distributed on     1 nodes
     R & G space division:  proc/nbgrp/npool/nimage =       5
     Waiting for input...
     Reading input from standard input

     Current dimensions of program PWSCF are:
     Max number of different atomic species (ntypx) = 10
     Max number of k-points (npk) =  40000
     Max angular momentum in pseudopotentials (lmaxx) =  3

     Subspace diagonalization in iterative solution of the eigenvalue problem:
     a serial algorithm will be used


     Parallelization info
     --------------------
     sticks:   dense  smooth     PW     G-vecs:    dense   smooth      PW
     Min         122     122     37                 1997     1997     337
     Max         123     123     38                 1997     1997     338
     Sum         613     613    187                 9985     9985    1687



     bravais-lattice index     =            2
     lattice parameter (alat)  =       7.7100  a.u.
     unit-cell volume          =     114.5785 (a.u.)^3
     number of atoms/cell      =            1
     number of atomic types    =            1
     number of electrons       =        11.00
     number of Kohn-Sham states=           10
     kinetic-energy cutoff     =      75.0000  Ry
     charge density cutoff     =     300.0000  Ry
     convergence threshold     =      1.0E-08
     mixing beta               =       0.7000
     number of iterations used =            8  plain     mixing
     Exchange-correlation      = PBE ( 1  4  3  4 0 0)

     celldm(1)=   7.710000  celldm(2)=   0.000000  celldm(3)=   0.000000
     celldm(4)=   0.000000  celldm(5)=   0.000000  celldm(6)=   0.000000

     crystal axes: (cart. coord. in units of alat)
               a(1) = (  -0.500000   0.000000   0.500000 )  
               a(2) = (   0.000000   0.500000   0.500000 )  
               a(3) = (  -0.500000   0.500000   0.000000 )  

     reciprocal axes: (cart. coord. in units 2 pi/alat)
               b(1) = ( -1.000000 -1.000000  1.000000 )  
               b(2) = (  1.000000  1.000000  1.000000 )  
               b(3) = ( -1.000000  1.000000 -1.000000 )  


     PseudoPot. # 1 for Au read from file:
     /home/lorenzo/pseudos/Au/Au.pbe-n-rrkjus_psl.1.0.0.UPF
     MD5 check sum: d7e77ba19504afed2c9b41c931dde4f0
     Pseudo is Ultrasoft + core correction, Zval = 11.0
     Generated using "atomic" code by A. Dal Corso v.6.3
     Using radial grid of 1279 points,  6 beta functions with: 
                l(1) =   0
                l(2) =   0
                l(3) =   1
                l(4) =   1
                l(5) =   2
                l(6) =   2
     Q(r) pseudized with 0 coefficients 


     atomic species   valence    mass     pseudopotential
        Au            11.00   196.96600     Au( 1.00)

     48 Sym. Ops., with inversion, found



   Cartesian axes

     site n.     atom                  positions (alat units)
         1           Au  tau(   1) = (   0.0000000   0.0000000   0.0000000  )

     number of k points=     8  gaussian smearing, width (Ry)=  0.0100
                       cart. coord. in units 2pi/alat
        k(    1) = (   0.0000000   0.0000000   0.0000000), wk =   0.0312500
        k(    2) = (  -0.2500000   0.2500000  -0.2500000), wk =   0.2500000
        k(    3) = (   0.5000000  -0.5000000   0.5000000), wk =   0.1250000
        k(    4) = (   0.0000000   0.5000000   0.0000000), wk =   0.1875000
        k(    5) = (   0.7500000  -0.2500000   0.7500000), wk =   0.7500000
        k(    6) = (   0.5000000   0.0000000   0.5000000), wk =   0.3750000
        k(    7) = (   0.0000000  -1.0000000   0.0000000), wk =   0.0937500
        k(    8) = (  -0.5000000  -1.0000000   0.0000000), wk =   0.1875000

     Dense  grid:     9985 G-vectors     FFT dimensions: (  32,  32,  32)

     Estimated max dynamical RAM per process >       9.57 MB

     Estimated total dynamical RAM >      47.83 MB

     Initial potential from superposition of free atoms

     starting charge   10.99989, renormalised to   11.00000
     Starting wfcs are    9 randomized atomic wfcs +    1 random wfcs

     total cpu time spent up to now is        1.6 secs

     Self-consistent Calculation

     iteration #  1     ecut=    75.00 Ry     beta= 0.70
     Davidson diagonalization with overlap
     ethr =  1.00E-02,  avg # of iterations =  5.9

     Threshold (ethr) on eigenvalues was too large:
     Diagonalizing with lowered threshold

     Davidson diagonalization with overlap
     ethr =  4.66E-04,  avg # of iterations =  1.9

     total cpu time spent up to now is        2.0 secs

     total energy              =     -85.35535086 Ry
     Harris-Foulkes estimate   =     -85.38855706 Ry
     estimated scf accuracy    <       0.05247165 Ry

     iteration #  2     ecut=    75.00 Ry     beta= 0.70
     Davidson diagonalization with overlap
     ethr =  4.77E-04,  avg # of iterations =  2.6

     total cpu time spent up to now is        2.1 secs

     total energy              =     -85.36932182 Ry
     Harris-Foulkes estimate   =     -85.37621137 Ry
     estimated scf accuracy    <       0.01095944 Ry

     iteration #  3     ecut=    75.00 Ry     beta= 0.70
     Davidson diagonalization with overlap
     ethr =  9.96E-05,  avg # of iterations =  3.1

     total cpu time spent up to now is        2.3 secs

     total energy              =     -85.37184417 Ry
     Harris-Foulkes estimate   =     -85.37189964 Ry
     estimated scf accuracy    <       0.00017611 Ry

     iteration #  4     ecut=    75.00 Ry     beta= 0.70
     Davidson diagonalization with overlap
     ethr =  1.60E-06,  avg # of iterations =  3.8

     total cpu time spent up to now is        2.4 secs

     total energy              =     -85.37199708 Ry
     Harris-Foulkes estimate   =     -85.37206237 Ry
     estimated scf accuracy    <       0.00012020 Ry

     iteration #  5     ecut=    75.00 Ry     beta= 0.70
     Davidson diagonalization with overlap
     ethr =  1.09E-06,  avg # of iterations =  1.4

     total cpu time spent up to now is        2.5 secs

     total energy              =     -85.37201072 Ry
     Harris-Foulkes estimate   =     -85.37201274 Ry
     estimated scf accuracy    <       0.00000456 Ry

     iteration #  6     ecut=    75.00 Ry     beta= 0.70
     Davidson diagonalization with overlap
     ethr =  4.14E-08,  avg # of iterations =  3.1

     total cpu time spent up to now is        2.7 secs

     total energy              =     -85.37201477 Ry
     Harris-Foulkes estimate   =     -85.37201476 Ry
     estimated scf accuracy    <       0.00000012 Ry

     iteration #  7     ecut=    75.00 Ry     beta= 0.70
     Davidson diagonalization with overlap
     ethr =  1.12E-09,  avg # of iterations =  2.4

     total cpu time spent up to now is        2.8 secs

     total energy              =     -85.37201472 Ry
     Harris-Foulkes estimate   =     -85.37201480 Ry
     estimated scf accuracy    <       0.00000013 Ry

     iteration #  8     ecut=    75.00 Ry     beta= 0.70
     Davidson diagonalization with overlap
     ethr =  1.12E-09,  avg # of iterations =  1.2

     total cpu time spent up to now is        2.9 secs

     End of self-consistent calculation

          k = 0.0000 0.0000 0.0000 (  1243 PWs)   bands (ev):

     6.0935  11.3081  11.3081  11.3081  12.8426  12.8426  31.3913  35.2618
    35.2618  35.2618

          k =-0.2500 0.2500-0.2500 (  1260 PWs)   bands (ev):

     7.8989  11.1708  11.5920  11.5920  13.0118  13.0118  27.3065  32.3209
    36.1726  36.1726

          k = 0.5000-0.5000 0.5000 (  1260 PWs)   bands (ev):

     8.6556  11.2714  11.2714  14.0536  14.0536  15.0218  19.1068  30.6804
    33.6198  33.6198

          k = 0.0000 0.5000 0.0000 (  1283 PWs)   bands (ev):

     8.5270  10.1758  12.0076  12.5543  12.5543  13.4020  30.9835  30.9835
    32.3355  33.1581

          k = 0.7500-0.2500 0.7500 (  1247 PWs)   bands (ev):

     9.5253  10.4429  11.6548  12.5047  14.1436  17.0527  21.4869  27.6283
    29.7076  33.1909

          k = 0.5000 0.0000 0.5000 (  1264 PWs)   bands (ev):

     9.8835  10.7649  11.1089  12.2388  12.8340  15.7409  24.6452  26.2957
    33.0769  34.4734

          k = 0.0000-1.0000 0.0000 (  1234 PWs)   bands (ev):

     8.9094   9.2266  14.0104  14.3780  14.3780  17.0286  21.8138  26.2305
    26.2305  33.2330

          k =-0.5000-1.0000 0.0000 (  1232 PWs)   bands (ev):

    10.0209  10.8329  10.8329  12.6953  14.3800  20.8096  22.3564  22.3564
    25.4733  39.4542

     the Fermi energy is    16.8776 ev

!    total energy              =     -85.37201474 Ry
     Harris-Foulkes estimate   =     -85.37201474 Ry
     estimated scf accuracy    <          2.2E-09 Ry

     The total energy is the sum of the following terms:

     one-electron contribution =      11.09695016 Ry
     hartree contribution      =       7.59125364 Ry
     xc contribution           =     -32.10535218 Ry
     ewald contribution        =     -71.95438534 Ry
     smearing contrib. (-TS)   =      -0.00048102 Ry

     convergence has been achieved in   8 iterations

     Forces acting on atoms (cartesian axes, Ry/au):

     atom    1 type  1   force =     0.00000000    0.00000000    0.00000000

     Total force =     0.000000     Total SCF correction =     0.000000


     Computing stress (Cartesian axis) and pressure

          total   stress  (Ry/bohr**3)                   (kbar)     P=  129.70
   0.00088171  -0.00000000  -0.00000000        129.70     -0.00     -0.00
  -0.00000000   0.00088171   0.00000000         -0.00    129.70      0.00
  -0.00000000   0.00000000   0.00088171         -0.00      0.00    129.70


     Writing output data file Au.save/

     init_run     :      0.25s CPU      0.27s WALL (       1 calls)
     electrons    :      1.16s CPU      1.25s WALL (       1 calls)
     forces       :      0.04s CPU      0.04s WALL (       1 calls)
     stress       :      0.12s CPU      0.12s WALL (       1 calls)

     Called by init_run:
     wfcinit      :      0.03s CPU      0.04s WALL (       1 calls)
     potinit      :      0.01s CPU      0.01s WALL (       1 calls)
     hinit0       :      0.19s CPU      0.19s WALL (       1 calls)

     Called by electrons:
     c_bands      :      0.81s CPU      0.88s WALL (       9 calls)
     sum_band     :      0.22s CPU      0.24s WALL (       9 calls)
     v_of_rho     :      0.05s CPU      0.06s WALL (       9 calls)
     newd         :      0.08s CPU      0.09s WALL (       9 calls)
     mix_rho      :      0.01s CPU      0.01s WALL (       9 calls)

     Called by c_bands:
     init_us_2    :      0.03s CPU      0.03s WALL (     168 calls)
     cegterg      :      0.78s CPU      0.84s WALL (      72 calls)

     Called by sum_band:
     sum_band:bec :      0.00s CPU      0.00s WALL (      72 calls)
     addusdens    :      0.09s CPU      0.09s WALL (       9 calls)

     Called by *egterg:
     h_psi        :      0.60s CPU      0.66s WALL (     283 calls)
     s_psi        :      0.02s CPU      0.02s WALL (     283 calls)
     g_psi        :      0.00s CPU      0.00s WALL (     203 calls)
     cdiaghg      :      0.07s CPU      0.07s WALL (     267 calls)

     Called by h_psi:
     h_psi:pot    :      0.60s CPU      0.65s WALL (     283 calls)
     h_psi:calbec :      0.03s CPU      0.03s WALL (     283 calls)
     vloc_psi     :      0.54s CPU      0.59s WALL (     283 calls)
     add_vuspsi   :      0.02s CPU      0.02s WALL (     283 calls)

     General routines
     calbec       :      0.05s CPU      0.05s WALL (     395 calls)
     fft          :      0.04s CPU      0.04s WALL (     126 calls)
     ffts         :      0.00s CPU      0.00s WALL (       9 calls)
     fftw         :      0.59s CPU      0.65s WALL (    4632 calls)

     Parallel routines
     fft_scatt_xy :      0.06s CPU      0.07s WALL (    4767 calls)
     fft_scatt_yz :      0.18s CPU      0.19s WALL (    4767 calls)

     PWSCF        :     2.91s CPU         3.07s WALL


   This run was terminated on:  12:14: 2  26Mar2024            

=------------------------------------------------------------------------------=
   JOB DONE.
=------------------------------------------------------------------------------=
