
     Program PWSCF v.6.3MaX starts on 26Mar2024 at 12: 5:16 

     This program is part of the open-source Quantum ESPRESSO suite
     for quantum simulation of materials; please cite
         "P. Giannozzi et al., J. Phys.:Condens. Matter 21 395502 (2009);
         "P. Giannozzi et al., J. Phys.:Condens. Matter 29 465901 (2017);
          URL http://www.quantum-espresso.org", 
     in publications or presentations arising from this work. More details at
     http://www.quantum-espresso.org/quote

     Parallel version (MPI), running on     5 processors

     MPI processes distributed on     1 nodes
     R & G space division:  proc/nbgrp/npool/nimage =       5
     Waiting for input...
     Reading input from standard input

     Current dimensions of program PWSCF are:
     Max number of different atomic species (ntypx) = 10
     Max number of k-points (npk) =  40000
     Max angular momentum in pseudopotentials (lmaxx) =  3

     Subspace diagonalization in iterative solution of the eigenvalue problem:
     a serial algorithm will be used


     Parallelization info
     --------------------
     sticks:   dense  smooth     PW     G-vecs:    dense   smooth      PW
     Min         116     116     37                 1836     1836     327
     Max         117     117     38                 1838     1838     329
     Sum         583     583    187                 9185     9185    1639



     bravais-lattice index     =            2
     lattice parameter (alat)  =       7.7100  a.u.
     unit-cell volume          =     114.5785 (a.u.)^3
     number of atoms/cell      =            1
     number of atomic types    =            1
     number of electrons       =        11.00
     number of Kohn-Sham states=           10
     kinetic-energy cutoff     =      70.0000  Ry
     charge density cutoff     =     280.0000  Ry
     convergence threshold     =      1.0E-08
     mixing beta               =       0.7000
     number of iterations used =            8  plain     mixing
     Exchange-correlation      = PBESOL ( 1  4 10  8 0 0)

     celldm(1)=   7.710000  celldm(2)=   0.000000  celldm(3)=   0.000000
     celldm(4)=   0.000000  celldm(5)=   0.000000  celldm(6)=   0.000000

     crystal axes: (cart. coord. in units of alat)
               a(1) = (  -0.500000   0.000000   0.500000 )  
               a(2) = (   0.000000   0.500000   0.500000 )  
               a(3) = (  -0.500000   0.500000   0.000000 )  

     reciprocal axes: (cart. coord. in units 2 pi/alat)
               b(1) = ( -1.000000 -1.000000  1.000000 )  
               b(2) = (  1.000000  1.000000  1.000000 )  
               b(3) = ( -1.000000  1.000000 -1.000000 )  


     PseudoPot. # 1 for Au read from file:
     /home/lorenzo/pseudos/Au/Au.pbesol-n-rrkjus_psl.1.0.0.UPF
     MD5 check sum: 09626e9411213730b9a56fcc59c03ca8
     Pseudo is Ultrasoft + core correction, Zval = 11.0
     Generated using "atomic" code by A. Dal Corso v.6.3
     Using radial grid of 1279 points,  6 beta functions with: 
                l(1) =   0
                l(2) =   0
                l(3) =   1
                l(4) =   1
                l(5) =   2
                l(6) =   2
     Q(r) pseudized with 0 coefficients 


     atomic species   valence    mass     pseudopotential
        Au            11.00   196.96600     Au( 1.00)

     48 Sym. Ops., with inversion, found



   Cartesian axes

     site n.     atom                  positions (alat units)
         1           Au  tau(   1) = (   0.0000000   0.0000000   0.0000000  )

     number of k points=    56  gaussian smearing, width (Ry)=  0.0100
                       cart. coord. in units 2pi/alat
        k(    1) = (   0.0000000   0.0000000   0.0000000), wk =   0.0015026
        k(    2) = (  -0.0909091   0.0909091  -0.0909091), wk =   0.0120210
        k(    3) = (  -0.1818182   0.1818182  -0.1818182), wk =   0.0120210
        k(    4) = (  -0.2727273   0.2727273  -0.2727273), wk =   0.0120210
        k(    5) = (  -0.3636364   0.3636364  -0.3636364), wk =   0.0120210
        k(    6) = (  -0.4545455   0.4545455  -0.4545455), wk =   0.0120210
        k(    7) = (   0.0000000   0.1818182   0.0000000), wk =   0.0090158
        k(    8) = (  -0.0909091   0.2727273  -0.0909091), wk =   0.0360631
        k(    9) = (  -0.1818182   0.3636364  -0.1818182), wk =   0.0360631
        k(   10) = (  -0.2727273   0.4545455  -0.2727273), wk =   0.0360631
        k(   11) = (  -0.3636364   0.5454545  -0.3636364), wk =   0.0360631
        k(   12) = (   0.5454545  -0.3636364   0.5454545), wk =   0.0360631
        k(   13) = (   0.4545455  -0.2727273   0.4545455), wk =   0.0360631
        k(   14) = (   0.3636364  -0.1818182   0.3636364), wk =   0.0360631
        k(   15) = (   0.2727273  -0.0909091   0.2727273), wk =   0.0360631
        k(   16) = (   0.1818182  -0.0000000   0.1818182), wk =   0.0180316
        k(   17) = (   0.0000000   0.3636364   0.0000000), wk =   0.0090158
        k(   18) = (  -0.0909091   0.4545455  -0.0909091), wk =   0.0360631
        k(   19) = (  -0.1818182   0.5454545  -0.1818182), wk =   0.0360631
        k(   20) = (  -0.2727273   0.6363636  -0.2727273), wk =   0.0360631
        k(   21) = (   0.6363636  -0.2727273   0.6363636), wk =   0.0360631
        k(   22) = (   0.5454545  -0.1818182   0.5454545), wk =   0.0360631
        k(   23) = (   0.4545455  -0.0909091   0.4545455), wk =   0.0360631
        k(   24) = (   0.3636364   0.0000000   0.3636364), wk =   0.0180316
        k(   25) = (   0.0000000   0.5454545   0.0000000), wk =   0.0090158
        k(   26) = (  -0.0909091   0.6363636  -0.0909091), wk =   0.0360631
        k(   27) = (  -0.1818182   0.7272727  -0.1818182), wk =   0.0360631
        k(   28) = (   0.7272727  -0.1818182   0.7272727), wk =   0.0360631
        k(   29) = (   0.6363636  -0.0909091   0.6363636), wk =   0.0360631
        k(   30) = (   0.5454545   0.0000000   0.5454545), wk =   0.0180316
        k(   31) = (   0.0000000   0.7272727   0.0000000), wk =   0.0090158
        k(   32) = (  -0.0909091   0.8181818  -0.0909091), wk =   0.0360631
        k(   33) = (   0.8181818  -0.0909091   0.8181818), wk =   0.0360631
        k(   34) = (   0.7272727   0.0000000   0.7272727), wk =   0.0180316
        k(   35) = (   0.0000000   0.9090909   0.0000000), wk =   0.0090158
        k(   36) = (   0.9090909  -0.0000000   0.9090909), wk =   0.0180316
        k(   37) = (  -0.1818182   0.3636364   0.0000000), wk =   0.0360631
        k(   38) = (  -0.2727273   0.4545455  -0.0909091), wk =   0.0721262
        k(   39) = (  -0.3636364   0.5454545  -0.1818182), wk =   0.0721262
        k(   40) = (   0.5454545  -0.3636364   0.7272727), wk =   0.0721262
        k(   41) = (  -0.1818182   0.5454545   0.0000000), wk =   0.0360631
        k(   42) = (  -0.2727273   0.6363636  -0.0909091), wk =   0.0721262
        k(   43) = (   0.6363636  -0.2727273   0.8181818), wk =   0.0721262
        k(   44) = (   0.5454545  -0.1818182   0.7272727), wk =   0.0721262
        k(   45) = (   0.4545455  -0.0909091   0.6363636), wk =   0.0721262
        k(   46) = (   0.3636364   0.0000000   0.5454545), wk =   0.0360631
        k(   47) = (  -0.1818182   0.7272727   0.0000000), wk =   0.0360631
        k(   48) = (   0.7272727  -0.1818182   0.9090909), wk =   0.0721262
        k(   49) = (   0.6363636  -0.0909091   0.8181818), wk =   0.0721262
        k(   50) = (   0.5454545   0.0000000   0.7272727), wk =   0.0360631
        k(   51) = (   0.8181818  -0.0909091   1.0000000), wk =   0.0360631
        k(   52) = (   0.7272727   0.0000000   0.9090909), wk =   0.0360631
        k(   53) = (   0.6363636  -0.2727273   1.0000000), wk =   0.0360631
        k(   54) = (   0.5454545  -0.1818182   0.9090909), wk =   0.0721262
        k(   55) = (   0.6363636  -0.0909091   1.0000000), wk =   0.0360631
        k(   56) = (   0.5454545   0.0000000   0.9090909), wk =   0.0360631

     Dense  grid:     9185 G-vectors     FFT dimensions: (  30,  30,  30)

     Estimated max dynamical RAM per process >      10.45 MB

     Estimated total dynamical RAM >      52.24 MB

     Initial potential from superposition of free atoms

     starting charge   10.99990, renormalised to   11.00000
     Starting wfcs are    9 randomized atomic wfcs +    1 random wfcs

     total cpu time spent up to now is        1.4 secs

     Self-consistent Calculation

     iteration #  1     ecut=    70.00 Ry     beta= 0.70
     Davidson diagonalization with overlap
     ethr =  1.00E-02,  avg # of iterations =  5.3

     Threshold (ethr) on eigenvalues was too large:
     Diagonalizing with lowered threshold

     Davidson diagonalization with overlap
     ethr =  5.67E-04,  avg # of iterations =  1.5

     total cpu time spent up to now is        3.2 secs

     total energy              =     -85.18958466 Ry
     Harris-Foulkes estimate   =     -85.22945361 Ry
     estimated scf accuracy    <       0.06347675 Ry

     iteration #  2     ecut=    70.00 Ry     beta= 0.70
     Davidson diagonalization with overlap
     ethr =  5.77E-04,  avg # of iterations =  4.4

     total cpu time spent up to now is        4.6 secs

     total energy              =     -85.17619661 Ry
     Harris-Foulkes estimate   =     -85.28432749 Ry
     estimated scf accuracy    <      21.66398649 Ry

     iteration #  3     ecut=    70.00 Ry     beta= 0.70
     Davidson diagonalization with overlap
     ethr =  5.77E-04,  avg # of iterations =  4.7

     total cpu time spent up to now is        5.7 secs

     total energy              =     -85.20135611 Ry
     Harris-Foulkes estimate   =     -85.23471563 Ry
     estimated scf accuracy    <       0.93577149 Ry

     iteration #  4     ecut=    70.00 Ry     beta= 0.70
     Davidson diagonalization with overlap
     ethr =  5.77E-04,  avg # of iterations =  3.4

     total cpu time spent up to now is        6.8 secs

     total energy              =     -85.21429874 Ry
     Harris-Foulkes estimate   =     -85.21466782 Ry
     estimated scf accuracy    <       0.12260439 Ry

     iteration #  5     ecut=    70.00 Ry     beta= 0.70
     Davidson diagonalization with overlap
     ethr =  5.77E-04,  avg # of iterations =  1.0

     total cpu time spent up to now is        7.5 secs

     total energy              =     -85.21357854 Ry
     Harris-Foulkes estimate   =     -85.21440288 Ry
     estimated scf accuracy    <       0.11708256 Ry

     iteration #  6     ecut=    70.00 Ry     beta= 0.70
     Davidson diagonalization with overlap
     ethr =  5.77E-04,  avg # of iterations =  1.1

     total cpu time spent up to now is        8.1 secs

     total energy              =     -85.21322409 Ry
     Harris-Foulkes estimate   =     -85.21363637 Ry
     estimated scf accuracy    <       0.09790470 Ry

     iteration #  7     ecut=    70.00 Ry     beta= 0.70
     Davidson diagonalization with overlap
     ethr =  5.77E-04,  avg # of iterations =  1.1

     total cpu time spent up to now is        8.9 secs

     total energy              =     -85.21305419 Ry
     Harris-Foulkes estimate   =     -85.21324790 Ry
     estimated scf accuracy    <       0.09188283 Ry

     iteration #  8     ecut=    70.00 Ry     beta= 0.70
     Davidson diagonalization with overlap
     ethr =  5.77E-04,  avg # of iterations =  1.0

     total cpu time spent up to now is        9.4 secs

     total energy              =     -85.21232549 Ry
     Harris-Foulkes estimate   =     -85.21307092 Ry
     estimated scf accuracy    <       0.08642688 Ry

     iteration #  9     ecut=    70.00 Ry     beta= 0.70
     Davidson diagonalization with overlap
     ethr =  5.77E-04,  avg # of iterations =  1.0

     total cpu time spent up to now is       10.0 secs

     total energy              =     -85.21248454 Ry
     Harris-Foulkes estimate   =     -85.21238754 Ry
     estimated scf accuracy    <       0.07118453 Ry

     iteration # 10     ecut=    70.00 Ry     beta= 0.70
     Davidson diagonalization with overlap
     ethr =  5.77E-04,  avg # of iterations =  1.1

     total cpu time spent up to now is       11.0 secs

     total energy              =     -85.21120248 Ry
     Harris-Foulkes estimate   =     -85.21250188 Ry
     estimated scf accuracy    <       0.07018666 Ry

     iteration # 11     ecut=    70.00 Ry     beta= 0.70
     Davidson diagonalization with overlap
     ethr =  5.77E-04,  avg # of iterations =  1.2

     total cpu time spent up to now is       11.5 secs

     total energy              =     -85.20474432 Ry
     Harris-Foulkes estimate   =     -85.21137950 Ry
     estimated scf accuracy    <       0.04371749 Ry

     iteration # 12     ecut=    70.00 Ry     beta= 0.70
     Davidson diagonalization with overlap
     ethr =  3.97E-04,  avg # of iterations =  3.5

     total cpu time spent up to now is       12.3 secs

     total energy              =     -85.20651726 Ry
     Harris-Foulkes estimate   =     -85.20949902 Ry
     estimated scf accuracy    <       0.00811963 Ry

     iteration # 13     ecut=    70.00 Ry     beta= 0.70
     Davidson diagonalization with overlap
     ethr =  7.38E-05,  avg # of iterations =  4.1

     total cpu time spent up to now is       13.3 secs

     total energy              =     -85.22377396 Ry
     Harris-Foulkes estimate   =     -85.21145732 Ry
     estimated scf accuracy    <       0.04170427 Ry

     iteration # 14     ecut=    70.00 Ry     beta= 0.70
     Davidson diagonalization with overlap
     ethr =  7.38E-05,  avg # of iterations =  4.6

     total cpu time spent up to now is       14.7 secs

     total energy              =     -84.74815605 Ry
     Harris-Foulkes estimate   =     -85.30372395 Ry
     estimated scf accuracy    <      57.86296928 Ry

     iteration # 15     ecut=    70.00 Ry     beta= 0.70
     Davidson diagonalization with overlap
     ethr =  7.38E-05,  avg # of iterations =  6.3

     total cpu time spent up to now is       16.3 secs

     total energy              =     -85.20899653 Ry
     Harris-Foulkes estimate   =     -85.20984879 Ry
     estimated scf accuracy    <       0.01247381 Ry

     iteration # 16     ecut=    70.00 Ry     beta= 0.70
     Davidson diagonalization with overlap
     ethr =  7.38E-05,  avg # of iterations =  2.6

     total cpu time spent up to now is       17.0 secs

     total energy              =     -85.20964622 Ry
     Harris-Foulkes estimate   =     -85.20924349 Ry
     estimated scf accuracy    <       0.00247667 Ry

     iteration # 17     ecut=    70.00 Ry     beta= 0.70
     Davidson diagonalization with overlap
     ethr =  2.25E-05,  avg # of iterations =  3.4

     total cpu time spent up to now is       17.9 secs

     total energy              =     -85.21088708 Ry
     Harris-Foulkes estimate   =     -85.20993680 Ry
     estimated scf accuracy    <       0.01340618 Ry

     iteration # 18     ecut=    70.00 Ry     beta= 0.70
     Davidson diagonalization with overlap
     ethr =  2.25E-05,  avg # of iterations =  3.4

     total cpu time spent up to now is       18.7 secs

     total energy              =     -85.21116831 Ry
     Harris-Foulkes estimate   =     -85.21123036 Ry
     estimated scf accuracy    <       0.03717805 Ry

     iteration # 19     ecut=    70.00 Ry     beta= 0.70
     Davidson diagonalization with overlap
     ethr =  2.25E-05,  avg # of iterations =  1.0

     total cpu time spent up to now is       19.3 secs

     total energy              =     -85.21129510 Ry
     Harris-Foulkes estimate   =     -85.21117095 Ry
     estimated scf accuracy    <       0.03681813 Ry

     iteration # 20     ecut=    70.00 Ry     beta= 0.70
     Davidson diagonalization with overlap
     ethr =  2.25E-05,  avg # of iterations =  1.0

     total cpu time spent up to now is       19.9 secs

     total energy              =     -85.21164525 Ry
     Harris-Foulkes estimate   =     -85.21129639 Ry
     estimated scf accuracy    <       0.03787863 Ry

     iteration # 21     ecut=    70.00 Ry     beta= 0.70
     Davidson diagonalization with overlap
     ethr =  2.25E-05,  avg # of iterations =  1.5

     total cpu time spent up to now is       20.5 secs

     total energy              =     -85.21300651 Ry
     Harris-Foulkes estimate   =     -85.21166328 Ry
     estimated scf accuracy    <       0.04471340 Ry

     iteration # 22     ecut=    70.00 Ry     beta= 0.70
     Davidson diagonalization with overlap
     ethr =  2.25E-05,  avg # of iterations =  3.5

     total cpu time spent up to now is       21.3 secs

     total energy              =     -85.21413684 Ry
     Harris-Foulkes estimate   =     -85.21325153 Ry
     estimated scf accuracy    <       0.08073341 Ry

     iteration # 23     ecut=    70.00 Ry     beta= 0.70
     Davidson diagonalization with overlap
     ethr =  2.25E-05,  avg # of iterations =  2.4

     total cpu time spent up to now is       22.1 secs

     total energy              =     -85.20575947 Ry
     Harris-Foulkes estimate   =     -85.21419747 Ry
     estimated scf accuracy    <       0.10255296 Ry

     iteration # 24     ecut=    70.00 Ry     beta= 0.70
     Davidson diagonalization with overlap
     ethr =  2.25E-05,  avg # of iterations =  4.2

     total cpu time spent up to now is       23.7 secs

     total energy              =     -85.20942485 Ry
     Harris-Foulkes estimate   =     -85.20937928 Ry
     estimated scf accuracy    <       0.00434631 Ry

     iteration # 25     ecut=    70.00 Ry     beta= 0.70
     Davidson diagonalization with overlap
     ethr =  2.25E-05,  avg # of iterations =  1.0

     total cpu time spent up to now is       24.3 secs

     total energy              =     -85.20942340 Ry
     Harris-Foulkes estimate   =     -85.20942725 Ry
     estimated scf accuracy    <       0.00489097 Ry

     iteration # 26     ecut=    70.00 Ry     beta= 0.70
     Davidson diagonalization with overlap
     ethr =  2.25E-05,  avg # of iterations =  1.0

     total cpu time spent up to now is       24.9 secs

     total energy              =     -85.20910905 Ry
     Harris-Foulkes estimate   =     -85.20942373 Ry
     estimated scf accuracy    <       0.00493642 Ry

     iteration # 27     ecut=    70.00 Ry     beta= 0.70
     Davidson diagonalization with overlap
     ethr =  2.25E-05,  avg # of iterations =  2.0

     total cpu time spent up to now is       25.7 secs

     total energy              =     -85.20923349 Ry
     Harris-Foulkes estimate   =     -85.20919170 Ry
     estimated scf accuracy    <       0.00110030 Ry

     iteration # 28     ecut=    70.00 Ry     beta= 0.70
     Davidson diagonalization with overlap
     ethr =  1.00E-05,  avg # of iterations =  1.2

     total cpu time spent up to now is       26.3 secs

     total energy              =     -85.20913397 Ry
     Harris-Foulkes estimate   =     -85.20923945 Ry
     estimated scf accuracy    <       0.00155472 Ry

     iteration # 29     ecut=    70.00 Ry     beta= 0.70
     Davidson diagonalization with overlap
     ethr =  1.00E-05,  avg # of iterations =  2.2

     total cpu time spent up to now is       27.0 secs

     total energy              =     -85.20917407 Ry
     Harris-Foulkes estimate   =     -85.20915316 Ry
     estimated scf accuracy    <       0.00059783 Ry

     iteration # 30     ecut=    70.00 Ry     beta= 0.70
     Davidson diagonalization with overlap
     ethr =  5.43E-06,  avg # of iterations =  1.1

     total cpu time spent up to now is       27.7 secs

     total energy              =     -85.20916179 Ry
     Harris-Foulkes estimate   =     -85.20917699 Ry
     estimated scf accuracy    <       0.00070793 Ry

     iteration # 31     ecut=    70.00 Ry     beta= 0.70
     Davidson diagonalization with overlap
     ethr =  5.43E-06,  avg # of iterations =  1.0

     total cpu time spent up to now is       28.5 secs

     total energy              =     -85.20904211 Ry
     Harris-Foulkes estimate   =     -85.20916281 Ry
     estimated scf accuracy    <       0.00060508 Ry

     iteration # 32     ecut=    70.00 Ry     beta= 0.70
     Davidson diagonalization with overlap
     ethr =  5.43E-06,  avg # of iterations =  3.3

     total cpu time spent up to now is       29.5 secs

     total energy              =     -85.20919664 Ry
     Harris-Foulkes estimate   =     -85.20916142 Ry
     estimated scf accuracy    <       0.00052121 Ry

     iteration # 33     ecut=    70.00 Ry     beta= 0.70
     Davidson diagonalization with overlap
     ethr =  4.74E-06,  avg # of iterations =  2.0

     total cpu time spent up to now is       30.1 secs

     total energy              =     -85.20917361 Ry
     Harris-Foulkes estimate   =     -85.20920918 Ry
     estimated scf accuracy    <       0.00143414 Ry

     iteration # 34     ecut=    70.00 Ry     beta= 0.70
     Davidson diagonalization with overlap
     ethr =  4.74E-06,  avg # of iterations =  1.6

     total cpu time spent up to now is       30.8 secs

     total energy              =     -85.20916841 Ry
     Harris-Foulkes estimate   =     -85.20917709 Ry
     estimated scf accuracy    <       0.00103255 Ry

     iteration # 35     ecut=    70.00 Ry     beta= 0.70
     Davidson diagonalization with overlap
     ethr =  4.74E-06,  avg # of iterations =  1.0

     total cpu time spent up to now is       31.4 secs

     total energy              =     -85.20907239 Ry
     Harris-Foulkes estimate   =     -85.20916960 Ry
     estimated scf accuracy    <       0.00089710 Ry

     iteration # 36     ecut=    70.00 Ry     beta= 0.70
     Davidson diagonalization with overlap
     ethr =  4.74E-06,  avg # of iterations =  3.2

     total cpu time spent up to now is       32.1 secs

     total energy              =     -85.20913415 Ry
     Harris-Foulkes estimate   =     -85.20913584 Ry
     estimated scf accuracy    <       0.00002006 Ry

     iteration # 37     ecut=    70.00 Ry     beta= 0.70
     Davidson diagonalization with overlap
     ethr =  1.82E-07,  avg # of iterations =  1.4

     total cpu time spent up to now is       32.6 secs

     total energy              =     -85.20913552 Ry
     Harris-Foulkes estimate   =     -85.20913497 Ry
     estimated scf accuracy    <       0.00000593 Ry

     iteration # 38     ecut=    70.00 Ry     beta= 0.70
     Davidson diagonalization with overlap
     ethr =  5.39E-08,  avg # of iterations =  1.1

     total cpu time spent up to now is       33.2 secs

     total energy              =     -85.20913615 Ry
     Harris-Foulkes estimate   =     -85.20913564 Ry
     estimated scf accuracy    <       0.00000822 Ry

     iteration # 39     ecut=    70.00 Ry     beta= 0.70
     Davidson diagonalization with overlap
     ethr =  5.39E-08,  avg # of iterations =  1.4

     total cpu time spent up to now is       33.8 secs

     total energy              =     -85.20913501 Ry
     Harris-Foulkes estimate   =     -85.20913640 Ry
     estimated scf accuracy    <       0.00002144 Ry

     iteration # 40     ecut=    70.00 Ry     beta= 0.70
     Davidson diagonalization with overlap
     ethr =  5.39E-08,  avg # of iterations =  1.4

     total cpu time spent up to now is       34.4 secs

     total energy              =     -85.20913471 Ry
     Harris-Foulkes estimate   =     -85.20913528 Ry
     estimated scf accuracy    <       0.00000900 Ry

     iteration # 41     ecut=    70.00 Ry     beta= 0.70
     Davidson diagonalization with overlap
     ethr =  5.39E-08,  avg # of iterations =  1.2

     total cpu time spent up to now is       35.0 secs

     total energy              =     -85.20913495 Ry
     Harris-Foulkes estimate   =     -85.20913495 Ry
     estimated scf accuracy    <       0.00000251 Ry

     iteration # 42     ecut=    70.00 Ry     beta= 0.70
     Davidson diagonalization with overlap
     ethr =  2.28E-08,  avg # of iterations =  1.1

     total cpu time spent up to now is       35.6 secs

     total energy              =     -85.20913495 Ry
     Harris-Foulkes estimate   =     -85.20913502 Ry
     estimated scf accuracy    <       0.00000179 Ry

     iteration # 43     ecut=    70.00 Ry     beta= 0.70
     Davidson diagonalization with overlap
     ethr =  1.63E-08,  avg # of iterations =  1.3

     total cpu time spent up to now is       36.2 secs

     total energy              =     -85.20913502 Ry
     Harris-Foulkes estimate   =     -85.20913502 Ry
     estimated scf accuracy    <       0.00000035 Ry

     iteration # 44     ecut=    70.00 Ry     beta= 0.70
     Davidson diagonalization with overlap
     ethr =  3.21E-09,  avg # of iterations =  2.2

     total cpu time spent up to now is       36.8 secs

     total energy              =     -85.20913505 Ry
     Harris-Foulkes estimate   =     -85.20913506 Ry
     estimated scf accuracy    <       0.00000006 Ry

     iteration # 45     ecut=    70.00 Ry     beta= 0.70
     Davidson diagonalization with overlap
     ethr =  5.21E-10,  avg # of iterations =  3.0

     total cpu time spent up to now is       37.5 secs

     End of self-consistent calculation

          k = 0.0000 0.0000 0.0000 (  1139 PWs)   bands (ev):

     5.8352  11.1265  11.1265  11.1265  12.6692  12.6692  31.1412  35.0009
    35.0009  35.0009

          k =-0.0909 0.0909-0.0909 (  1134 PWs)   bands (ev):

     6.1216  11.0358  11.2233  11.2233  12.6292  12.6292  31.4251  33.1861
    35.2776  35.2776

          k =-0.1818 0.1818-0.1818 (  1143 PWs)   bands (ev):

     6.9101  10.8848  11.3982  11.3982  12.6343  12.6343  29.7594  32.2295
    35.8831  35.8831

          k =-0.2727 0.2727-0.2727 (  1128 PWs)   bands (ev):

     7.8698  11.1023  11.3857  11.3857  12.9485  12.9485  26.1866  31.9177
    35.7848  35.7848

          k =-0.3636 0.3636-0.3636 (  1143 PWs)   bands (ev):

     8.3692  11.2257  11.2257  12.3525  13.4620  13.4620  22.5519  31.0460
    34.4782  34.4782

          k =-0.4545 0.4545-0.4545 (  1143 PWs)   bands (ev):

     8.4451  11.1054  11.1054  13.8339  13.8339  14.2814  19.5246  30.4943
    33.4944  33.4944

          k = 0.0000 0.1818 0.0000 (  1147 PWs)   bands (ev):

     6.2181  10.9296  11.3019  11.3019  12.4599  12.7553  31.5803  33.7727
    34.5579  34.5579

          k =-0.0909 0.2727-0.0909 (  1138 PWs)   bands (ev):

     6.8480  10.7268  11.4923  11.5076  12.3164  12.8487  31.0276  32.2921
    34.1385  35.3811

          k =-0.1818 0.3636-0.1818 (  1131 PWs)   bands (ev):

     7.8062  10.6755  11.4302  11.5884  12.6540  13.1200  27.5602  32.2639
    33.6340  35.8446

          k =-0.2727 0.4545-0.2727 (  1134 PWs)   bands (ev):

     8.4997  11.1669  11.3110  11.4689  13.5327  13.5657  23.8540  31.4520
    32.9381  34.4515

          k =-0.3636 0.5455-0.3636 (  1138 PWs)   bands (ev):

     8.6508  10.9915  11.3161  12.4283  13.8780  14.9337  20.4581  30.7411
    32.5427  32.9420

          k = 0.5455-0.3636 0.5455 (  1134 PWs)   bands (ev):

     8.6596  10.9580  11.2506  12.9042  13.8157  15.9230  18.9843  30.4714
    32.0997  32.9802

          k = 0.4545-0.2727 0.4545 (  1138 PWs)   bands (ev):

     8.6467  11.0698  11.3152  12.2439  13.3742  14.6394  21.5518  30.6611
    32.2239  34.4203

          k = 0.3636-0.1818 0.3636 (  1130 PWs)   bands (ev):

     8.3536  11.0241  11.3497  11.4824  12.7648  13.7303  25.0930  31.1813
    33.2280  36.7107

          k = 0.2727-0.0909 0.2727 (  1135 PWs)   bands (ev):

     7.4785  10.7133  11.4620  11.5732  12.3459  13.0990  28.7138  31.6808
    34.4279  36.3959

          k = 0.1818-0.0000 0.1818 (  1143 PWs)   bands (ev):

     6.5817  10.8690  11.3660  11.3939  12.4238  12.7691  31.7032  31.7363
    34.3411  36.4680

          k = 0.0000 0.3636 0.0000 (  1134 PWs)   bands (ev):

     7.2833  10.4340  11.8115  11.8115  11.9854  12.9914  32.5173  32.7068
    32.7613  32.7613

          k =-0.0909 0.4545-0.0909 (  1128 PWs)   bands (ev):

     8.0917  10.1985  11.5435  12.0505  12.5374  13.2256  29.1988  31.6750
    32.5575  33.7999

          k =-0.1818 0.5455-0.1818 (  1125 PWs)   bands (ev):

     8.8670  10.3049  11.1810  12.0147  13.6406  13.7105  25.3828  30.9155
    31.2290  33.2292

          k =-0.2727 0.6364-0.2727 (  1131 PWs)   bands (ev):

     9.1098  10.6791  11.2796  11.8538  13.9314  15.4691  21.7709  29.7887
    30.7207  32.5675

          k = 0.6364-0.2727 0.6364 (  1133 PWs)   bands (ev):

     9.1715  10.6412  11.7253  11.8399  13.8343  17.6083  18.9550  28.6412
    31.3695  32.1025

          k = 0.5455-0.1818 0.5455 (  1134 PWs)   bands (ev):

     9.2492  10.7293  11.6828  11.7056  13.3479  16.2842  21.0005  28.0406
    32.1315  32.9188

          k = 0.4545-0.0909 0.4545 (  1127 PWs)   bands (ev):

     9.1744  10.7359  11.1054  11.8190  12.6698  14.9001  24.2948  28.1688
    32.7662  35.1471

          k = 0.3636 0.0000 0.3636 (  1133 PWs)   bands (ev):

     8.4227  10.5074  11.3255  12.0166  12.0577  13.8779  27.2871  29.2888
    34.0094  35.7740

          k = 0.0000 0.5455 0.0000 (  1122 PWs)   bands (ev):

     8.5472   9.8440  11.9061  12.5904  12.5904  13.3129  30.0957  30.0957
    31.1487  32.3646

          k =-0.0909 0.6364-0.0909 (  1124 PWs)   bands (ev):

     8.9900   9.6698  11.8926  12.7610  13.6525  13.6979  26.8610  29.0426
    29.2174  33.1647

          k =-0.1818 0.7273-0.1818 (  1125 PWs)   bands (ev):

     9.2291   9.8625  11.7044  12.6221  13.9761  15.6823  23.2420  27.5312
    28.7397  33.3215

          k = 0.7273-0.1818 0.7273 (  1128 PWs)   bands (ev):

     9.3930  10.2293  11.5526  12.4378  13.8943  18.2070  20.1841  26.0048
    29.3731  33.0690

          k = 0.6364-0.0909 0.6364 (  1133 PWs)   bands (ev):

     9.6570  10.5122  11.2614  12.2878  13.4312  17.8416  21.1545  24.8624
    30.8851  32.8220

          k = 0.5455 0.0000 0.5455 (  1129 PWs)   bands (ev):

     9.8245  10.6971  10.7982  12.1421  12.8823  16.2248  23.7059  25.0541
    32.7361  32.9654

          k = 0.0000 0.7273 0.0000 (  1126 PWs)   bands (ev):

     8.8947   9.3493  13.4740  13.4740  13.4940  13.6218  26.3633  27.6564
    27.6564  32.4352

          k =-0.0909 0.8182-0.0909 (  1125 PWs)   bands (ev):

     8.9375   9.2884  13.0821  13.4169  14.0054  15.6824  23.7727  26.1469
    27.0800  33.3103

          k = 0.8182-0.0909 0.8182 (  1138 PWs)   bands (ev):

     9.1164   9.5675  12.5092  13.1951  14.0021  18.2685  21.3160  24.3753
    27.5384  33.7544

          k = 0.7273 0.0000 0.7273 (  1135 PWs)   bands (ev):

     9.4082  10.0919  11.7733  12.8427  13.6829  19.3209  20.9666  23.0478
    28.9319  33.4414

          k = 0.0000 0.9091 0.0000 (  1138 PWs)   bands (ev):

     8.7287   9.0732  13.8122  14.1221  14.1221  16.1009  22.3737  26.1701
    26.1701  32.7452

          k = 0.9091-0.0000 0.9091 (  1134 PWs)   bands (ev):

     8.8187   9.1507  13.6190  13.6874  14.1558  17.5621  21.3451  25.1817
    26.3396  33.4647

          k =-0.1818 0.3636 0.0000 (  1134 PWs)   bands (ev):

     7.5919  10.4896  11.5066  11.8180  12.2335  13.1496  29.7371  31.1402
    34.2530  34.6346

          k =-0.2727 0.4545-0.0909 (  1134 PWs)   bands (ev):

     8.5391  10.4586  11.2226  11.9056  12.6431  13.8223  26.5317  30.1654
    32.8543  35.2767

          k =-0.3636 0.5455-0.1818 (  1134 PWs)   bands (ev):

     9.0096  10.9146  11.1165  11.7590  13.3503  14.8750  22.9260  29.7234
    31.4477  34.3243

          k = 0.5455-0.3636 0.7273 (  1128 PWs)   bands (ev):

     9.0461  10.7306  11.5866  11.9897  13.7540  16.5682  19.7331  29.7944
    30.4295  33.2750

          k =-0.1818 0.5455 0.0000 (  1128 PWs)   bands (ev):

     8.8225   9.9763  11.3293  12.5845  12.7360  13.8020  27.6952  29.1231
    31.2650  35.0121

          k =-0.2727 0.6364-0.0909 (  1135 PWs)   bands (ev):

     9.3682  10.1061  11.0574  12.5062  13.4308  15.0221  24.4281  28.1104
    29.6752  34.6703

          k = 0.6364-0.2727 0.8182 (  1132 PWs)   bands (ev):

     9.4933  10.3982  11.1501  12.2910  13.8010  16.9669  21.1249  27.6729
    28.7216  34.1673

          k = 0.5455-0.1818 0.7273 (  1132 PWs)   bands (ev):

     9.6203  10.3869  11.3769  12.1266  13.6916  18.3789  19.5465  26.7809
    29.2818  34.0881

          k = 0.4545-0.0909 0.6364 (  1136 PWs)   bands (ev):

     9.7472  10.5274  10.8648  12.2212  13.2448  16.3658  22.5413  26.3355
    30.4519  34.7749

          k = 0.3636 0.0000 0.5455 (  1129 PWs)   bands (ev):

     9.4562  10.3214  10.8658  12.3471  12.6228  14.9454  25.2747  27.1972
    31.6947  36.1893

          k =-0.1818 0.7273 0.0000 (  1139 PWs)   bands (ev):

     9.1766   9.5341  12.0064  13.3986  13.4681  15.1000  25.1532  26.9451
    27.7714  34.3650

          k = 0.7273-0.1818 0.9091 (  1134 PWs)   bands (ev):

     9.3515   9.7394  11.7755  13.0723  13.9133  17.1890  22.4807  25.5848
    27.0807  34.9107

          k = 0.6364-0.0909 0.8182 (  1135 PWs)   bands (ev):

     9.5766  10.1427  11.4318  12.6948  13.8536  19.4161  20.4212  24.1346
    27.7637  34.8062

          k = 0.5455 0.0000 0.7273 (  1136 PWs)   bands (ev):

     9.9174  10.4415  10.8919  12.4811  13.4919  17.9245  22.9353  23.0696
    29.0977  34.7872

          k = 0.8182-0.0909 1.0000 (  1133 PWs)   bands (ev):

     8.9871   9.2845  12.9361  13.5704  14.1215  17.4052  22.0589  25.5528
    25.8425  34.4089

          k = 0.7273 0.0000 0.9091 (  1134 PWs)   bands (ev):

     9.2382   9.6057  12.2808  13.1578  14.1153  19.4630  20.7023  23.9515
    26.3879  35.1486

          k = 0.6364-0.2727 1.0000 (  1133 PWs)   bands (ev):

     9.8911  10.0718  10.7948  12.8546  13.4603  16.6140  23.6101  25.2151
    28.2409  36.6476

          k = 0.5455-0.1818 0.9091 (  1135 PWs)   bands (ev):

     9.9996  10.2332  10.8363  12.5634  13.8262  18.5772  21.3363  24.7445
    27.1005  36.4044

          k = 0.6364-0.0909 1.0000 (  1134 PWs)   bands (ev):

     9.6004   9.9128  11.4637  12.8690  14.1193  19.1362  21.8230  23.9276
    25.5912  37.6755

          k = 0.5455 0.0000 0.9091 (  1139 PWs)   bands (ev):

     9.8174  10.3507  10.9352  12.5616  14.1158  20.0535  21.7549  22.7054
    25.8118  37.5513

     the Fermi energy is    15.8258 ev

!    total energy              =     -85.20913507 Ry
     Harris-Foulkes estimate   =     -85.20913506 Ry
     estimated scf accuracy    <          3.7E-09 Ry

     The total energy is the sum of the following terms:

     one-electron contribution =      11.01525107 Ry
     hartree contribution      =       7.53514924 Ry
     xc contribution           =     -31.80502146 Ry
     ewald contribution        =     -71.95438534 Ry
     smearing contrib. (-TS)   =      -0.00012858 Ry

     convergence has been achieved in  45 iterations

     Forces acting on atoms (cartesian axes, Ry/au):

     atom    1 type  1   force =     0.00000000    0.00000000    0.00000000

     Total force =     0.000000     Total SCF correction =     0.000000


     Computing stress (Cartesian axis) and pressure

          total   stress  (Ry/bohr**3)                   (kbar)     P=   13.52
   0.00009190   0.00000000   0.00000000         13.52      0.00      0.00
   0.00000000   0.00009190  -0.00000000          0.00     13.52     -0.00
   0.00000000  -0.00000000   0.00009190          0.00     -0.00     13.52


     Writing output data file Au.save/

     init_run     :      0.49s CPU      0.51s WALL (       1 calls)
     electrons    :     34.78s CPU     36.07s WALL (       1 calls)
     forces       :      0.08s CPU      0.09s WALL (       1 calls)
     stress       :      0.23s CPU      0.23s WALL (       1 calls)

     Called by init_run:
     wfcinit      :      0.27s CPU      0.29s WALL (       1 calls)
     potinit      :      0.01s CPU      0.01s WALL (       1 calls)
     hinit0       :      0.19s CPU      0.19s WALL (       1 calls)

     Called by electrons:
     c_bands      :     28.51s CPU     29.60s WALL (      46 calls)
     sum_band     :      5.49s CPU      5.67s WALL (      46 calls)
     v_of_rho     :      0.27s CPU      0.28s WALL (      46 calls)
     newd         :      0.46s CPU      0.46s WALL (      46 calls)
     mix_rho      :      0.05s CPU      0.05s WALL (      46 calls)

     Called by c_bands:
     init_us_2    :      0.79s CPU      0.82s WALL (    5320 calls)
     cegterg      :     27.21s CPU     28.26s WALL (    2576 calls)

     Called by sum_band:
     sum_band:bec :      0.03s CPU      0.03s WALL (    2576 calls)
     addusdens    :      0.40s CPU      0.41s WALL (      46 calls)

     Called by *egterg:
     h_psi        :     20.94s CPU     21.80s WALL (    8391 calls)
     s_psi        :      0.59s CPU      0.62s WALL (    8391 calls)
     g_psi        :      0.06s CPU      0.06s WALL (    5759 calls)
     cdiaghg      :      2.10s CPU      2.17s WALL (    8279 calls)

     Called by h_psi:
     h_psi:pot    :     20.84s CPU     21.69s WALL (    8391 calls)
     h_psi:calbec :      1.14s CPU      1.18s WALL (    8391 calls)
     vloc_psi     :     19.03s CPU     19.82s WALL (    8391 calls)
     add_vuspsi   :      0.60s CPU      0.63s WALL (    8391 calls)

     General routines
     calbec       :      1.59s CPU      1.65s WALL (   11247 calls)
     fft          :      0.16s CPU      0.17s WALL (     533 calls)
     ffts         :      0.01s CPU      0.01s WALL (      46 calls)
     fftw         :     21.76s CPU     22.63s WALL (  153180 calls)

     Parallel routines
     fft_scatt_xy :      1.65s CPU      1.72s WALL (  153759 calls)
     fft_scatt_yz :      7.60s CPU      7.87s WALL (  153759 calls)

     PWSCF        :    36.55s CPU        37.96s WALL


   This run was terminated on:  12: 5:54  26Mar2024            

=------------------------------------------------------------------------------=
   JOB DONE.
=------------------------------------------------------------------------------=
