
     Program PWSCF v.6.3MaX starts on 26Mar2024 at 11:19: 3 

     This program is part of the open-source Quantum ESPRESSO suite
     for quantum simulation of materials; please cite
         "P. Giannozzi et al., J. Phys.:Condens. Matter 21 395502 (2009);
         "P. Giannozzi et al., J. Phys.:Condens. Matter 29 465901 (2017);
          URL http://www.quantum-espresso.org", 
     in publications or presentations arising from this work. More details at
     http://www.quantum-espresso.org/quote

     Parallel version (MPI), running on     5 processors

     MPI processes distributed on     1 nodes
     R & G space division:  proc/nbgrp/npool/nimage =       5
     Waiting for input...
     Reading input from standard input

     Current dimensions of program PWSCF are:
     Max number of different atomic species (ntypx) = 10
     Max number of k-points (npk) =  40000
     Max angular momentum in pseudopotentials (lmaxx) =  3

     Subspace diagonalization in iterative solution of the eigenvalue problem:
     a serial algorithm will be used


     Parallelization info
     --------------------
     sticks:   dense  smooth     PW     G-vecs:    dense   smooth      PW
     Min          32      32     12                  280      280      66
     Max          33      33     13                  283      283      67
     Sum         163     163     61                 1411     1411     331



     bravais-lattice index     =            2
     lattice parameter (alat)  =       7.7100  a.u.
     unit-cell volume          =     114.5785 (a.u.)^3
     number of atoms/cell      =            1
     number of atomic types    =            1
     number of electrons       =        11.00
     number of Kohn-Sham states=           10
     kinetic-energy cutoff     =      20.0000  Ry
     charge density cutoff     =      80.0000  Ry
     convergence threshold     =      1.0E-08
     mixing beta               =       0.7000
     number of iterations used =            8  plain     mixing
     Exchange-correlation      = PBE ( 1  4  3  4 0 0)

     celldm(1)=   7.710000  celldm(2)=   0.000000  celldm(3)=   0.000000
     celldm(4)=   0.000000  celldm(5)=   0.000000  celldm(6)=   0.000000

     crystal axes: (cart. coord. in units of alat)
               a(1) = (  -0.500000   0.000000   0.500000 )  
               a(2) = (   0.000000   0.500000   0.500000 )  
               a(3) = (  -0.500000   0.500000   0.000000 )  

     reciprocal axes: (cart. coord. in units 2 pi/alat)
               b(1) = ( -1.000000 -1.000000  1.000000 )  
               b(2) = (  1.000000  1.000000  1.000000 )  
               b(3) = ( -1.000000  1.000000 -1.000000 )  


     PseudoPot. # 1 for Au read from file:
     /home/lorenzo/pseudos/Au/Au.pbe-n-rrkjus_psl.1.0.0.UPF
     MD5 check sum: d7e77ba19504afed2c9b41c931dde4f0
     Pseudo is Ultrasoft + core correction, Zval = 11.0
     Generated using "atomic" code by A. Dal Corso v.6.3
     Using radial grid of 1279 points,  6 beta functions with: 
                l(1) =   0
                l(2) =   0
                l(3) =   1
                l(4) =   1
                l(5) =   2
                l(6) =   2
     Q(r) pseudized with 0 coefficients 


     atomic species   valence    mass     pseudopotential
        Au            11.00   196.96600     Au( 1.00)

     48 Sym. Ops., with inversion, found



   Cartesian axes

     site n.     atom                  positions (alat units)
         1           Au  tau(   1) = (   0.0000000   0.0000000   0.0000000  )

     number of k points=    10  gaussian smearing, width (Ry)=  0.0100
                       cart. coord. in units 2pi/alat
        k(    1) = (   0.0000000   0.0000000   0.0000000), wk =   0.0160000
        k(    2) = (  -0.2000000   0.2000000  -0.2000000), wk =   0.1280000
        k(    3) = (  -0.4000000   0.4000000  -0.4000000), wk =   0.1280000
        k(    4) = (   0.0000000   0.4000000   0.0000000), wk =   0.0960000
        k(    5) = (  -0.2000000   0.6000000  -0.2000000), wk =   0.3840000
        k(    6) = (   0.6000000  -0.2000000   0.6000000), wk =   0.3840000
        k(    7) = (   0.4000000   0.0000000   0.4000000), wk =   0.1920000
        k(    8) = (   0.0000000   0.8000000   0.0000000), wk =   0.0960000
        k(    9) = (   0.8000000   0.0000000   0.8000000), wk =   0.1920000
        k(   10) = (   0.6000000  -0.2000000   1.0000000), wk =   0.3840000

     Dense  grid:     1411 G-vectors     FFT dimensions: (  15,  15,  15)

     Estimated max dynamical RAM per process >       1.98 MB

     Estimated total dynamical RAM >       9.88 MB

     Initial potential from superposition of free atoms

     starting charge   10.99989, renormalised to   11.00000
     Starting wfcs are    9 randomized atomic wfcs +    1 random wfcs

     total cpu time spent up to now is        1.0 secs

     Self-consistent Calculation

     iteration #  1     ecut=    20.00 Ry     beta= 0.70
     Davidson diagonalization with overlap
     ethr =  1.00E-02,  avg # of iterations =  5.0

     Threshold (ethr) on eigenvalues was too large:
     Diagonalizing with lowered threshold

     Davidson diagonalization with overlap
     ethr =  4.92E-04,  avg # of iterations =  1.0

     total cpu time spent up to now is        1.1 secs

     total energy              =     -85.35584470 Ry
     Harris-Foulkes estimate   =     -85.39120120 Ry
     estimated scf accuracy    <       0.05554296 Ry

     iteration #  2     ecut=    20.00 Ry     beta= 0.70
     Davidson diagonalization with overlap
     ethr =  5.05E-04,  avg # of iterations =  2.0

     total cpu time spent up to now is        1.1 secs

     total energy              =     -85.37027504 Ry
     Harris-Foulkes estimate   =     -85.37570250 Ry
     estimated scf accuracy    <       0.00878545 Ry

     iteration #  3     ecut=    20.00 Ry     beta= 0.70
     Davidson diagonalization with overlap
     ethr =  7.99E-05,  avg # of iterations =  1.8

     total cpu time spent up to now is        1.1 secs

     total energy              =     -85.37210627 Ry
     Harris-Foulkes estimate   =     -85.37211803 Ry
     estimated scf accuracy    <       0.00006351 Ry

     iteration #  4     ecut=    20.00 Ry     beta= 0.70
     Davidson diagonalization with overlap
     ethr =  5.77E-07,  avg # of iterations =  3.4

     total cpu time spent up to now is        1.2 secs

     total energy              =     -85.37218631 Ry
     Harris-Foulkes estimate   =     -85.37220892 Ry
     estimated scf accuracy    <       0.00004379 Ry

     iteration #  5     ecut=    20.00 Ry     beta= 0.70
     Davidson diagonalization with overlap
     ethr =  3.98E-07,  avg # of iterations =  1.1

     total cpu time spent up to now is        1.2 secs

     total energy              =     -85.37219017 Ry
     Harris-Foulkes estimate   =     -85.37219161 Ry
     estimated scf accuracy    <       0.00000266 Ry

     iteration #  6     ecut=    20.00 Ry     beta= 0.70
     Davidson diagonalization with overlap
     ethr =  2.42E-08,  avg # of iterations =  2.3

     total cpu time spent up to now is        1.2 secs

     total energy              =     -85.37219114 Ry
     Harris-Foulkes estimate   =     -85.37219114 Ry
     estimated scf accuracy    <       0.00000001 Ry

     iteration #  7     ecut=    20.00 Ry     beta= 0.70
     Davidson diagonalization with overlap
     ethr =  9.63E-11,  avg # of iterations =  3.0

     total cpu time spent up to now is        1.3 secs

     total energy              =     -85.37219114 Ry
     Harris-Foulkes estimate   =     -85.37219115 Ry
     estimated scf accuracy    <       0.00000002 Ry

     iteration #  8     ecut=    20.00 Ry     beta= 0.70
     Davidson diagonalization with overlap
     ethr =  9.63E-11,  avg # of iterations =  1.4

     total cpu time spent up to now is        1.3 secs

     End of self-consistent calculation

          k = 0.0000 0.0000 0.0000 (   169 PWs)   bands (ev):

     6.1309  11.2617  11.2617  11.2617  12.7966  12.7966  31.4544  35.2925
    35.2925  35.2925

          k =-0.2000 0.2000-0.2000 (   171 PWs)   bands (ev):

     7.3980  11.0370  11.5520  11.5520  12.8043  12.8043  29.5840  32.6968
    36.4950  36.4950

          k =-0.4000 0.4000-0.4000 (   174 PWs)   bands (ev):

     8.6461  11.3098  11.3098  13.3904  13.7939  13.7939  21.5822  31.1374
    34.3121  34.3121

          k = 0.0000 0.4000 0.0000 (   169 PWs)   bands (ev):

     7.8437  10.4664  12.0615  12.0916  12.0916  13.1850  32.7620  32.7620
    33.0439  33.6151

          k =-0.2000 0.6000-0.2000 (   171 PWs)   bands (ev):

     9.3108  10.4982  11.3332  12.2412  13.9869  14.5798  24.5909  30.8026
    31.0603  33.7094

          k = 0.6000-0.2000 0.6000 (   176 PWs)   bands (ev):

     9.5280  10.7770  11.8965  11.9578  13.7277  17.6790  20.1221  28.1589
    32.3676  32.7653

          k = 0.4000 0.0000 0.4000 (   170 PWs)   bands (ev):

     9.0866  10.6483  11.3826  12.1875  12.3185  14.4351  26.8527  29.1356
    33.9902  36.7289

          k = 0.0000 0.8000 0.0000 (   170 PWs)   bands (ev):

     9.0560   9.3796  13.8871  13.9705  13.9705  14.8011  25.0631  27.2414
    27.2414  33.6941

          k = 0.8000 0.0000 0.8000 (   180 PWs)   bands (ev):

     9.3462   9.8181  12.6231  13.3653  14.0544  19.8082  20.7135  24.1922
    28.0413  34.8904

          k = 0.6000-0.2000 1.0000 (   171 PWs)   bands (ev):

    10.0966  10.3244  11.0299  12.9635  13.9400  18.1165  23.2395  24.6191
    27.8982  37.6585

     the Fermi energy is    14.8265 ev

!    total energy              =     -85.37219114 Ry
     Harris-Foulkes estimate   =     -85.37219114 Ry
     estimated scf accuracy    <          1.8E-09 Ry

     The total energy is the sum of the following terms:

     one-electron contribution =      11.10881789 Ry
     hartree contribution      =       7.56051019 Ry
     xc contribution           =     -32.08683171 Ry
     ewald contribution        =     -71.95438536 Ry
     smearing contrib. (-TS)   =      -0.00030214 Ry

     convergence has been achieved in   8 iterations

     Forces acting on atoms (cartesian axes, Ry/au):

     atom    1 type  1   force =     0.00000000    0.00000000    0.00000000

     Total force =     0.000000     Total SCF correction =     0.000000


     Computing stress (Cartesian axis) and pressure

          total   stress  (Ry/bohr**3)                   (kbar)     P=  -24.10
  -0.00016384  -0.00000000  -0.00000000        -24.10     -0.00     -0.00
  -0.00000000  -0.00016384   0.00000000         -0.00    -24.10      0.00
  -0.00000000   0.00000000  -0.00016384         -0.00      0.00    -24.10


     Writing output data file Au.save/

     init_run     :      0.10s CPU      0.10s WALL (       1 calls)
     electrons    :      0.29s CPU      0.33s WALL (       1 calls)
     forces       :      0.01s CPU      0.01s WALL (       1 calls)
     stress       :      0.02s CPU      0.02s WALL (       1 calls)

     Called by init_run:
     wfcinit      :      0.01s CPU      0.01s WALL (       1 calls)
     potinit      :      0.00s CPU      0.00s WALL (       1 calls)
     hinit0       :      0.08s CPU      0.08s WALL (       1 calls)

     Called by electrons:
     c_bands      :      0.23s CPU      0.26s WALL (       9 calls)
     sum_band     :      0.04s CPU      0.05s WALL (       9 calls)
     v_of_rho     :      0.01s CPU      0.01s WALL (       9 calls)
     newd         :      0.01s CPU      0.01s WALL (       9 calls)
     mix_rho      :      0.00s CPU      0.00s WALL (       9 calls)

     Called by c_bands:
     init_us_2    :      0.01s CPU      0.01s WALL (     210 calls)
     cegterg      :      0.22s CPU      0.25s WALL (      90 calls)

     Called by sum_band:
     sum_band:bec :      0.00s CPU      0.00s WALL (      90 calls)
     addusdens    :      0.01s CPU      0.01s WALL (       9 calls)

     Called by *egterg:
     h_psi        :      0.13s CPU      0.15s WALL (     310 calls)
     s_psi        :      0.00s CPU      0.01s WALL (     310 calls)
     g_psi        :      0.00s CPU      0.00s WALL (     210 calls)
     cdiaghg      :      0.06s CPU      0.07s WALL (     290 calls)

     Called by h_psi:
     h_psi:pot    :      0.13s CPU      0.15s WALL (     310 calls)
     h_psi:calbec :      0.01s CPU      0.01s WALL (     310 calls)
     vloc_psi     :      0.11s CPU      0.13s WALL (     310 calls)
     add_vuspsi   :      0.01s CPU      0.01s WALL (     310 calls)

     General routines
     calbec       :      0.01s CPU      0.01s WALL (     450 calls)
     fft          :      0.01s CPU      0.01s WALL (     126 calls)
     ffts         :      0.00s CPU      0.00s WALL (       9 calls)
     fftw         :      0.12s CPU      0.14s WALL (    5578 calls)

     Parallel routines
     fft_scatt_xy :      0.01s CPU      0.02s WALL (    5713 calls)
     fft_scatt_yz :      0.05s CPU      0.06s WALL (    5713 calls)

     PWSCF        :     1.29s CPU         1.39s WALL


   This run was terminated on:  11:19: 4  26Mar2024            

=------------------------------------------------------------------------------=
   JOB DONE.
=------------------------------------------------------------------------------=
