
     Program PWSCF v.6.3MaX starts on 26Mar2024 at 12:44:13 

     This program is part of the open-source Quantum ESPRESSO suite
     for quantum simulation of materials; please cite
         "P. Giannozzi et al., J. Phys.:Condens. Matter 21 395502 (2009);
         "P. Giannozzi et al., J. Phys.:Condens. Matter 29 465901 (2017);
          URL http://www.quantum-espresso.org", 
     in publications or presentations arising from this work. More details at
     http://www.quantum-espresso.org/quote

     Parallel version (MPI), running on     5 processors

     MPI processes distributed on     1 nodes
     R & G space division:  proc/nbgrp/npool/nimage =       5
     Waiting for input...
     Reading input from standard input

     Current dimensions of program PWSCF are:
     Max number of different atomic species (ntypx) = 10
     Max number of k-points (npk) =  40000
     Max angular momentum in pseudopotentials (lmaxx) =  3

     Subspace diagonalization in iterative solution of the eigenvalue problem:
     a serial algorithm will be used


     Parallelization info
     --------------------
     sticks:   dense  smooth     PW     G-vecs:    dense   smooth      PW
     Min         153     153     48                 2863     2863     484
     Max         154     154     49                 2867     2867     485
     Sum         769     769    241                14331    14331    2421



     bravais-lattice index     =            2
     lattice parameter (alat)  =       7.7100  a.u.
     unit-cell volume          =     114.5785 (a.u.)^3
     number of atoms/cell      =            1
     number of atomic types    =            1
     number of electrons       =        11.00
     number of Kohn-Sham states=           10
     kinetic-energy cutoff     =      95.0000  Ry
     charge density cutoff     =     380.0000  Ry
     convergence threshold     =      1.0E-08
     mixing beta               =       0.7000
     number of iterations used =            8  plain     mixing
     Exchange-correlation      = PBESOL ( 1  4 10  8 0 0)

     celldm(1)=   7.710000  celldm(2)=   0.000000  celldm(3)=   0.000000
     celldm(4)=   0.000000  celldm(5)=   0.000000  celldm(6)=   0.000000

     crystal axes: (cart. coord. in units of alat)
               a(1) = (  -0.500000   0.000000   0.500000 )  
               a(2) = (   0.000000   0.500000   0.500000 )  
               a(3) = (  -0.500000   0.500000   0.000000 )  

     reciprocal axes: (cart. coord. in units 2 pi/alat)
               b(1) = ( -1.000000 -1.000000  1.000000 )  
               b(2) = (  1.000000  1.000000  1.000000 )  
               b(3) = ( -1.000000  1.000000 -1.000000 )  


     PseudoPot. # 1 for Au read from file:
     /home/lorenzo/pseudos/Au/Au.pbesol-n-rrkjus_psl.1.0.0.UPF
     MD5 check sum: 09626e9411213730b9a56fcc59c03ca8
     Pseudo is Ultrasoft + core correction, Zval = 11.0
     Generated using "atomic" code by A. Dal Corso v.6.3
     Using radial grid of 1279 points,  6 beta functions with: 
                l(1) =   0
                l(2) =   0
                l(3) =   1
                l(4) =   1
                l(5) =   2
                l(6) =   2
     Q(r) pseudized with 0 coefficients 


     atomic species   valence    mass     pseudopotential
        Au            11.00   196.96600     Au( 1.00)

     48 Sym. Ops., with inversion, found



   Cartesian axes

     site n.     atom                  positions (alat units)
         1           Au  tau(   1) = (   0.0000000   0.0000000   0.0000000  )

     number of k points=    10  gaussian smearing, width (Ry)=  0.0100
                       cart. coord. in units 2pi/alat
        k(    1) = (   0.0000000   0.0000000   0.0000000), wk =   0.0160000
        k(    2) = (  -0.2000000   0.2000000  -0.2000000), wk =   0.1280000
        k(    3) = (  -0.4000000   0.4000000  -0.4000000), wk =   0.1280000
        k(    4) = (   0.0000000   0.4000000   0.0000000), wk =   0.0960000
        k(    5) = (  -0.2000000   0.6000000  -0.2000000), wk =   0.3840000
        k(    6) = (   0.6000000  -0.2000000   0.6000000), wk =   0.3840000
        k(    7) = (   0.4000000   0.0000000   0.4000000), wk =   0.1920000
        k(    8) = (   0.0000000   0.8000000   0.0000000), wk =   0.0960000
        k(    9) = (   0.8000000   0.0000000   0.8000000), wk =   0.1920000
        k(   10) = (   0.6000000  -0.2000000   1.0000000), wk =   0.3840000

     Dense  grid:    14331 G-vectors     FFT dimensions: (  36,  36,  36)

     Estimated max dynamical RAM per process >      13.32 MB

     Estimated total dynamical RAM >      66.58 MB

     Initial potential from superposition of free atoms

     starting charge   10.99990, renormalised to   11.00000
     Starting wfcs are    9 randomized atomic wfcs +    1 random wfcs

     total cpu time spent up to now is        1.1 secs

     Self-consistent Calculation

     iteration #  1     ecut=    95.00 Ry     beta= 0.70
     Davidson diagonalization with overlap
     ethr =  1.00E-02,  avg # of iterations =  5.6

     Threshold (ethr) on eigenvalues was too large:
     Diagonalizing with lowered threshold

     Davidson diagonalization with overlap
     ethr =  5.57E-04,  avg # of iterations =  1.5

     total cpu time spent up to now is        1.6 secs

     total energy              =     -85.19663767 Ry
     Harris-Foulkes estimate   =     -85.23707744 Ry
     estimated scf accuracy    <       0.06370267 Ry

     iteration #  2     ecut=    95.00 Ry     beta= 0.70
     Davidson diagonalization with overlap
     ethr =  5.79E-04,  avg # of iterations =  3.2

     negative rho (up, down):  3.425E-02 0.000E+00

     total cpu time spent up to now is        1.9 secs

     total energy              =     -85.30640573 Ry
     Harris-Foulkes estimate   =     -85.23185132 Ry
     estimated scf accuracy    <       0.23454445 Ry

     iteration #  3     ecut=    95.00 Ry     beta= 0.70
     Davidson diagonalization with overlap
     ethr =  5.79E-04,  avg # of iterations =  4.1

     total cpu time spent up to now is        2.2 secs

     total energy              =     -49.05607852 Ry
     Harris-Foulkes estimate   =    -139.14867847 Ry
     estimated scf accuracy    <  194961.74417999 Ry

     iteration #  4     ecut=    95.00 Ry     beta= 0.70
     Davidson diagonalization with overlap
     ethr =  5.79E-04,  avg # of iterations =  6.3

     total cpu time spent up to now is        2.5 secs

     total energy              =     -85.22021717 Ry
     Harris-Foulkes estimate   =     -85.22003423 Ry
     estimated scf accuracy    <       0.06312817 Ry

     iteration #  5     ecut=    95.00 Ry     beta= 0.70
     Davidson diagonalization with overlap
     ethr =  5.74E-04,  avg # of iterations =  1.0

     total cpu time spent up to now is        2.7 secs

     total energy              =     -85.22022482 Ry
     Harris-Foulkes estimate   =     -85.22028053 Ry
     estimated scf accuracy    <       0.06445898 Ry

     iteration #  6     ecut=    95.00 Ry     beta= 0.70
     Davidson diagonalization with overlap
     ethr =  5.74E-04,  avg # of iterations =  1.0

     total cpu time spent up to now is        2.8 secs

     total energy              =     -85.22021250 Ry
     Harris-Foulkes estimate   =     -85.22023163 Ry
     estimated scf accuracy    <       0.06489197 Ry

     iteration #  7     ecut=    95.00 Ry     beta= 0.70
     Davidson diagonalization with overlap
     ethr =  5.74E-04,  avg # of iterations =  1.0

     total cpu time spent up to now is        3.0 secs

     total energy              =     -85.22018741 Ry
     Harris-Foulkes estimate   =     -85.22021442 Ry
     estimated scf accuracy    <       0.06523965 Ry

     iteration #  8     ecut=    95.00 Ry     beta= 0.70
     Davidson diagonalization with overlap
     ethr =  5.74E-04,  avg # of iterations =  1.0

     total cpu time spent up to now is        3.2 secs

     total energy              =     -85.22013414 Ry
     Harris-Foulkes estimate   =     -85.22018806 Ry
     estimated scf accuracy    <       0.06523287 Ry

     iteration #  9     ecut=    95.00 Ry     beta= 0.70
     Davidson diagonalization with overlap
     ethr =  5.74E-04,  avg # of iterations =  1.0

     total cpu time spent up to now is        3.4 secs

     total energy              =     -85.22012037 Ry
     Harris-Foulkes estimate   =     -85.22013452 Ry
     estimated scf accuracy    <       0.06464954 Ry

     iteration # 10     ecut=    95.00 Ry     beta= 0.70
     Davidson diagonalization with overlap
     ethr =  5.74E-04,  avg # of iterations =  1.0

     total cpu time spent up to now is        3.6 secs

     total energy              =     -85.22010516 Ry
     Harris-Foulkes estimate   =     -85.22012053 Ry
     estimated scf accuracy    <       0.06442310 Ry

     iteration # 11     ecut=    95.00 Ry     beta= 0.70
     Davidson diagonalization with overlap
     ethr =  5.74E-04,  avg # of iterations =  1.0

     total cpu time spent up to now is        3.8 secs

     total energy              =     -85.22015843 Ry
     Harris-Foulkes estimate   =     -85.22010528 Ry
     estimated scf accuracy    <       0.06401537 Ry

     iteration # 12     ecut=    95.00 Ry     beta= 0.70
     Davidson diagonalization with overlap
     ethr =  5.74E-04,  avg # of iterations =  1.0

     total cpu time spent up to now is        3.9 secs

     total energy              =     -85.21308979 Ry
     Harris-Foulkes estimate   =     -85.22015858 Ry
     estimated scf accuracy    <       0.06449379 Ry

     iteration # 13     ecut=    95.00 Ry     beta= 0.70
     Davidson diagonalization with overlap
     ethr =  5.74E-04,  avg # of iterations =  2.3

     total cpu time spent up to now is        4.1 secs

     total energy              =     -85.21648254 Ry
     Harris-Foulkes estimate   =     -85.21670518 Ry
     estimated scf accuracy    <       0.00069100 Ry

     iteration # 14     ecut=    95.00 Ry     beta= 0.70
     Davidson diagonalization with overlap
     ethr =  6.28E-06,  avg # of iterations =  3.9

     total cpu time spent up to now is        4.4 secs

     total energy              =     -85.21660484 Ry
     Harris-Foulkes estimate   =     -85.21665008 Ry
     estimated scf accuracy    <       0.00019030 Ry

     iteration # 15     ecut=    95.00 Ry     beta= 0.70
     Davidson diagonalization with overlap
     ethr =  1.73E-06,  avg # of iterations =  3.7

     total cpu time spent up to now is        4.6 secs

     total energy              =     -85.21664857 Ry
     Harris-Foulkes estimate   =     -85.21664336 Ry
     estimated scf accuracy    <       0.00009465 Ry

     iteration # 16     ecut=    95.00 Ry     beta= 0.70
     Davidson diagonalization with overlap
     ethr =  8.60E-07,  avg # of iterations =  3.3

     total cpu time spent up to now is        4.9 secs

     total energy              =     -85.21674880 Ry
     Harris-Foulkes estimate   =     -85.21670862 Ry
     estimated scf accuracy    <       0.00152815 Ry

     iteration # 17     ecut=    95.00 Ry     beta= 0.70
     Davidson diagonalization with overlap
     ethr =  8.60E-07,  avg # of iterations =  2.0

     total cpu time spent up to now is        5.2 secs

     total energy              =     -85.21667505 Ry
     Harris-Foulkes estimate   =     -85.21675522 Ry
     estimated scf accuracy    <       0.00247050 Ry

     iteration # 18     ecut=    95.00 Ry     beta= 0.70
     Davidson diagonalization with overlap
     ethr =  8.60E-07,  avg # of iterations =  2.4

     total cpu time spent up to now is        5.5 secs

     total energy              =     -85.21666292 Ry
     Harris-Foulkes estimate   =     -85.21668876 Ry
     estimated scf accuracy    <       0.00117285 Ry

     iteration # 19     ecut=    95.00 Ry     beta= 0.70
     Davidson diagonalization with overlap
     ethr =  8.60E-07,  avg # of iterations =  1.8

     total cpu time spent up to now is        5.7 secs

     total energy              =     -85.21639582 Ry
     Harris-Foulkes estimate   =     -85.21666630 Ry
     estimated scf accuracy    <       0.00079341 Ry

     iteration # 20     ecut=    95.00 Ry     beta= 0.70
     Davidson diagonalization with overlap
     ethr =  8.60E-07,  avg # of iterations =  3.7

     total cpu time spent up to now is        6.0 secs

     total energy              =     -85.21647598 Ry
     Harris-Foulkes estimate   =     -85.21678258 Ry
     estimated scf accuracy    <       0.00258358 Ry

     iteration # 21     ecut=    95.00 Ry     beta= 0.70
     Davidson diagonalization with overlap
     ethr =  8.60E-07,  avg # of iterations =  3.8

     total cpu time spent up to now is        6.2 secs

     total energy              =     -85.21662834 Ry
     Harris-Foulkes estimate   =     -85.21663166 Ry
     estimated scf accuracy    <       0.00000819 Ry

     iteration # 22     ecut=    95.00 Ry     beta= 0.70
     Davidson diagonalization with overlap
     ethr =  7.44E-08,  avg # of iterations =  2.8

     total cpu time spent up to now is        6.4 secs

     total energy              =     -85.21662808 Ry
     Harris-Foulkes estimate   =     -85.21663182 Ry
     estimated scf accuracy    <       0.00004049 Ry

     iteration # 23     ecut=    95.00 Ry     beta= 0.70
     Davidson diagonalization with overlap
     ethr =  7.44E-08,  avg # of iterations =  1.7

     total cpu time spent up to now is        6.6 secs

     total energy              =     -85.21662921 Ry
     Harris-Foulkes estimate   =     -85.21662929 Ry
     estimated scf accuracy    <       0.00000710 Ry

     iteration # 24     ecut=    95.00 Ry     beta= 0.70
     Davidson diagonalization with overlap
     ethr =  6.45E-08,  avg # of iterations =  1.0

     total cpu time spent up to now is        6.8 secs

     total energy              =     -85.21662933 Ry
     Harris-Foulkes estimate   =     -85.21662926 Ry
     estimated scf accuracy    <       0.00000623 Ry

     iteration # 25     ecut=    95.00 Ry     beta= 0.70
     Davidson diagonalization with overlap
     ethr =  5.66E-08,  avg # of iterations =  1.0

     total cpu time spent up to now is        7.0 secs

     total energy              =     -85.21662881 Ry
     Harris-Foulkes estimate   =     -85.21662934 Ry
     estimated scf accuracy    <       0.00000599 Ry

     iteration # 26     ecut=    95.00 Ry     beta= 0.70
     Davidson diagonalization with overlap
     ethr =  5.44E-08,  avg # of iterations =  1.2

     total cpu time spent up to now is        7.2 secs

     total energy              =     -85.21662893 Ry
     Harris-Foulkes estimate   =     -85.21662904 Ry
     estimated scf accuracy    <       0.00000034 Ry

     iteration # 27     ecut=    95.00 Ry     beta= 0.70
     Davidson diagonalization with overlap
     ethr =  3.07E-09,  avg # of iterations =  3.3

     total cpu time spent up to now is        7.5 secs

     total energy              =     -85.21662889 Ry
     Harris-Foulkes estimate   =     -85.21662913 Ry
     estimated scf accuracy    <       0.00000140 Ry

     iteration # 28     ecut=    95.00 Ry     beta= 0.70
     Davidson diagonalization with overlap
     ethr =  3.07E-09,  avg # of iterations =  2.1

     total cpu time spent up to now is        7.7 secs

     total energy              =     -85.21662904 Ry
     Harris-Foulkes estimate   =     -85.21662907 Ry
     estimated scf accuracy    <       0.00000030 Ry

     iteration # 29     ecut=    95.00 Ry     beta= 0.70
     Davidson diagonalization with overlap
     ethr =  2.76E-09,  avg # of iterations =  1.4

     total cpu time spent up to now is        7.9 secs

     total energy              =     -85.21662905 Ry
     Harris-Foulkes estimate   =     -85.21662905 Ry
     estimated scf accuracy    <       0.00000002 Ry

     iteration # 30     ecut=    95.00 Ry     beta= 0.70
     Davidson diagonalization with overlap
     ethr =  1.61E-10,  avg # of iterations =  2.9

     total cpu time spent up to now is        8.1 secs

     End of self-consistent calculation

          k = 0.0000 0.0000 0.0000 (  1807 PWs)   bands (ev):

     5.8366  11.1418  11.1418  11.1418  12.6854  12.6854  31.1406  35.0008
    35.0008  35.0008

          k =-0.2000 0.2000-0.2000 (  1805 PWs)   bands (ev):

     7.1087  10.8914  11.4318  11.4318  12.6838  12.6838  29.0782  32.2570
    35.9767  35.9767

          k =-0.4000 0.4000-0.4000 (  1802 PWs)   bands (ev):

     8.4321  11.1806  11.1806  13.1241  13.6624  13.6624  21.2128  30.7632
    33.9924  33.9924

          k = 0.0000 0.4000 0.0000 (  1800 PWs)   bands (ev):

     7.5526  10.3307  11.9151  11.9650  11.9650  13.0683  32.2600  32.2600
    32.3629  32.9782

          k =-0.2000 0.6000-0.2000 (  1798 PWs)   bands (ev):

     9.0902  10.3236  11.1761  12.1106  13.8187  14.3884  24.2049  30.2623
    30.3525  33.0338

          k = 0.6000-0.2000 0.6000 (  1788 PWs)   bands (ev):

     9.3429  10.6229  11.7240  11.8287  13.6035  17.3878  19.7843  27.6034
    31.8200  32.2106

          k = 0.4000 0.0000 0.4000 (  1797 PWs)   bands (ev):

     8.8204  10.4982  11.2358  12.0404  12.1972  14.2830  26.4241  28.4754
    33.5148  36.3812

          k = 0.0000 0.8000 0.0000 (  1772 PWs)   bands (ev):

     8.8400   9.2207  13.7349  13.8051  13.8051  14.5311  24.6019  26.9145
    26.9145  32.5766

          k = 0.8000 0.0000 0.8000 (  1780 PWs)   bands (ev):

     9.1611   9.6471  12.4657  13.2318  13.9413  19.4876  20.4261  23.6381
    27.6606  33.7873

          k = 0.6000-0.2000 1.0000 (  1799 PWs)   bands (ev):

     9.9064  10.1652  10.8620  12.8058  13.7913  17.8237  22.8745  24.1769
    27.0716  37.2146

     the Fermi energy is    14.5774 ev

!    total energy              =     -85.21662906 Ry
     Harris-Foulkes estimate   =     -85.21662905 Ry
     estimated scf accuracy    <          4.6E-09 Ry

     The total energy is the sum of the following terms:

     one-electron contribution =      11.00080644 Ry
     hartree contribution      =       7.54626899 Ry
     xc contribution           =     -31.80891536 Ry
     ewald contribution        =     -71.95438534 Ry
     smearing contrib. (-TS)   =      -0.00040379 Ry

     convergence has been achieved in  30 iterations

     Forces acting on atoms (cartesian axes, Ry/au):

     atom    1 type  1   force =     0.00000000    0.00000000    0.00000000

     Total force =     0.000000     Total SCF correction =     0.000000


     Computing stress (Cartesian axis) and pressure

          total   stress  (Ry/bohr**3)                   (kbar)     P=    6.37
   0.00004327   0.00000000   0.00000000          6.37      0.00      0.00
   0.00000000   0.00004327   0.00000000          0.00      6.37      0.00
  -0.00000000  -0.00000000   0.00004327         -0.00     -0.00      6.37


     Writing output data file Au.save/

     init_run     :      0.31s CPU      0.32s WALL (       1 calls)
     electrons    :      6.58s CPU      6.94s WALL (       1 calls)
     forces       :      0.05s CPU      0.05s WALL (       1 calls)
     stress       :      0.16s CPU      0.16s WALL (       1 calls)

     Called by init_run:
     wfcinit      :      0.05s CPU      0.06s WALL (       1 calls)
     potinit      :      0.02s CPU      0.02s WALL (       1 calls)
     hinit0       :      0.21s CPU      0.22s WALL (       1 calls)

     Called by electrons:
     c_bands      :      4.55s CPU      4.84s WALL (      31 calls)
     sum_band     :      1.32s CPU      1.37s WALL (      31 calls)
     v_of_rho     :      0.28s CPU      0.28s WALL (      31 calls)
     newd         :      0.40s CPU      0.41s WALL (      31 calls)
     mix_rho      :      0.04s CPU      0.05s WALL (      31 calls)

     Called by c_bands:
     init_us_2    :      0.14s CPU      0.14s WALL (     650 calls)
     cegterg      :      4.34s CPU      4.62s WALL (     310 calls)

     Called by sum_band:
     sum_band:bec :      0.00s CPU      0.00s WALL (     310 calls)
     addusdens    :      0.41s CPU      0.42s WALL (      31 calls)

     Called by *egterg:
     h_psi        :      3.47s CPU      3.73s WALL (    1050 calls)
     s_psi        :      0.11s CPU      0.12s WALL (    1050 calls)
     g_psi        :      0.01s CPU      0.01s WALL (     730 calls)
     cdiaghg      :      0.25s CPU      0.25s WALL (    1030 calls)

     Called by h_psi:
     h_psi:pot    :      3.45s CPU      3.71s WALL (    1050 calls)
     h_psi:calbec :      0.16s CPU      0.17s WALL (    1050 calls)
     vloc_psi     :      3.17s CPU      3.41s WALL (    1050 calls)
     add_vuspsi   :      0.11s CPU      0.12s WALL (    1050 calls)

     General routines
     calbec       :      0.23s CPU      0.24s WALL (    1410 calls)
     fft          :      0.13s CPU      0.13s WALL (     368 calls)
     ffts         :      0.01s CPU      0.01s WALL (      31 calls)
     fftw         :      3.60s CPU      3.85s WALL (   18826 calls)

     Parallel routines
     fft_scatt_xy :      0.32s CPU      0.35s WALL (   19225 calls)
     fft_scatt_yz :      0.84s CPU      0.90s WALL (   19225 calls)

     PWSCF        :     7.92s CPU         8.33s WALL


   This run was terminated on:  12:44:22  26Mar2024            

=------------------------------------------------------------------------------=
   JOB DONE.
=------------------------------------------------------------------------------=
