
     Program PWSCF v.6.3MaX starts on 26Mar2024 at 12: 6:58 

     This program is part of the open-source Quantum ESPRESSO suite
     for quantum simulation of materials; please cite
         "P. Giannozzi et al., J. Phys.:Condens. Matter 21 395502 (2009);
         "P. Giannozzi et al., J. Phys.:Condens. Matter 29 465901 (2017);
          URL http://www.quantum-espresso.org", 
     in publications or presentations arising from this work. More details at
     http://www.quantum-espresso.org/quote

     Parallel version (MPI), running on     5 processors

     MPI processes distributed on     1 nodes
     R & G space division:  proc/nbgrp/npool/nimage =       5
     Waiting for input...
     Reading input from standard input

     Current dimensions of program PWSCF are:
     Max number of different atomic species (ntypx) = 10
     Max number of k-points (npk) =  40000
     Max angular momentum in pseudopotentials (lmaxx) =  3

     Subspace diagonalization in iterative solution of the eigenvalue problem:
     a serial algorithm will be used


     Parallelization info
     --------------------
     sticks:   dense  smooth     PW     G-vecs:    dense   smooth      PW
     Min         116     116     32                 1836     1836     290
     Max         117     117     33                 1838     1838     293
     Sum         583     583    163                 9185     9185    1459



     bravais-lattice index     =            2
     lattice parameter (alat)  =       7.7100  a.u.
     unit-cell volume          =     114.5785 (a.u.)^3
     number of atoms/cell      =            1
     number of atomic types    =            1
     number of electrons       =        11.00
     number of Kohn-Sham states=           10
     kinetic-energy cutoff     =      70.0000  Ry
     charge density cutoff     =     280.0000  Ry
     convergence threshold     =      1.0E-08
     mixing beta               =       0.7000
     number of iterations used =            8  plain     mixing
     Exchange-correlation      = PBESOL ( 1  4 10  8 0 0)

     celldm(1)=   7.710000  celldm(2)=   0.000000  celldm(3)=   0.000000
     celldm(4)=   0.000000  celldm(5)=   0.000000  celldm(6)=   0.000000

     crystal axes: (cart. coord. in units of alat)
               a(1) = (  -0.500000   0.000000   0.500000 )  
               a(2) = (   0.000000   0.500000   0.500000 )  
               a(3) = (  -0.500000   0.500000   0.000000 )  

     reciprocal axes: (cart. coord. in units 2 pi/alat)
               b(1) = ( -1.000000 -1.000000  1.000000 )  
               b(2) = (  1.000000  1.000000  1.000000 )  
               b(3) = ( -1.000000  1.000000 -1.000000 )  


     PseudoPot. # 1 for Au read from file:
     /home/lorenzo/pseudos/Au/Au.pbesol-n-rrkjus_psl.1.0.0.UPF
     MD5 check sum: 09626e9411213730b9a56fcc59c03ca8
     Pseudo is Ultrasoft + core correction, Zval = 11.0
     Generated using "atomic" code by A. Dal Corso v.6.3
     Using radial grid of 1279 points,  6 beta functions with: 
                l(1) =   0
                l(2) =   0
                l(3) =   1
                l(4) =   1
                l(5) =   2
                l(6) =   2
     Q(r) pseudized with 0 coefficients 


     atomic species   valence    mass     pseudopotential
        Au            11.00   196.96600     Au( 1.00)

     48 Sym. Ops., with inversion, found



   Cartesian axes

     site n.     atom                  positions (alat units)
         1           Au  tau(   1) = (   0.0000000   0.0000000   0.0000000  )

     number of k points=     4  gaussian smearing, width (Ry)=  0.0100
                       cart. coord. in units 2pi/alat
        k(    1) = (   0.0000000   0.0000000   0.0000000), wk =   0.0740741
        k(    2) = (  -0.3333333   0.3333333  -0.3333333), wk =   0.5925926
        k(    3) = (   0.0000000   0.6666667   0.0000000), wk =   0.4444444
        k(    4) = (   0.6666667  -0.0000000   0.6666667), wk =   0.8888889

     Dense  grid:     9185 G-vectors     FFT dimensions: (  30,  30,  30)

     Estimated max dynamical RAM per process >       8.65 MB

     Estimated total dynamical RAM >      43.27 MB

     Initial potential from superposition of free atoms

     starting charge   10.99990, renormalised to   11.00000
     Starting wfcs are    9 randomized atomic wfcs +    1 random wfcs

     total cpu time spent up to now is        1.0 secs

     Self-consistent Calculation

     iteration #  1     ecut=    70.00 Ry     beta= 0.70
     Davidson diagonalization with overlap
     ethr =  1.00E-02,  avg # of iterations =  6.0

     Threshold (ethr) on eigenvalues was too large:
     Diagonalizing with lowered threshold

     Davidson diagonalization with overlap
     ethr =  6.08E-04,  avg # of iterations =  1.5

     total cpu time spent up to now is        1.2 secs

     total energy              =     -85.21780783 Ry
     Harris-Foulkes estimate   =     -85.26080058 Ry
     estimated scf accuracy    <       0.06671879 Ry

     iteration #  2     ecut=    70.00 Ry     beta= 0.70
     Davidson diagonalization with overlap
     ethr =  6.07E-04,  avg # of iterations =  3.2

     negative rho (up, down):  1.053E-02 0.000E+00

     total cpu time spent up to now is        1.3 secs

     total energy              =     -85.50189719 Ry
     Harris-Foulkes estimate   =     -85.26026304 Ry
     estimated scf accuracy    <       0.67697072 Ry

     iteration #  3     ecut=    70.00 Ry     beta= 0.70
     Davidson diagonalization with overlap
     ethr =  6.07E-04,  avg # of iterations =  4.2

     total cpu time spent up to now is        1.4 secs

     total energy              =     -49.96314810 Ry
     Harris-Foulkes estimate   =    -201.21481326 Ry
     estimated scf accuracy    <  208293.24992988 Ry

     iteration #  4     ecut=    70.00 Ry     beta= 0.70
     Davidson diagonalization with overlap
     ethr =  6.07E-04,  avg # of iterations =  5.8

     total cpu time spent up to now is        1.5 secs

     total energy              =     -85.24479404 Ry
     Harris-Foulkes estimate   =     -85.24399666 Ry
     estimated scf accuracy    <       0.12338226 Ry

     iteration #  5     ecut=    70.00 Ry     beta= 0.70
     Davidson diagonalization with overlap
     ethr =  6.07E-04,  avg # of iterations =  2.0

     total cpu time spent up to now is        1.6 secs

     total energy              =     -85.24480835 Ry
     Harris-Foulkes estimate   =     -85.24514508 Ry
     estimated scf accuracy    <       0.15055119 Ry

     iteration #  6     ecut=    70.00 Ry     beta= 0.70
     Davidson diagonalization with overlap
     ethr =  6.07E-04,  avg # of iterations =  1.0

     total cpu time spent up to now is        1.6 secs

     total energy              =     -85.24483263 Ry
     Harris-Foulkes estimate   =     -85.24485004 Ry
     estimated scf accuracy    <       0.14704573 Ry

     iteration #  7     ecut=    70.00 Ry     beta= 0.70
     Davidson diagonalization with overlap
     ethr =  6.07E-04,  avg # of iterations =  1.0

     total cpu time spent up to now is        1.7 secs

     total energy              =     -85.24453309 Ry
     Harris-Foulkes estimate   =     -85.24484066 Ry
     estimated scf accuracy    <       0.14571249 Ry

     iteration #  8     ecut=    70.00 Ry     beta= 0.70
     Davidson diagonalization with overlap
     ethr =  6.07E-04,  avg # of iterations =  1.0

     total cpu time spent up to now is        1.8 secs

     total energy              =     -85.24457041 Ry
     Harris-Foulkes estimate   =     -85.24453972 Ry
     estimated scf accuracy    <       0.13953553 Ry

     iteration #  9     ecut=    70.00 Ry     beta= 0.70
     Davidson diagonalization with overlap
     ethr =  6.07E-04,  avg # of iterations =  1.0

     total cpu time spent up to now is        1.8 secs

     total energy              =     -85.24449174 Ry
     Harris-Foulkes estimate   =     -85.24457195 Ry
     estimated scf accuracy    <       0.13901812 Ry

     iteration # 10     ecut=    70.00 Ry     beta= 0.70
     Davidson diagonalization with overlap
     ethr =  6.07E-04,  avg # of iterations =  1.0

     total cpu time spent up to now is        1.9 secs

     total energy              =     -85.24437766 Ry
     Harris-Foulkes estimate   =     -85.24449301 Ry
     estimated scf accuracy    <       0.13649540 Ry

     iteration # 11     ecut=    70.00 Ry     beta= 0.70
     Davidson diagonalization with overlap
     ethr =  6.07E-04,  avg # of iterations =  1.0

     total cpu time spent up to now is        2.0 secs

     total energy              =     -85.24450015 Ry
     Harris-Foulkes estimate   =     -85.24437908 Ry
     estimated scf accuracy    <       0.13416226 Ry

     iteration # 12     ecut=    70.00 Ry     beta= 0.70
     Davidson diagonalization with overlap
     ethr =  6.07E-04,  avg # of iterations =  2.0

     total cpu time spent up to now is        2.0 secs

     total energy              =     -85.24104165 Ry
     Harris-Foulkes estimate   =     -85.24450074 Ry
     estimated scf accuracy    <       0.13486439 Ry

     iteration # 13     ecut=    70.00 Ry     beta= 0.70
     Davidson diagonalization with overlap
     ethr =  6.07E-04,  avg # of iterations =  2.0

     total cpu time spent up to now is        2.1 secs

     total energy              =     -85.24153687 Ry
     Harris-Foulkes estimate   =     -85.24164758 Ry
     estimated scf accuracy    <       0.06251279 Ry

     iteration # 14     ecut=    70.00 Ry     beta= 0.70
     Davidson diagonalization with overlap
     ethr =  5.68E-04,  avg # of iterations =  2.2

     total cpu time spent up to now is        2.2 secs

     total energy              =     -85.23949320 Ry
     Harris-Foulkes estimate   =     -85.24157141 Ry
     estimated scf accuracy    <       0.06050170 Ry

     iteration # 15     ecut=    70.00 Ry     beta= 0.70
     Davidson diagonalization with overlap
     ethr =  5.50E-04,  avg # of iterations =  1.8

     total cpu time spent up to now is        2.2 secs

     total energy              =     -85.24050617 Ry
     Harris-Foulkes estimate   =     -85.23985608 Ry
     estimated scf accuracy    <       0.03106589 Ry

     iteration # 16     ecut=    70.00 Ry     beta= 0.70
     Davidson diagonalization with overlap
     ethr =  2.82E-04,  avg # of iterations =  1.2

     total cpu time spent up to now is        2.3 secs

     total energy              =     -85.24093125 Ry
     Harris-Foulkes estimate   =     -85.24058567 Ry
     estimated scf accuracy    <       0.03463241 Ry

     iteration # 17     ecut=    70.00 Ry     beta= 0.70
     Davidson diagonalization with overlap
     ethr =  2.82E-04,  avg # of iterations =  1.0

     total cpu time spent up to now is        2.4 secs

     total energy              =     -85.24119876 Ry
     Harris-Foulkes estimate   =     -85.24097098 Ry
     estimated scf accuracy    <       0.04118142 Ry

     iteration # 18     ecut=    70.00 Ry     beta= 0.70
     Davidson diagonalization with overlap
     ethr =  2.82E-04,  avg # of iterations =  1.0

     total cpu time spent up to now is        2.4 secs

     total energy              =     -85.23795117 Ry
     Harris-Foulkes estimate   =     -85.24125782 Ry
     estimated scf accuracy    <       0.04622907 Ry

     iteration # 19     ecut=    70.00 Ry     beta= 0.70
     Davidson diagonalization with overlap
     ethr =  2.82E-04,  avg # of iterations =  2.2

     total cpu time spent up to now is        2.5 secs

     total energy              =     -85.23656133 Ry
     Harris-Foulkes estimate   =     -85.23875859 Ry
     estimated scf accuracy    <       0.01295761 Ry

     iteration # 20     ecut=    70.00 Ry     beta= 0.70
     Davidson diagonalization with overlap
     ethr =  1.18E-04,  avg # of iterations =  5.0

     total cpu time spent up to now is        2.6 secs

     total energy              =     -85.23813100 Ry
     Harris-Foulkes estimate   =     -85.23818933 Ry
     estimated scf accuracy    <       0.00160667 Ry

     iteration # 21     ecut=    70.00 Ry     beta= 0.70
     Davidson diagonalization with overlap
     ethr =  1.46E-05,  avg # of iterations =  1.8

     total cpu time spent up to now is        2.6 secs

     total energy              =     -85.23802327 Ry
     Harris-Foulkes estimate   =     -85.23814530 Ry
     estimated scf accuracy    <       0.00106626 Ry

     iteration # 22     ecut=    70.00 Ry     beta= 0.70
     Davidson diagonalization with overlap
     ethr =  9.69E-06,  avg # of iterations =  2.0

     total cpu time spent up to now is        2.7 secs

     total energy              =     -85.23809623 Ry
     Harris-Foulkes estimate   =     -85.23809698 Ry
     estimated scf accuracy    <       0.00000369 Ry

     iteration # 23     ecut=    70.00 Ry     beta= 0.70
     Davidson diagonalization with overlap
     ethr =  3.36E-08,  avg # of iterations =  4.0

     total cpu time spent up to now is        2.8 secs

     total energy              =     -85.23810369 Ry
     Harris-Foulkes estimate   =     -85.23810101 Ry
     estimated scf accuracy    <       0.00003016 Ry

     iteration # 24     ecut=    70.00 Ry     beta= 0.70
     Davidson diagonalization with overlap
     ethr =  3.36E-08,  avg # of iterations =  2.0

     total cpu time spent up to now is        2.9 secs

     total energy              =     -85.23809296 Ry
     Harris-Foulkes estimate   =     -85.23810584 Ry
     estimated scf accuracy    <       0.00011791 Ry

     iteration # 25     ecut=    70.00 Ry     beta= 0.70
     Davidson diagonalization with overlap
     ethr =  3.36E-08,  avg # of iterations =  3.0

     total cpu time spent up to now is        3.0 secs

     total energy              =     -85.23809773 Ry
     Harris-Foulkes estimate   =     -85.23809846 Ry
     estimated scf accuracy    <       0.00000302 Ry

     iteration # 26     ecut=    70.00 Ry     beta= 0.70
     Davidson diagonalization with overlap
     ethr =  2.74E-08,  avg # of iterations =  2.0

     total cpu time spent up to now is        3.1 secs

     total energy              =     -85.23809815 Ry
     Harris-Foulkes estimate   =     -85.23809841 Ry
     estimated scf accuracy    <       0.00000212 Ry

     iteration # 27     ecut=    70.00 Ry     beta= 0.70
     Davidson diagonalization with overlap
     ethr =  1.93E-08,  avg # of iterations =  1.2

     total cpu time spent up to now is        3.2 secs

     total energy              =     -85.23809817 Ry
     Harris-Foulkes estimate   =     -85.23809823 Ry
     estimated scf accuracy    <       0.00000045 Ry

     iteration # 28     ecut=    70.00 Ry     beta= 0.70
     Davidson diagonalization with overlap
     ethr =  4.09E-09,  avg # of iterations =  3.2

     total cpu time spent up to now is        3.3 secs

     total energy              =     -85.23809827 Ry
     Harris-Foulkes estimate   =     -85.23809828 Ry
     estimated scf accuracy    <       0.00000026 Ry

     iteration # 29     ecut=    70.00 Ry     beta= 0.70
     Davidson diagonalization with overlap
     ethr =  2.40E-09,  avg # of iterations =  1.0

     total cpu time spent up to now is        3.4 secs

     total energy              =     -85.23809826 Ry
     Harris-Foulkes estimate   =     -85.23809827 Ry
     estimated scf accuracy    <       0.00000016 Ry

     iteration # 30     ecut=    70.00 Ry     beta= 0.70
     Davidson diagonalization with overlap
     ethr =  1.45E-09,  avg # of iterations =  1.0

     total cpu time spent up to now is        3.4 secs

     total energy              =     -85.23809825 Ry
     Harris-Foulkes estimate   =     -85.23809827 Ry
     estimated scf accuracy    <       0.00000008 Ry

     iteration # 31     ecut=    70.00 Ry     beta= 0.70
     Davidson diagonalization with overlap
     ethr =  7.15E-10,  avg # of iterations =  2.5

     total cpu time spent up to now is        3.5 secs

     total energy              =     -85.23809827 Ry
     Harris-Foulkes estimate   =     -85.23809827 Ry
     estimated scf accuracy    <       0.00000002 Ry

     iteration # 32     ecut=    70.00 Ry     beta= 0.70
     Davidson diagonalization with overlap
     ethr =  1.80E-10,  avg # of iterations =  1.8

     total cpu time spent up to now is        3.6 secs

     total energy              =     -85.23809826 Ry
     Harris-Foulkes estimate   =     -85.23809827 Ry
     estimated scf accuracy    <       0.00000003 Ry

     iteration # 33     ecut=    70.00 Ry     beta= 0.70
     Davidson diagonalization with overlap
     ethr =  1.80E-10,  avg # of iterations =  1.2

     total cpu time spent up to now is        3.7 secs

     End of self-consistent calculation

          k = 0.0000 0.0000 0.0000 (  1139 PWs)   bands (ev):

     5.8304  11.0737  11.0737  11.0737  12.6002  12.6002  31.1539  34.9935
    34.9935  34.9935

          k =-0.3333 0.3333-0.3333 (  1149 PWs)   bands (ev):

     8.2513  11.2245  11.2245  11.7795  13.2243  13.2243  23.7039  31.3282
    34.9172  34.9172

          k = 0.0000 0.6667 0.0000 (  1118 PWs)   bands (ev):

     8.8650   9.4503  12.7340  13.1243  13.1243  13.4551  27.9302  28.3742
    28.3742  32.3563

          k = 0.6667-0.0000 0.6667 (  1141 PWs)   bands (ev):

     9.5833  10.3887  11.2673  12.4883  13.3783  18.2342  22.2463  22.9075
    30.1709  33.0930

     the Fermi energy is    13.5471 ev

!    total energy              =     -85.23809827 Ry
     Harris-Foulkes estimate   =     -85.23809827 Ry
     estimated scf accuracy    <          5.9E-09 Ry

     The total energy is the sum of the following terms:

     one-electron contribution =      11.01434554 Ry
     hartree contribution      =       7.49329214 Ry
     xc contribution           =     -31.79000615 Ry
     ewald contribution        =     -71.95438534 Ry
     smearing contrib. (-TS)   =      -0.00134447 Ry

     convergence has been achieved in  33 iterations

     Forces acting on atoms (cartesian axes, Ry/au):

     atom    1 type  1   force =     0.00000000    0.00000000    0.00000000

     Total force =     0.000000     Total SCF correction =     0.000000


     Computing stress (Cartesian axis) and pressure

          total   stress  (Ry/bohr**3)                   (kbar)     P=  -44.47
  -0.00030230   0.00000000   0.00000000        -44.47      0.00      0.00
   0.00000000  -0.00030230  -0.00000000          0.00    -44.47     -0.00
   0.00000000  -0.00000000  -0.00030230          0.00     -0.00    -44.47


     Writing output data file Au.save/

     init_run     :      0.22s CPU      0.23s WALL (       1 calls)
     electrons    :      2.53s CPU      2.61s WALL (       1 calls)
     forces       :      0.04s CPU      0.04s WALL (       1 calls)
     stress       :      0.10s CPU      0.10s WALL (       1 calls)

     Called by init_run:
     wfcinit      :      0.02s CPU      0.02s WALL (       1 calls)
     potinit      :      0.02s CPU      0.02s WALL (       1 calls)
     hinit0       :      0.17s CPU      0.18s WALL (       1 calls)

     Called by electrons:
     c_bands      :      1.36s CPU      1.42s WALL (      34 calls)
     sum_band     :      0.62s CPU      0.64s WALL (      34 calls)
     v_of_rho     :      0.20s CPU      0.20s WALL (      34 calls)
     newd         :      0.32s CPU      0.33s WALL (      34 calls)
     mix_rho      :      0.03s CPU      0.03s WALL (      34 calls)

     Called by c_bands:
     init_us_2    :      0.05s CPU      0.05s WALL (     284 calls)
     cegterg      :      1.29s CPU      1.34s WALL (     136 calls)

     Called by sum_band:
     sum_band:bec :      0.00s CPU      0.00s WALL (     136 calls)
     addusdens    :      0.31s CPU      0.32s WALL (      34 calls)

     Called by *egterg:
     h_psi        :      1.00s CPU      1.04s WALL (     436 calls)
     s_psi        :      0.03s CPU      0.04s WALL (     436 calls)
     g_psi        :      0.00s CPU      0.00s WALL (     296 calls)
     cdiaghg      :      0.10s CPU      0.11s WALL (     428 calls)

     Called by h_psi:
     h_psi:pot    :      0.99s CPU      1.03s WALL (     436 calls)
     h_psi:calbec :      0.05s CPU      0.05s WALL (     436 calls)
     vloc_psi     :      0.90s CPU      0.94s WALL (     436 calls)
     add_vuspsi   :      0.04s CPU      0.04s WALL (     436 calls)

     General routines
     calbec       :      0.07s CPU      0.07s WALL (     592 calls)
     fft          :      0.11s CPU      0.12s WALL (     401 calls)
     ffts         :      0.01s CPU      0.01s WALL (      34 calls)
     fftw         :      1.02s CPU      1.06s WALL (    7872 calls)

     Parallel routines
     fft_scatt_xy :      0.09s CPU      0.10s WALL (    8307 calls)
     fft_scatt_yz :      0.31s CPU      0.32s WALL (    8307 calls)

     PWSCF        :     3.71s CPU         3.83s WALL


   This run was terminated on:  12: 7: 2  26Mar2024            

=------------------------------------------------------------------------------=
   JOB DONE.
=------------------------------------------------------------------------------=
