
     Program PWSCF v.6.3MaX starts on 26Mar2024 at 11:38:19 

     This program is part of the open-source Quantum ESPRESSO suite
     for quantum simulation of materials; please cite
         "P. Giannozzi et al., J. Phys.:Condens. Matter 21 395502 (2009);
         "P. Giannozzi et al., J. Phys.:Condens. Matter 29 465901 (2017);
          URL http://www.quantum-espresso.org", 
     in publications or presentations arising from this work. More details at
     http://www.quantum-espresso.org/quote

     Parallel version (MPI), running on     5 processors

     MPI processes distributed on     1 nodes
     R & G space division:  proc/nbgrp/npool/nimage =       5
     Waiting for input...
     Reading input from standard input

     Current dimensions of program PWSCF are:
     Max number of different atomic species (ntypx) = 10
     Max number of k-points (npk) =  40000
     Max angular momentum in pseudopotentials (lmaxx) =  3

     Subspace diagonalization in iterative solution of the eigenvalue problem:
     a serial algorithm will be used


     Parallelization info
     --------------------
     sticks:   dense  smooth     PW     G-vecs:    dense   smooth      PW
     Min          73      73     24                  928      928     178
     Max          74      74     25                  930      930     181
     Sum         367     367    121                 4645     4645     893



     bravais-lattice index     =            2
     lattice parameter (alat)  =       7.7100  a.u.
     unit-cell volume          =     114.5785 (a.u.)^3
     number of atoms/cell      =            1
     number of atomic types    =            1
     number of electrons       =        11.00
     number of Kohn-Sham states=           10
     kinetic-energy cutoff     =      45.0000  Ry
     charge density cutoff     =     180.0000  Ry
     convergence threshold     =      1.0E-08
     mixing beta               =       0.7000
     number of iterations used =            8  plain     mixing
     Exchange-correlation      = PBESOL ( 1  4 10  8 0 0)

     celldm(1)=   7.710000  celldm(2)=   0.000000  celldm(3)=   0.000000
     celldm(4)=   0.000000  celldm(5)=   0.000000  celldm(6)=   0.000000

     crystal axes: (cart. coord. in units of alat)
               a(1) = (  -0.500000   0.000000   0.500000 )  
               a(2) = (   0.000000   0.500000   0.500000 )  
               a(3) = (  -0.500000   0.500000   0.000000 )  

     reciprocal axes: (cart. coord. in units 2 pi/alat)
               b(1) = ( -1.000000 -1.000000  1.000000 )  
               b(2) = (  1.000000  1.000000  1.000000 )  
               b(3) = ( -1.000000  1.000000 -1.000000 )  


     PseudoPot. # 1 for Au read from file:
     /home/lorenzo/pseudos/Au/Au.pbesol-n-rrkjus_psl.1.0.0.UPF
     MD5 check sum: 09626e9411213730b9a56fcc59c03ca8
     Pseudo is Ultrasoft + core correction, Zval = 11.0
     Generated using "atomic" code by A. Dal Corso v.6.3
     Using radial grid of 1279 points,  6 beta functions with: 
                l(1) =   0
                l(2) =   0
                l(3) =   1
                l(4) =   1
                l(5) =   2
                l(6) =   2
     Q(r) pseudized with 0 coefficients 


     atomic species   valence    mass     pseudopotential
        Au            11.00   196.96600     Au( 1.00)

     48 Sym. Ops., with inversion, found



   Cartesian axes

     site n.     atom                  positions (alat units)
         1           Au  tau(   1) = (   0.0000000   0.0000000   0.0000000  )

     number of k points=    10  gaussian smearing, width (Ry)=  0.0100
                       cart. coord. in units 2pi/alat
        k(    1) = (   0.0000000   0.0000000   0.0000000), wk =   0.0160000
        k(    2) = (  -0.2000000   0.2000000  -0.2000000), wk =   0.1280000
        k(    3) = (  -0.4000000   0.4000000  -0.4000000), wk =   0.1280000
        k(    4) = (   0.0000000   0.4000000   0.0000000), wk =   0.0960000
        k(    5) = (  -0.2000000   0.6000000  -0.2000000), wk =   0.3840000
        k(    6) = (   0.6000000  -0.2000000   0.6000000), wk =   0.3840000
        k(    7) = (   0.4000000   0.0000000   0.4000000), wk =   0.1920000
        k(    8) = (   0.0000000   0.8000000   0.0000000), wk =   0.0960000
        k(    9) = (   0.8000000   0.0000000   0.8000000), wk =   0.1920000
        k(   10) = (   0.6000000  -0.2000000   1.0000000), wk =   0.3840000

     Dense  grid:     4645 G-vectors     FFT dimensions: (  24,  24,  24)

     Estimated max dynamical RAM per process >       4.99 MB

     Estimated total dynamical RAM >      24.93 MB

     Initial potential from superposition of free atoms

     starting charge   10.99990, renormalised to   11.00000
     Starting wfcs are    9 randomized atomic wfcs +    1 random wfcs

     total cpu time spent up to now is        1.0 secs

     Self-consistent Calculation

     iteration #  1     ecut=    45.00 Ry     beta= 0.70
     Davidson diagonalization with overlap
     ethr =  1.00E-02,  avg # of iterations =  5.7

     Threshold (ethr) on eigenvalues was too large:
     Diagonalizing with lowered threshold

     Davidson diagonalization with overlap
     ethr =  5.56E-04,  avg # of iterations =  1.5

     total cpu time spent up to now is        1.3 secs

     total energy              =     -85.20973118 Ry
     Harris-Foulkes estimate   =     -85.23647893 Ry
     estimated scf accuracy    <       0.06372700 Ry

     iteration #  2     ecut=    45.00 Ry     beta= 0.70
     Davidson diagonalization with overlap
     ethr =  5.79E-04,  avg # of iterations =  4.6

     total cpu time spent up to now is        1.5 secs

     total energy              =     -34.67261732 Ry
     Harris-Foulkes estimate   =    -283.46858417 Ry
     estimated scf accuracy    <  159118.12917657 Ry

     iteration #  3     ecut=    45.00 Ry     beta= 0.70
     Davidson diagonalization with overlap
     ethr =  5.79E-04,  avg # of iterations =  7.2

     total cpu time spent up to now is        1.6 secs

     total energy              =     -85.21249111 Ry
     Harris-Foulkes estimate   =     -85.22355284 Ry
     estimated scf accuracy    <       0.02440101 Ry

     iteration #  4     ecut=    45.00 Ry     beta= 0.70
     Davidson diagonalization with overlap
     ethr =  2.22E-04,  avg # of iterations =  3.4

     total cpu time spent up to now is        1.7 secs

     total energy              =     -85.21585889 Ry
     Harris-Foulkes estimate   =     -85.21603398 Ry
     estimated scf accuracy    <       0.00531790 Ry

     iteration #  5     ecut=    45.00 Ry     beta= 0.70
     Davidson diagonalization with overlap
     ethr =  4.83E-05,  avg # of iterations =  2.3

     total cpu time spent up to now is        1.8 secs

     total energy              =     -85.21628573 Ry
     Harris-Foulkes estimate   =     -85.21630112 Ry
     estimated scf accuracy    <       0.00307084 Ry

     iteration #  6     ecut=    45.00 Ry     beta= 0.70
     Davidson diagonalization with overlap
     ethr =  2.79E-05,  avg # of iterations =  1.0

     total cpu time spent up to now is        1.9 secs

     total energy              =     -85.21634515 Ry
     Harris-Foulkes estimate   =     -85.21635169 Ry
     estimated scf accuracy    <       0.00301258 Ry

     iteration #  7     ecut=    45.00 Ry     beta= 0.70
     Davidson diagonalization with overlap
     ethr =  2.74E-05,  avg # of iterations =  1.0

     total cpu time spent up to now is        2.0 secs

     total energy              =     -85.21636696 Ry
     Harris-Foulkes estimate   =     -85.21636655 Ry
     estimated scf accuracy    <       0.00299421 Ry

     iteration #  8     ecut=    45.00 Ry     beta= 0.70
     Davidson diagonalization with overlap
     ethr =  2.72E-05,  avg # of iterations =  1.0

     total cpu time spent up to now is        2.1 secs

     total energy              =     -85.21637084 Ry
     Harris-Foulkes estimate   =     -85.21637437 Ry
     estimated scf accuracy    <       0.00295503 Ry

     iteration #  9     ecut=    45.00 Ry     beta= 0.70
     Davidson diagonalization with overlap
     ethr =  2.69E-05,  avg # of iterations =  1.0

     total cpu time spent up to now is        2.1 secs

     total energy              =     -85.21637271 Ry
     Harris-Foulkes estimate   =     -85.21637421 Ry
     estimated scf accuracy    <       0.00290335 Ry

     iteration # 10     ecut=    45.00 Ry     beta= 0.70
     Davidson diagonalization with overlap
     ethr =  2.64E-05,  avg # of iterations =  1.0

     total cpu time spent up to now is        2.2 secs

     total energy              =     -85.21637407 Ry
     Harris-Foulkes estimate   =     -85.21637469 Ry
     estimated scf accuracy    <       0.00286126 Ry

     iteration # 11     ecut=    45.00 Ry     beta= 0.70
     Davidson diagonalization with overlap
     ethr =  2.60E-05,  avg # of iterations =  1.0

     total cpu time spent up to now is        2.3 secs

     total energy              =     -85.21636436 Ry
     Harris-Foulkes estimate   =     -85.21637515 Ry
     estimated scf accuracy    <       0.00283241 Ry

     iteration # 12     ecut=    45.00 Ry     beta= 0.70
     Davidson diagonalization with overlap
     ethr =  2.57E-05,  avg # of iterations =  1.6

     total cpu time spent up to now is        2.3 secs

     total energy              =     -85.21647132 Ry
     Harris-Foulkes estimate   =     -85.21650730 Ry
     estimated scf accuracy    <       0.00207881 Ry

     iteration # 13     ecut=    45.00 Ry     beta= 0.70
     Davidson diagonalization with overlap
     ethr =  1.89E-05,  avg # of iterations =  1.0

     total cpu time spent up to now is        2.4 secs

     total energy              =     -85.21642892 Ry
     Harris-Foulkes estimate   =     -85.21648617 Ry
     estimated scf accuracy    <       0.00180780 Ry

     iteration # 14     ecut=    45.00 Ry     beta= 0.70
     Davidson diagonalization with overlap
     ethr =  1.64E-05,  avg # of iterations =  1.0

     total cpu time spent up to now is        2.5 secs

     total energy              =     -85.21609664 Ry
     Harris-Foulkes estimate   =     -85.21643580 Ry
     estimated scf accuracy    <       0.00142377 Ry

     iteration # 15     ecut=    45.00 Ry     beta= 0.70
     Davidson diagonalization with overlap
     ethr =  1.29E-05,  avg # of iterations =  2.1

     total cpu time spent up to now is        2.5 secs

     total energy              =     -85.21621091 Ry
     Harris-Foulkes estimate   =     -85.21617571 Ry
     estimated scf accuracy    <       0.00026302 Ry

     iteration # 16     ecut=    45.00 Ry     beta= 0.70
     Davidson diagonalization with overlap
     ethr =  2.39E-06,  avg # of iterations =  2.5

     total cpu time spent up to now is        2.6 secs

     total energy              =     -85.21621962 Ry
     Harris-Foulkes estimate   =     -85.21622264 Ry
     estimated scf accuracy    <       0.00028405 Ry

     iteration # 17     ecut=    45.00 Ry     beta= 0.70
     Davidson diagonalization with overlap
     ethr =  2.39E-06,  avg # of iterations =  1.0

     total cpu time spent up to now is        2.7 secs

     total energy              =     -85.21622391 Ry
     Harris-Foulkes estimate   =     -85.21622044 Ry
     estimated scf accuracy    <       0.00026707 Ry

     iteration # 18     ecut=    45.00 Ry     beta= 0.70
     Davidson diagonalization with overlap
     ethr =  2.39E-06,  avg # of iterations =  1.0

     total cpu time spent up to now is        2.7 secs

     total energy              =     -85.21612621 Ry
     Harris-Foulkes estimate   =     -85.21622423 Ry
     estimated scf accuracy    <       0.00027107 Ry

     iteration # 19     ecut=    45.00 Ry     beta= 0.70
     Davidson diagonalization with overlap
     ethr =  2.39E-06,  avg # of iterations =  2.0

     total cpu time spent up to now is        2.8 secs

     total energy              =     -85.21616404 Ry
     Harris-Foulkes estimate   =     -85.21617562 Ry
     estimated scf accuracy    <       0.00002872 Ry

     iteration # 20     ecut=    45.00 Ry     beta= 0.70
     Davidson diagonalization with overlap
     ethr =  2.61E-07,  avg # of iterations =  2.2

     total cpu time spent up to now is        2.9 secs

     total energy              =     -85.21616800 Ry
     Harris-Foulkes estimate   =     -85.21616861 Ry
     estimated scf accuracy    <       0.00000545 Ry

     iteration # 21     ecut=    45.00 Ry     beta= 0.70
     Davidson diagonalization with overlap
     ethr =  4.95E-08,  avg # of iterations =  2.3

     total cpu time spent up to now is        2.9 secs

     total energy              =     -85.21616876 Ry
     Harris-Foulkes estimate   =     -85.21616881 Ry
     estimated scf accuracy    <       0.00000013 Ry

     iteration # 22     ecut=    45.00 Ry     beta= 0.70
     Davidson diagonalization with overlap
     ethr =  1.15E-09,  avg # of iterations =  3.2

     total cpu time spent up to now is        3.0 secs

     total energy              =     -85.21616882 Ry
     Harris-Foulkes estimate   =     -85.21616884 Ry
     estimated scf accuracy    <       0.00000002 Ry

     iteration # 23     ecut=    45.00 Ry     beta= 0.70
     Davidson diagonalization with overlap
     ethr =  1.44E-10,  avg # of iterations =  3.5

     total cpu time spent up to now is        3.1 secs

     total energy              =     -85.21616882 Ry
     Harris-Foulkes estimate   =     -85.21616886 Ry
     estimated scf accuracy    <       0.00000041 Ry

     iteration # 24     ecut=    45.00 Ry     beta= 0.70
     Davidson diagonalization with overlap
     ethr =  1.44E-10,  avg # of iterations =  3.0

     total cpu time spent up to now is        3.2 secs

     total energy              =     -85.21616883 Ry
     Harris-Foulkes estimate   =     -85.21616883 Ry
     estimated scf accuracy    <       0.00000003 Ry

     iteration # 25     ecut=    45.00 Ry     beta= 0.70
     Davidson diagonalization with overlap
     ethr =  1.44E-10,  avg # of iterations =  1.0

     total cpu time spent up to now is        3.3 secs

     total energy              =     -85.21616883 Ry
     Harris-Foulkes estimate   =     -85.21616883 Ry
     estimated scf accuracy    <       0.00000002 Ry

     iteration # 26     ecut=    45.00 Ry     beta= 0.70
     Davidson diagonalization with overlap
     ethr =  1.44E-10,  avg # of iterations =  1.3

     total cpu time spent up to now is        3.3 secs

     End of self-consistent calculation

          k = 0.0000 0.0000 0.0000 (   561 PWs)   bands (ev):

     5.8366  11.1441  11.1441  11.1441  12.6881  12.6881  31.1403  35.0005
    35.0005  35.0005

          k =-0.2000 0.2000-0.2000 (   582 PWs)   bands (ev):

     7.1088  10.8935  11.4342  11.4342  12.6864  12.6864  29.0775  32.2563
    35.9781  35.9781

          k =-0.4000 0.4000-0.4000 (   589 PWs)   bands (ev):

     8.4334  11.1832  11.1832  13.1246  13.6648  13.6648  21.2127  30.7628
    33.9925  33.9925

          k = 0.0000 0.4000 0.0000 (   576 PWs)   bands (ev):

     7.5528  10.3331  11.9175  11.9673  11.9673  13.0710  32.2594  32.2594
    32.3688  32.9771

          k =-0.2000 0.6000-0.2000 (   592 PWs)   bands (ev):

     9.0916  10.3256  11.1782  12.1129  13.8212  14.3900  24.2048  30.2707
    30.3535  33.0329

          k = 0.6000-0.2000 0.6000 (   576 PWs)   bands (ev):

     9.3446  10.6254  11.7257  11.8311  13.6058  17.3888  19.7851  27.6068
    31.8259  32.2118

          k = 0.4000 0.0000 0.4000 (   592 PWs)   bands (ev):

     8.8208  10.5003  11.2381  12.0430  12.1994  14.2852  26.4253  28.4744
    33.5172  36.3808

          k = 0.0000 0.8000 0.0000 (   596 PWs)   bands (ev):

     8.8426   9.2230  13.7378  13.8072  13.8072  14.5317  24.6062  26.9145
    26.9145  32.5900

          k = 0.8000 0.0000 0.8000 (   586 PWs)   bands (ev):

     9.1636   9.6493  12.4675  13.2344  13.9433  19.4879  20.4267  23.6434
    27.6631  33.7927

          k = 0.6000-0.2000 1.0000 (   575 PWs)   bands (ev):

     9.9089  10.1673  10.8638  12.8082  13.7934  17.8247  22.8764  24.1768
    27.0804  37.2157

     the Fermi energy is    14.5784 ev

!    total energy              =     -85.21616886 Ry
     Harris-Foulkes estimate   =     -85.21616883 Ry
     estimated scf accuracy    <          3.7E-09 Ry

     The total energy is the sum of the following terms:

     one-electron contribution =      11.00081168 Ry
     hartree contribution      =       7.54742069 Ry
     xc contribution           =     -31.80961043 Ry
     ewald contribution        =     -71.95438543 Ry
     smearing contrib. (-TS)   =      -0.00040537 Ry

     convergence has been achieved in  26 iterations

     Forces acting on atoms (cartesian axes, Ry/au):

     atom    1 type  1   force =     0.00000000    0.00000000    0.00000000

     Total force =     0.000000     Total SCF correction =     0.000000


     Computing stress (Cartesian axis) and pressure

          total   stress  (Ry/bohr**3)                   (kbar)     P=    6.23
   0.00004233   0.00000000   0.00000000          6.23      0.00      0.00
   0.00000000   0.00004233   0.00000000          0.00      6.23      0.00
   0.00000000   0.00000000   0.00004233          0.00      0.00      6.23


     Writing output data file Au.save/

     init_run     :      0.17s CPU      0.18s WALL (       1 calls)
     electrons    :      2.16s CPU      2.31s WALL (       1 calls)
     forces       :      0.02s CPU      0.02s WALL (       1 calls)
     stress       :      0.06s CPU      0.06s WALL (       1 calls)

     Called by init_run:
     wfcinit      :      0.02s CPU      0.03s WALL (       1 calls)
     potinit      :      0.01s CPU      0.01s WALL (       1 calls)
     hinit0       :      0.14s CPU      0.14s WALL (       1 calls)

     Called by electrons:
     c_bands      :      1.53s CPU      1.64s WALL (      27 calls)
     sum_band     :      0.41s CPU      0.44s WALL (      27 calls)
     v_of_rho     :      0.08s CPU      0.08s WALL (      27 calls)
     newd         :      0.12s CPU      0.13s WALL (      27 calls)
     mix_rho      :      0.02s CPU      0.02s WALL (      27 calls)

     Called by c_bands:
     init_us_2    :      0.04s CPU      0.05s WALL (     570 calls)
     cegterg      :      1.46s CPU      1.56s WALL (     270 calls)

     Called by sum_band:
     sum_band:bec :      0.00s CPU      0.00s WALL (     270 calls)
     addusdens    :      0.12s CPU      0.12s WALL (      27 calls)

     Called by *egterg:
     h_psi        :      1.05s CPU      1.13s WALL (     874 calls)
     s_psi        :      0.03s CPU      0.04s WALL (     874 calls)
     g_psi        :      0.00s CPU      0.00s WALL (     594 calls)
     cdiaghg      :      0.19s CPU      0.21s WALL (     854 calls)

     Called by h_psi:
     h_psi:pot    :      1.04s CPU      1.12s WALL (     874 calls)
     h_psi:calbec :      0.06s CPU      0.06s WALL (     874 calls)
     vloc_psi     :      0.95s CPU      1.02s WALL (     874 calls)
     add_vuspsi   :      0.03s CPU      0.04s WALL (     874 calls)

     General routines
     calbec       :      0.08s CPU      0.08s WALL (    1194 calls)
     fft          :      0.04s CPU      0.05s WALL (     324 calls)
     ffts         :      0.00s CPU      0.00s WALL (      27 calls)
     fftw         :      1.08s CPU      1.16s WALL (   15656 calls)

     Parallel routines
     fft_scatt_xy :      0.10s CPU      0.10s WALL (   16007 calls)
     fft_scatt_yz :      0.39s CPU      0.42s WALL (   16007 calls)

     PWSCF        :     3.26s CPU         3.46s WALL


   This run was terminated on:  11:38:23  26Mar2024            

=------------------------------------------------------------------------------=
   JOB DONE.
=------------------------------------------------------------------------------=
