
     Program PWSCF v.6.3MaX starts on 26Mar2024 at 11:41:57 

     This program is part of the open-source Quantum ESPRESSO suite
     for quantum simulation of materials; please cite
         "P. Giannozzi et al., J. Phys.:Condens. Matter 21 395502 (2009);
         "P. Giannozzi et al., J. Phys.:Condens. Matter 29 465901 (2017);
          URL http://www.quantum-espresso.org", 
     in publications or presentations arising from this work. More details at
     http://www.quantum-espresso.org/quote

     Parallel version (MPI), running on     5 processors

     MPI processes distributed on     1 nodes
     R & G space division:  proc/nbgrp/npool/nimage =       5
     Waiting for input...
     Reading input from standard input

     Current dimensions of program PWSCF are:
     Max number of different atomic species (ntypx) = 10
     Max number of k-points (npk) =  40000
     Max angular momentum in pseudopotentials (lmaxx) =  3
               file Au.pbe-n-kjpaw_psl.1.0.0.UPF: wavefunction(s)  6S 5D renormalized

     Subspace diagonalization in iterative solution of the eigenvalue problem:
     a serial algorithm will be used


     Parallelization info
     --------------------
     sticks:   dense  smooth     PW     G-vecs:    dense   smooth      PW
     Min          84      84     24                 1115     1115     187
     Max          85      85     25                 1117     1117     191
     Sum         421     421    121                 5577     5577     941



     bravais-lattice index     =            2
     lattice parameter (alat)  =       7.7100  a.u.
     unit-cell volume          =     114.5785 (a.u.)^3
     number of atoms/cell      =            1
     number of atomic types    =            1
     number of electrons       =        11.00
     number of Kohn-Sham states=           10
     kinetic-energy cutoff     =      50.0000  Ry
     charge density cutoff     =     200.0000  Ry
     convergence threshold     =      1.0E-08
     mixing beta               =       0.7000
     number of iterations used =            8  plain     mixing
     Exchange-correlation      = SLA PW PBX PBC ( 1  4  3  4 0 0)

     celldm(1)=   7.710000  celldm(2)=   0.000000  celldm(3)=   0.000000
     celldm(4)=   0.000000  celldm(5)=   0.000000  celldm(6)=   0.000000

     crystal axes: (cart. coord. in units of alat)
               a(1) = (  -0.500000   0.000000   0.500000 )  
               a(2) = (   0.000000   0.500000   0.500000 )  
               a(3) = (  -0.500000   0.500000   0.000000 )  

     reciprocal axes: (cart. coord. in units 2 pi/alat)
               b(1) = ( -1.000000 -1.000000  1.000000 )  
               b(2) = (  1.000000  1.000000  1.000000 )  
               b(3) = ( -1.000000  1.000000 -1.000000 )  


     PseudoPot. # 1 for Au read from file:
     /home/lorenzo/pseudos/Au/Au.pbe-n-kjpaw_psl.1.0.0.UPF
     MD5 check sum: 4db85c736373c707a97ce4c36c2a9d23
     Pseudo is Projector augmented-wave + core cor, Zval = 11.0
     Generated using "atomic" code by A. Dal Corso v.6.3
     Shape of augmentation charge: PSQ
     Using radial grid of 1279 points,  6 beta functions with: 
                l(1) =   0
                l(2) =   0
                l(3) =   1
                l(4) =   1
                l(5) =   2
                l(6) =   2
     Q(r) pseudized with 0 coefficients 


     atomic species   valence    mass     pseudopotential
        Au            11.00   196.96600     Au( 1.00)

     48 Sym. Ops., with inversion, found



   Cartesian axes

     site n.     atom                  positions (alat units)
         1           Au  tau(   1) = (   0.0000000   0.0000000   0.0000000  )

     number of k points=     3  gaussian smearing, width (Ry)=  0.0100
                       cart. coord. in units 2pi/alat
        k(    1) = (   0.0000000   0.0000000   0.0000000), wk =   0.2500000
        k(    2) = (   0.5000000  -0.5000000   0.5000000), wk =   1.0000000
        k(    3) = (   0.0000000  -1.0000000   0.0000000), wk =   0.7500000

     Dense  grid:     5577 G-vectors     FFT dimensions: (  25,  25,  25)

     Estimated max dynamical RAM per process >       5.62 MB

     Estimated total dynamical RAM >      28.09 MB

     Initial potential from superposition of free atoms

     starting charge   10.99989, renormalised to   11.00000
     Starting wfcs are    9 randomized atomic wfcs +    1 random wfcs
     Checking if some PAW data can be deallocated... 

     total cpu time spent up to now is        1.2 secs

     Self-consistent Calculation

     iteration #  1     ecut=    50.00 Ry     beta= 0.70
     Davidson diagonalization with overlap
     ethr =  1.00E-02,  avg # of iterations =  8.3

     Threshold (ethr) on eigenvalues was too large:
     Diagonalizing with lowered threshold

     Davidson diagonalization with overlap
     ethr =  3.62E-04,  avg # of iterations =  2.0

     total cpu time spent up to now is        1.5 secs

     total energy              =    -774.87347465 Ry
     Harris-Foulkes estimate   =    -774.89493885 Ry
     estimated scf accuracy    <       0.03841952 Ry

     iteration #  2     ecut=    50.00 Ry     beta= 0.70
     Davidson diagonalization with overlap
     ethr =  3.49E-04,  avg # of iterations =  2.3

     total cpu time spent up to now is        1.6 secs

     total energy              =    -774.88741431 Ry
     Harris-Foulkes estimate   =    -774.90061623 Ry
     estimated scf accuracy    <       0.02447893 Ry

     iteration #  3     ecut=    50.00 Ry     beta= 0.70
     Davidson diagonalization with overlap
     ethr =  2.23E-04,  avg # of iterations =  1.7

     total cpu time spent up to now is        1.8 secs

     total energy              =    -774.88799002 Ry
     Harris-Foulkes estimate   =    -774.89006626 Ry
     estimated scf accuracy    <       0.00277722 Ry

     iteration #  4     ecut=    50.00 Ry     beta= 0.70
     Davidson diagonalization with overlap
     ethr =  2.52E-05,  avg # of iterations =  3.3

     total cpu time spent up to now is        2.0 secs

     total energy              =    -774.88736422 Ry
     Harris-Foulkes estimate   =    -774.89101519 Ry
     estimated scf accuracy    <       0.00905897 Ry

     iteration #  5     ecut=    50.00 Ry     beta= 0.70
     Davidson diagonalization with overlap
     ethr =  2.52E-05,  avg # of iterations =  2.0

     total cpu time spent up to now is        2.1 secs

     total energy              =    -774.88984889 Ry
     Harris-Foulkes estimate   =    -774.88991862 Ry
     estimated scf accuracy    <       0.00066284 Ry

     iteration #  6     ecut=    50.00 Ry     beta= 0.70
     Davidson diagonalization with overlap
     ethr =  6.03E-06,  avg # of iterations =  1.7

     total cpu time spent up to now is        2.3 secs

     total energy              =    -774.88973099 Ry
     Harris-Foulkes estimate   =    -774.88990289 Ry
     estimated scf accuracy    <       0.00051724 Ry

     iteration #  7     ecut=    50.00 Ry     beta= 0.70
     Davidson diagonalization with overlap
     ethr =  4.70E-06,  avg # of iterations =  1.0

     total cpu time spent up to now is        2.5 secs

     total energy              =    -774.88973641 Ry
     Harris-Foulkes estimate   =    -774.88976103 Ry
     estimated scf accuracy    <       0.00007872 Ry

     iteration #  8     ecut=    50.00 Ry     beta= 0.70
     Davidson diagonalization with overlap
     ethr =  7.16E-07,  avg # of iterations =  2.0

     total cpu time spent up to now is        2.7 secs

     total energy              =    -774.88974928 Ry
     Harris-Foulkes estimate   =    -774.88975026 Ry
     estimated scf accuracy    <       0.00000562 Ry

     iteration #  9     ecut=    50.00 Ry     beta= 0.70
     Davidson diagonalization with overlap
     ethr =  5.11E-08,  avg # of iterations =  3.0

     total cpu time spent up to now is        2.9 secs

     total energy              =    -774.88975203 Ry
     Harris-Foulkes estimate   =    -774.88975130 Ry
     estimated scf accuracy    <       0.00000234 Ry

     iteration # 10     ecut=    50.00 Ry     beta= 0.70
     Davidson diagonalization with overlap
     ethr =  2.12E-08,  avg # of iterations =  2.7

     total cpu time spent up to now is        3.1 secs

     total energy              =    -774.88975002 Ry
     Harris-Foulkes estimate   =    -774.88975355 Ry
     estimated scf accuracy    <       0.00001269 Ry

     iteration # 11     ecut=    50.00 Ry     beta= 0.70
     Davidson diagonalization with overlap
     ethr =  2.12E-08,  avg # of iterations =  2.0

     total cpu time spent up to now is        3.2 secs

     total energy              =    -774.88975077 Ry
     Harris-Foulkes estimate   =    -774.88975093 Ry
     estimated scf accuracy    <       0.00000162 Ry

     iteration # 12     ecut=    50.00 Ry     beta= 0.70
     Davidson diagonalization with overlap
     ethr =  1.47E-08,  avg # of iterations =  1.0

     total cpu time spent up to now is        3.4 secs

     total energy              =    -774.88975052 Ry
     Harris-Foulkes estimate   =    -774.88975081 Ry
     estimated scf accuracy    <       0.00000112 Ry

     iteration # 13     ecut=    50.00 Ry     beta= 0.70
     Davidson diagonalization with overlap
     ethr =  1.02E-08,  avg # of iterations =  1.0

     total cpu time spent up to now is        3.5 secs

     total energy              =    -774.88975058 Ry
     Harris-Foulkes estimate   =    -774.88975061 Ry
     estimated scf accuracy    <       0.00000015 Ry

     iteration # 14     ecut=    50.00 Ry     beta= 0.70
     Davidson diagonalization with overlap
     ethr =  1.35E-09,  avg # of iterations =  3.3

     total cpu time spent up to now is        3.7 secs

     total energy              =    -774.88975061 Ry
     Harris-Foulkes estimate   =    -774.88975061 Ry
     estimated scf accuracy    <       0.00000003 Ry

     iteration # 15     ecut=    50.00 Ry     beta= 0.70
     Davidson diagonalization with overlap
     ethr =  2.51E-10,  avg # of iterations =  2.0

     total cpu time spent up to now is        3.8 secs

     End of self-consistent calculation

          k = 0.0000 0.0000 0.0000 (   701 PWs)   bands (ev):

     6.1041  11.6950  11.6950  11.6950  13.3098  13.3098  31.3207  35.2683
    35.2683  35.2683

          k = 0.5000-0.5000 0.5000 (   700 PWs)   bands (ev):

     8.8680  11.6656  11.6656  14.5416  14.5416  15.0097  19.4025  30.5971
    33.6852  33.6852

          k = 0.0000-1.0000 0.0000 (   692 PWs)   bands (ev):

     9.1730   9.5314  14.5154  14.8651  14.8651  17.0386  22.0544  26.2686
    26.2686  33.3159

     the Fermi energy is    15.0805 ev

!    total energy              =    -774.88975061 Ry
     Harris-Foulkes estimate   =    -774.88975061 Ry
     estimated scf accuracy    <          3.4E-09 Ry

     total all-electron energy =    -38023.735842 Ry

     The total energy is the sum of the following terms:

     one-electron contribution =      13.93553979 Ry
     hartree contribution      =       7.94820720 Ry
     xc contribution           =     -32.25310854 Ry
     ewald contribution        =     -71.95438538 Ry
     one-center paw contrib.   =    -692.56350513 Ry
     smearing contrib. (-TS)   =      -0.00249854 Ry

     convergence has been achieved in  15 iterations

     Forces acting on atoms (cartesian axes, Ry/au):

     atom    1 type  1   force =     0.00000000    0.00000000    0.00000000

     Total force =     0.000000     Total SCF correction =     0.000000


     Computing stress (Cartesian axis) and pressure

          total   stress  (Ry/bohr**3)                   (kbar)     P=  590.79
   0.00401611  -0.00000000  -0.00000000        590.79     -0.00     -0.00
  -0.00000000   0.00401611   0.00000000         -0.00    590.79      0.00
  -0.00000000   0.00000000   0.00401611         -0.00      0.00    590.79


     Writing output data file Au.save/

     init_run     :      0.33s CPU      0.35s WALL (       1 calls)
     electrons    :      2.37s CPU      2.61s WALL (       1 calls)
     forces       :      0.02s CPU      0.02s WALL (       1 calls)
     stress       :      0.07s CPU      0.07s WALL (       1 calls)

     Called by init_run:
     wfcinit      :      0.01s CPU      0.02s WALL (       1 calls)
     potinit      :      0.14s CPU      0.15s WALL (       1 calls)
     hinit0       :      0.15s CPU      0.15s WALL (       1 calls)

     Called by electrons:
     c_bands      :      0.35s CPU      0.37s WALL (      16 calls)
     sum_band     :      0.18s CPU      0.19s WALL (      16 calls)
     v_of_rho     :      0.06s CPU      0.06s WALL (      16 calls)
     newd         :      0.11s CPU      0.12s WALL (      16 calls)
     PAW_pot      :      1.79s CPU      2.00s WALL (      16 calls)
     mix_rho      :      0.01s CPU      0.01s WALL (      16 calls)

     Called by c_bands:
     init_us_2    :      0.01s CPU      0.01s WALL (     105 calls)
     cegterg      :      0.33s CPU      0.35s WALL (      48 calls)

     Called by sum_band:
     sum_band:bec :      0.00s CPU      0.00s WALL (      48 calls)
     addusdens    :      0.09s CPU      0.09s WALL (      16 calls)

     Called by *egterg:
     h_psi        :      0.26s CPU      0.27s WALL (     169 calls)
     s_psi        :      0.01s CPU      0.01s WALL (     169 calls)
     g_psi        :      0.00s CPU      0.00s WALL (     118 calls)
     cdiaghg      :      0.04s CPU      0.04s WALL (     163 calls)

     Called by h_psi:
     h_psi:pot    :      0.26s CPU      0.27s WALL (     169 calls)
     h_psi:calbec :      0.01s CPU      0.01s WALL (     169 calls)
     vloc_psi     :      0.23s CPU      0.25s WALL (     169 calls)
     add_vuspsi   :      0.01s CPU      0.01s WALL (     169 calls)

     General routines
     calbec       :      0.02s CPU      0.03s WALL (     232 calls)
     fft          :      0.05s CPU      0.05s WALL (     203 calls)
     ffts         :      0.00s CPU      0.00s WALL (      16 calls)
     fftw         :      0.26s CPU      0.28s WALL (    2850 calls)

     Parallel routines
     fft_scatt_xy :      0.02s CPU      0.02s WALL (    3069 calls)
     fft_scatt_yz :      0.13s CPU      0.13s WALL (    3069 calls)

     PWSCF        :     3.67s CPU         3.97s WALL


   This run was terminated on:  11:42: 1  26Mar2024            

=------------------------------------------------------------------------------=
   JOB DONE.
=------------------------------------------------------------------------------=
