
     Program PWSCF v.6.3MaX starts on 26Mar2024 at 11:30:28 

     This program is part of the open-source Quantum ESPRESSO suite
     for quantum simulation of materials; please cite
         "P. Giannozzi et al., J. Phys.:Condens. Matter 21 395502 (2009);
         "P. Giannozzi et al., J. Phys.:Condens. Matter 29 465901 (2017);
          URL http://www.quantum-espresso.org", 
     in publications or presentations arising from this work. More details at
     http://www.quantum-espresso.org/quote

     Parallel version (MPI), running on     5 processors

     MPI processes distributed on     1 nodes
     R & G space division:  proc/nbgrp/npool/nimage =       5
     Waiting for input...
     Reading input from standard input

     Current dimensions of program PWSCF are:
     Max number of different atomic species (ntypx) = 10
     Max number of k-points (npk) =  40000
     Max angular momentum in pseudopotentials (lmaxx) =  3

     Subspace diagonalization in iterative solution of the eigenvalue problem:
     a serial algorithm will be used


     Parallelization info
     --------------------
     sticks:   dense  smooth     PW     G-vecs:    dense   smooth      PW
     Min          56      56     19                  627      627     128
     Max          57      57     20                  630      630     130
     Sum         283     283     97                 3143     3143     645



     bravais-lattice index     =            2
     lattice parameter (alat)  =       7.7100  a.u.
     unit-cell volume          =     114.5785 (a.u.)^3
     number of atoms/cell      =            1
     number of atomic types    =            1
     number of electrons       =        11.00
     number of Kohn-Sham states=           10
     kinetic-energy cutoff     =      35.0000  Ry
     charge density cutoff     =     140.0000  Ry
     convergence threshold     =      1.0E-08
     mixing beta               =       0.7000
     number of iterations used =            8  plain     mixing
     Exchange-correlation      = PBESOL ( 1  4 10  8 0 0)

     celldm(1)=   7.710000  celldm(2)=   0.000000  celldm(3)=   0.000000
     celldm(4)=   0.000000  celldm(5)=   0.000000  celldm(6)=   0.000000

     crystal axes: (cart. coord. in units of alat)
               a(1) = (  -0.500000   0.000000   0.500000 )  
               a(2) = (   0.000000   0.500000   0.500000 )  
               a(3) = (  -0.500000   0.500000   0.000000 )  

     reciprocal axes: (cart. coord. in units 2 pi/alat)
               b(1) = ( -1.000000 -1.000000  1.000000 )  
               b(2) = (  1.000000  1.000000  1.000000 )  
               b(3) = ( -1.000000  1.000000 -1.000000 )  


     PseudoPot. # 1 for Au read from file:
     /home/lorenzo/pseudos/Au/Au.pbesol-n-rrkjus_psl.1.0.0.UPF
     MD5 check sum: 09626e9411213730b9a56fcc59c03ca8
     Pseudo is Ultrasoft + core correction, Zval = 11.0
     Generated using "atomic" code by A. Dal Corso v.6.3
     Using radial grid of 1279 points,  6 beta functions with: 
                l(1) =   0
                l(2) =   0
                l(3) =   1
                l(4) =   1
                l(5) =   2
                l(6) =   2
     Q(r) pseudized with 0 coefficients 


     atomic species   valence    mass     pseudopotential
        Au            11.00   196.96600     Au( 1.00)

     48 Sym. Ops., with inversion, found



   Cartesian axes

     site n.     atom                  positions (alat units)
         1           Au  tau(   1) = (   0.0000000   0.0000000   0.0000000  )

     number of k points=    20  gaussian smearing, width (Ry)=  0.0100
                       cart. coord. in units 2pi/alat
        k(    1) = (   0.0000000   0.0000000   0.0000000), wk =   0.0058309
        k(    2) = (  -0.1428571   0.1428571  -0.1428571), wk =   0.0466472
        k(    3) = (  -0.2857143   0.2857143  -0.2857143), wk =   0.0466472
        k(    4) = (  -0.4285714   0.4285714  -0.4285714), wk =   0.0466472
        k(    5) = (   0.0000000   0.2857143   0.0000000), wk =   0.0349854
        k(    6) = (  -0.1428571   0.4285714  -0.1428571), wk =   0.1399417
        k(    7) = (  -0.2857143   0.5714286  -0.2857143), wk =   0.1399417
        k(    8) = (   0.5714286  -0.2857143   0.5714286), wk =   0.1399417
        k(    9) = (   0.4285714  -0.1428571   0.4285714), wk =   0.1399417
        k(   10) = (   0.2857143  -0.0000000   0.2857143), wk =   0.0699708
        k(   11) = (   0.0000000   0.5714286   0.0000000), wk =   0.0349854
        k(   12) = (  -0.1428571   0.7142857  -0.1428571), wk =   0.1399417
        k(   13) = (   0.7142857  -0.1428571   0.7142857), wk =   0.1399417
        k(   14) = (   0.5714286   0.0000000   0.5714286), wk =   0.0699708
        k(   15) = (   0.0000000   0.8571429   0.0000000), wk =   0.0349854
        k(   16) = (   0.8571429  -0.0000000   0.8571429), wk =   0.0699708
        k(   17) = (  -0.2857143   0.5714286   0.0000000), wk =   0.1399417
        k(   18) = (   0.5714286  -0.2857143   0.8571429), wk =   0.2798834
        k(   19) = (   0.7142857  -0.1428571   1.0000000), wk =   0.1399417
        k(   20) = (   0.5714286   0.0000000   0.8571429), wk =   0.1399417

     Dense  grid:     3143 G-vectors     FFT dimensions: (  24,  24,  24)

     Estimated max dynamical RAM per process >       3.83 MB

     Estimated total dynamical RAM >      19.14 MB

     Initial potential from superposition of free atoms

     starting charge   10.99990, renormalised to   11.00000
     Starting wfcs are    9 randomized atomic wfcs +    1 random wfcs

     total cpu time spent up to now is        1.0 secs

     Self-consistent Calculation

     iteration #  1     ecut=    35.00 Ry     beta= 0.70
     Davidson diagonalization with overlap
     ethr =  1.00E-02,  avg # of iterations =  5.3

     Threshold (ethr) on eigenvalues was too large:
     Diagonalizing with lowered threshold

     Davidson diagonalization with overlap
     ethr =  5.56E-04,  avg # of iterations =  1.7

     total cpu time spent up to now is        1.4 secs

     total energy              =     -85.19080456 Ry
     Harris-Foulkes estimate   =     -85.23116439 Ry
     estimated scf accuracy    <       0.06192468 Ry

     iteration #  2     ecut=    35.00 Ry     beta= 0.70
     Davidson diagonalization with overlap
     ethr =  5.63E-04,  avg # of iterations =  4.3

     total cpu time spent up to now is        1.6 secs

     total energy              =     -86.96476547 Ry
     Harris-Foulkes estimate   =     -85.25400809 Ry
     estimated scf accuracy    <       1.77659767 Ry

     iteration #  3     ecut=    35.00 Ry     beta= 0.70
     Davidson diagonalization with overlap
     ethr =  5.63E-04,  avg # of iterations =  4.1

     total cpu time spent up to now is        1.9 secs

     total energy              =     -48.47401430 Ry
     Harris-Foulkes estimate   =    -472.81911656 Ry
     estimated scf accuracy    <   98856.36139919 Ry

     iteration #  4     ecut=    35.00 Ry     beta= 0.70
     Davidson diagonalization with overlap
     ethr =  5.63E-04,  avg # of iterations =  6.0

     total cpu time spent up to now is        2.3 secs

     total energy              =     -85.22078006 Ry
     Harris-Foulkes estimate   =     -85.22106597 Ry
     estimated scf accuracy    <       0.12774146 Ry

     iteration #  5     ecut=    35.00 Ry     beta= 0.70
     Davidson diagonalization with overlap
     ethr =  5.63E-04,  avg # of iterations =  1.2

     total cpu time spent up to now is        2.5 secs

     total energy              =     -85.22003515 Ry
     Harris-Foulkes estimate   =     -85.22095654 Ry
     estimated scf accuracy    <       0.12329480 Ry

     iteration #  6     ecut=    35.00 Ry     beta= 0.70
     Davidson diagonalization with overlap
     ethr =  5.63E-04,  avg # of iterations =  1.0

     total cpu time spent up to now is        2.7 secs

     total energy              =     -85.21957105 Ry
     Harris-Foulkes estimate   =     -85.22008494 Ry
     estimated scf accuracy    <       0.11158142 Ry

     iteration #  7     ecut=    35.00 Ry     beta= 0.70
     Davidson diagonalization with overlap
     ethr =  5.63E-04,  avg # of iterations =  1.0

     total cpu time spent up to now is        2.9 secs

     total energy              =     -85.21920757 Ry
     Harris-Foulkes estimate   =     -85.21958941 Ry
     estimated scf accuracy    <       0.10437070 Ry

     iteration #  8     ecut=    35.00 Ry     beta= 0.70
     Davidson diagonalization with overlap
     ethr =  5.63E-04,  avg # of iterations =  1.0

     total cpu time spent up to now is        3.0 secs

     total energy              =     -85.21863450 Ry
     Harris-Foulkes estimate   =     -85.21922042 Ry
     estimated scf accuracy    <       0.09958505 Ry

     iteration #  9     ecut=    35.00 Ry     beta= 0.70
     Davidson diagonalization with overlap
     ethr =  5.63E-04,  avg # of iterations =  1.2

     total cpu time spent up to now is        3.1 secs

     total energy              =     -85.21848948 Ry
     Harris-Foulkes estimate   =     -85.21865942 Ry
     estimated scf accuracy    <       0.09148022 Ry

     iteration # 10     ecut=    35.00 Ry     beta= 0.70
     Davidson diagonalization with overlap
     ethr =  5.63E-04,  avg # of iterations =  1.0

     total cpu time spent up to now is        3.2 secs

     total energy              =     -85.21810422 Ry
     Harris-Foulkes estimate   =     -85.21850144 Ry
     estimated scf accuracy    <       0.08913836 Ry

     iteration # 11     ecut=    35.00 Ry     beta= 0.70
     Davidson diagonalization with overlap
     ethr =  5.63E-04,  avg # of iterations =  1.0

     total cpu time spent up to now is        3.3 secs

     total energy              =     -85.21924673 Ry
     Harris-Foulkes estimate   =     -85.21812429 Ry
     estimated scf accuracy    <       0.08235639 Ry

     iteration # 12     ecut=    35.00 Ry     beta= 0.70
     Davidson diagonalization with overlap
     ethr =  5.63E-04,  avg # of iterations =  1.0

     total cpu time spent up to now is        3.4 secs

     total energy              =     -85.20596507 Ry
     Harris-Foulkes estimate   =     -85.21927358 Ry
     estimated scf accuracy    <       0.08938988 Ry

     iteration # 13     ecut=    35.00 Ry     beta= 0.70
     Davidson diagonalization with overlap
     ethr =  5.63E-04,  avg # of iterations =  3.2

     total cpu time spent up to now is        3.6 secs

     total energy              =     -85.21146644 Ry
     Harris-Foulkes estimate   =     -85.21171493 Ry
     estimated scf accuracy    <       0.00448667 Ry

     iteration # 14     ecut=    35.00 Ry     beta= 0.70
     Davidson diagonalization with overlap
     ethr =  4.08E-05,  avg # of iterations =  2.5

     total cpu time spent up to now is        3.7 secs

     total energy              =     -85.21146661 Ry
     Harris-Foulkes estimate   =     -85.21150397 Ry
     estimated scf accuracy    <       0.00342094 Ry

     iteration # 15     ecut=    35.00 Ry     beta= 0.70
     Davidson diagonalization with overlap
     ethr =  3.11E-05,  avg # of iterations =  1.0

     total cpu time spent up to now is        3.8 secs

     total energy              =     -85.21135144 Ry
     Harris-Foulkes estimate   =     -85.21147695 Ry
     estimated scf accuracy    <       0.00304080 Ry

     iteration # 16     ecut=    35.00 Ry     beta= 0.70
     Davidson diagonalization with overlap
     ethr =  2.76E-05,  avg # of iterations =  1.5

     total cpu time spent up to now is        3.9 secs

     total energy              =     -85.21124398 Ry
     Harris-Foulkes estimate   =     -85.21137748 Ry
     estimated scf accuracy    <       0.00197208 Ry

     iteration # 17     ecut=    35.00 Ry     beta= 0.70
     Davidson diagonalization with overlap
     ethr =  1.79E-05,  avg # of iterations =  2.2

     total cpu time spent up to now is        4.0 secs

     total energy              =     -85.21133591 Ry
     Harris-Foulkes estimate   =     -85.21127939 Ry
     estimated scf accuracy    <       0.00122576 Ry

     iteration # 18     ecut=    35.00 Ry     beta= 0.70
     Davidson diagonalization with overlap
     ethr =  1.11E-05,  avg # of iterations =  1.0

     total cpu time spent up to now is        4.2 secs

     total energy              =     -85.21190555 Ry
     Harris-Foulkes estimate   =     -85.21134410 Ry
     estimated scf accuracy    <       0.00123384 Ry

     iteration # 19     ecut=    35.00 Ry     beta= 0.70
     Davidson diagonalization with overlap
     ethr =  1.11E-05,  avg # of iterations =  3.5

     total cpu time spent up to now is        4.4 secs

     total energy              =     -85.20992871 Ry
     Harris-Foulkes estimate   =     -85.21244157 Ry
     estimated scf accuracy    <       0.01006491 Ry

     iteration # 20     ecut=    35.00 Ry     beta= 0.70
     Davidson diagonalization with overlap
     ethr =  1.11E-05,  avg # of iterations =  3.8

     total cpu time spent up to now is        4.5 secs

     total energy              =     -85.21119371 Ry
     Harris-Foulkes estimate   =     -85.21120131 Ry
     estimated scf accuracy    <       0.00000660 Ry

     iteration # 21     ecut=    35.00 Ry     beta= 0.70
     Davidson diagonalization with overlap
     ethr =  6.00E-08,  avg # of iterations =  3.8

     total cpu time spent up to now is        4.7 secs

     total energy              =     -85.21118716 Ry
     Harris-Foulkes estimate   =     -85.21121870 Ry
     estimated scf accuracy    <       0.00015046 Ry

     iteration # 22     ecut=    35.00 Ry     beta= 0.70
     Davidson diagonalization with overlap
     ethr =  6.00E-08,  avg # of iterations =  3.0

     total cpu time spent up to now is        4.9 secs

     total energy              =     -85.21120025 Ry
     Harris-Foulkes estimate   =     -85.21120123 Ry
     estimated scf accuracy    <       0.00000179 Ry

     iteration # 23     ecut=    35.00 Ry     beta= 0.70
     Davidson diagonalization with overlap
     ethr =  1.62E-08,  avg # of iterations =  2.7

     total cpu time spent up to now is        5.0 secs

     total energy              =     -85.21120269 Ry
     Harris-Foulkes estimate   =     -85.21120220 Ry
     estimated scf accuracy    <       0.00000926 Ry

     iteration # 24     ecut=    35.00 Ry     beta= 0.70
     Davidson diagonalization with overlap
     ethr =  1.62E-08,  avg # of iterations =  1.6

     total cpu time spent up to now is        5.1 secs

     total energy              =     -85.21120110 Ry
     Harris-Foulkes estimate   =     -85.21120285 Ry
     estimated scf accuracy    <       0.00001447 Ry

     iteration # 25     ecut=    35.00 Ry     beta= 0.70
     Davidson diagonalization with overlap
     ethr =  1.62E-08,  avg # of iterations =  2.0

     total cpu time spent up to now is        5.3 secs

     total energy              =     -85.21120085 Ry
     Harris-Foulkes estimate   =     -85.21120151 Ry
     estimated scf accuracy    <       0.00000398 Ry

     iteration # 26     ecut=    35.00 Ry     beta= 0.70
     Davidson diagonalization with overlap
     ethr =  1.62E-08,  avg # of iterations =  2.0

     total cpu time spent up to now is        5.4 secs

     total energy              =     -85.21120103 Ry
     Harris-Foulkes estimate   =     -85.21120112 Ry
     estimated scf accuracy    <       0.00000030 Ry

     iteration # 27     ecut=    35.00 Ry     beta= 0.70
     Davidson diagonalization with overlap
     ethr =  2.73E-09,  avg # of iterations =  2.6

     total cpu time spent up to now is        5.5 secs

     total energy              =     -85.21120110 Ry
     Harris-Foulkes estimate   =     -85.21120111 Ry
     estimated scf accuracy    <       0.00000003 Ry

     iteration # 28     ecut=    35.00 Ry     beta= 0.70
     Davidson diagonalization with overlap
     ethr =  2.87E-10,  avg # of iterations =  2.4

     total cpu time spent up to now is        5.6 secs

     End of self-consistent calculation

          k = 0.0000 0.0000 0.0000 (   411 PWs)   bands (ev):

     5.8376  11.1402  11.1402  11.1402  12.6833  12.6833  31.1414  35.0018
    35.0018  35.0018

          k =-0.1429 0.1429-0.1429 (   396 PWs)   bands (ev):

     6.5253  10.9517  11.3455  11.3455  12.6225  12.6225  31.0732  32.1446
    35.6254  35.6254

          k =-0.2857 0.2857-0.2857 (   395 PWs)   bands (ev):

     7.9855  11.2175  11.3805  11.3805  13.0325  13.0325  25.6651  31.7991
    35.6432  35.6432

          k =-0.4286 0.4286-0.4286 (   401 PWs)   bands (ev):

     8.4491  11.1427  11.1427  13.7568  13.7741  13.7741  20.2582  30.5987
    33.6930  33.6930

          k = 0.0000 0.2857 0.0000 (   399 PWs)   bands (ev):

     6.7606  10.6839  11.5691  11.5691  12.2104  12.8896  32.1675  32.9602
    33.7124  33.7124

          k =-0.1429 0.4286-0.1429 (   398 PWs)   bands (ev):

     8.0761  10.4040  11.4321  11.8426  12.7170  13.2596  27.9451  32.3693
    32.4323  34.4496

          k =-0.2857 0.5714-0.2857 (   402 PWs)   bands (ev):

     8.8983  10.9103  11.3987  11.6458  13.8716  14.7666  22.1355  30.8107
    31.5580  32.7430

          k = 0.5714-0.2857 0.5714 (   397 PWs)   bands (ev):

     8.9579  10.8086  11.4913  12.2925  13.7346  16.7379  19.1942  29.5541
    31.7766  32.4980

          k = 0.4286-0.1429 0.4286 (   398 PWs)   bands (ev):

     8.8607  10.9437  11.2572  11.6416  12.7999  14.5286  24.0935  29.5521
    32.6490  35.6128

          k = 0.2857-0.0000 0.2857 (   387 PWs)   bands (ev):

     7.5658  10.6419  11.4783  11.7118  12.2015  13.2304  29.2154  30.8501
    34.6984  35.5477

          k = 0.0000 0.5714 0.0000 (   411 PWs)   bands (ev):

     8.6757   9.7766  12.0213  12.7303  12.7303  13.3750  29.7190  29.7190
    30.4954  32.3062

          k =-0.1429 0.7143-0.1429 (   402 PWs)   bands (ev):

     9.1653   9.6841  11.9413  12.8053  13.9342  15.0618  24.4136  27.7141
    28.4818  33.3974

          k = 0.7143-0.1429 0.7143 (   404 PWs)   bands (ev):

     9.4498  10.2542  11.5720  12.5108  13.8213  18.9741  19.7516  25.2753
    29.4471  33.1228

          k = 0.5714 0.0000 0.5714 (   399 PWs)   bands (ev):

     9.8538  10.7524  10.8053  12.2211  13.0224  16.6459  23.4219  24.4558
    32.3508  32.7642

          k = 0.0000 0.8571 0.0000 (   396 PWs)   bands (ev):

     8.7828   9.1387  13.7906  14.0031  14.0031  15.3845  23.3490  26.4648
    26.4648  32.6917

          k = 0.8571-0.0000 0.8571 (   411 PWs)   bands (ev):

     8.9761   9.3454  13.0698  13.5033  14.0807  18.4187  21.0253  24.4041
    26.8685  33.8255

          k =-0.2857 0.5714 0.0000 (   403 PWs)   bands (ev):

     9.3121  10.1126  10.9809  12.6501  12.7277  14.6156  25.9300  27.7732
    30.9701  36.1774

          k = 0.5714-0.2857 0.8571 (   404 PWs)   bands (ev):

     9.7158  10.3946  11.0360  12.3112  13.6460  17.1657  21.2586  26.8709
    28.8847  34.9047

          k = 0.7143-0.1429 1.0000 (   400 PWs)   bands (ev):

     9.3893   9.6450  11.8817  13.2279  13.9982  17.7025  22.5664  24.9874
    26.1043  36.2496

          k = 0.5714 0.0000 0.8571 (   402 PWs)   bands (ev):

     9.7937  10.2670  11.1098  12.6157  13.9907  19.6090  21.7043  22.8449
    26.7207  36.3676

     the Fermi energy is    15.3651 ev

!    total energy              =     -85.21120114 Ry
     Harris-Foulkes estimate   =     -85.21120111 Ry
     estimated scf accuracy    <          3.3E-09 Ry

     The total energy is the sum of the following terms:

     one-electron contribution =      11.00794229 Ry
     hartree contribution      =       7.54379137 Ry
     xc contribution           =     -31.80844990 Ry
     ewald contribution        =     -71.95438545 Ry
     smearing contrib. (-TS)   =      -0.00009945 Ry

     convergence has been achieved in  28 iterations

     Forces acting on atoms (cartesian axes, Ry/au):

     atom    1 type  1   force =     0.00000000    0.00000000    0.00000000

     Total force =     0.000000     Total SCF correction =     0.000000


     Computing stress (Cartesian axis) and pressure

          total   stress  (Ry/bohr**3)                   (kbar)     P=    3.29
   0.00002237   0.00000000   0.00000000          3.29      0.00      0.00
   0.00000000   0.00002237   0.00000000          0.00      3.29      0.00
  -0.00000000   0.00000000   0.00002237         -0.00      0.00      3.29


     Writing output data file Au.save/

     init_run     :      0.16s CPU      0.17s WALL (       1 calls)
     electrons    :      4.30s CPU      4.61s WALL (       1 calls)
     forces       :      0.02s CPU      0.02s WALL (       1 calls)
     stress       :      0.05s CPU      0.05s WALL (       1 calls)

     Called by init_run:
     wfcinit      :      0.03s CPU      0.03s WALL (       1 calls)
     potinit      :      0.01s CPU      0.01s WALL (       1 calls)
     hinit0       :      0.12s CPU      0.12s WALL (       1 calls)

     Called by electrons:
     c_bands      :      3.35s CPU      3.61s WALL (      29 calls)
     sum_band     :      0.68s CPU      0.73s WALL (      29 calls)
     v_of_rho     :      0.11s CPU      0.11s WALL (      29 calls)
     newd         :      0.10s CPU      0.10s WALL (      29 calls)
     mix_rho      :      0.05s CPU      0.05s WALL (      29 calls)

     Called by c_bands:
     init_us_2    :      0.07s CPU      0.08s WALL (    1220 calls)
     cegterg      :      3.21s CPU      3.46s WALL (     580 calls)

     Called by sum_band:
     sum_band:bec :      0.01s CPU      0.01s WALL (     580 calls)
     addusdens    :      0.10s CPU      0.10s WALL (      29 calls)

     Called by *egterg:
     h_psi        :      2.31s CPU      2.50s WALL (    1979 calls)
     s_psi        :      0.06s CPU      0.06s WALL (    1979 calls)
     g_psi        :      0.01s CPU      0.01s WALL (    1379 calls)
     cdiaghg      :      0.45s CPU      0.49s WALL (    1939 calls)

     Called by h_psi:
     h_psi:pot    :      2.30s CPU      2.49s WALL (    1979 calls)
     h_psi:calbec :      0.10s CPU      0.11s WALL (    1979 calls)
     vloc_psi     :      2.13s CPU      2.30s WALL (    1979 calls)
     add_vuspsi   :      0.06s CPU      0.06s WALL (    1979 calls)

     General routines
     calbec       :      0.14s CPU      0.15s WALL (    2659 calls)
     fft          :      0.09s CPU      0.09s WALL (     346 calls)
     ffts         :      0.00s CPU      0.00s WALL (      29 calls)
     fftw         :      2.38s CPU      2.56s WALL (   35306 calls)

     Parallel routines
     fft_scatt_xy :      0.20s CPU      0.22s WALL (   35681 calls)
     fft_scatt_yz :      0.94s CPU      1.00s WALL (   35681 calls)

     PWSCF        :     5.40s CPU         5.78s WALL


   This run was terminated on:  11:30:34  26Mar2024            

=------------------------------------------------------------------------------=
   JOB DONE.
=------------------------------------------------------------------------------=
