
     Program PWSCF v.6.3MaX starts on 26Mar2024 at 11:35:20 

     This program is part of the open-source Quantum ESPRESSO suite
     for quantum simulation of materials; please cite
         "P. Giannozzi et al., J. Phys.:Condens. Matter 21 395502 (2009);
         "P. Giannozzi et al., J. Phys.:Condens. Matter 29 465901 (2017);
          URL http://www.quantum-espresso.org", 
     in publications or presentations arising from this work. More details at
     http://www.quantum-espresso.org/quote

     Parallel version (MPI), running on     5 processors

     MPI processes distributed on     1 nodes
     R & G space division:  proc/nbgrp/npool/nimage =       5
     Waiting for input...
     Reading input from standard input

     Current dimensions of program PWSCF are:
     Max number of different atomic species (ntypx) = 10
     Max number of k-points (npk) =  40000
     Max angular momentum in pseudopotentials (lmaxx) =  3

     Subspace diagonalization in iterative solution of the eigenvalue problem:
     a serial algorithm will be used


     Parallelization info
     --------------------
     sticks:   dense  smooth     PW     G-vecs:    dense   smooth      PW
     Min          62      62     21                  765      765     148
     Max          63      63     22                  770      770     151
     Sum         313     313    109                 3839     3839     749



     bravais-lattice index     =            2
     lattice parameter (alat)  =       7.7100  a.u.
     unit-cell volume          =     114.5785 (a.u.)^3
     number of atoms/cell      =            1
     number of atomic types    =            1
     number of electrons       =        11.00
     number of Kohn-Sham states=           10
     kinetic-energy cutoff     =      40.0000  Ry
     charge density cutoff     =     160.0000  Ry
     convergence threshold     =      1.0E-08
     mixing beta               =       0.7000
     number of iterations used =            8  plain     mixing
     Exchange-correlation      = PBE ( 1  4  3  4 0 0)

     celldm(1)=   7.710000  celldm(2)=   0.000000  celldm(3)=   0.000000
     celldm(4)=   0.000000  celldm(5)=   0.000000  celldm(6)=   0.000000

     crystal axes: (cart. coord. in units of alat)
               a(1) = (  -0.500000   0.000000   0.500000 )  
               a(2) = (   0.000000   0.500000   0.500000 )  
               a(3) = (  -0.500000   0.500000   0.000000 )  

     reciprocal axes: (cart. coord. in units 2 pi/alat)
               b(1) = ( -1.000000 -1.000000  1.000000 )  
               b(2) = (  1.000000  1.000000  1.000000 )  
               b(3) = ( -1.000000  1.000000 -1.000000 )  


     PseudoPot. # 1 for Au read from file:
     /home/lorenzo/pseudos/Au/Au.pbe-n-rrkjus_psl.1.0.0.UPF
     MD5 check sum: d7e77ba19504afed2c9b41c931dde4f0
     Pseudo is Ultrasoft + core correction, Zval = 11.0
     Generated using "atomic" code by A. Dal Corso v.6.3
     Using radial grid of 1279 points,  6 beta functions with: 
                l(1) =   0
                l(2) =   0
                l(3) =   1
                l(4) =   1
                l(5) =   2
                l(6) =   2
     Q(r) pseudized with 0 coefficients 


     atomic species   valence    mass     pseudopotential
        Au            11.00   196.96600     Au( 1.00)

     48 Sym. Ops., with inversion, found



   Cartesian axes

     site n.     atom                  positions (alat units)
         1           Au  tau(   1) = (   0.0000000   0.0000000   0.0000000  )

     number of k points=    35  gaussian smearing, width (Ry)=  0.0100
                       cart. coord. in units 2pi/alat
        k(    1) = (   0.0000000   0.0000000   0.0000000), wk =   0.0027435
        k(    2) = (  -0.1111111   0.1111111  -0.1111111), wk =   0.0219479
        k(    3) = (  -0.2222222   0.2222222  -0.2222222), wk =   0.0219479
        k(    4) = (  -0.3333333   0.3333333  -0.3333333), wk =   0.0219479
        k(    5) = (  -0.4444444   0.4444444  -0.4444444), wk =   0.0219479
        k(    6) = (   0.0000000   0.2222222   0.0000000), wk =   0.0164609
        k(    7) = (  -0.1111111   0.3333333  -0.1111111), wk =   0.0658436
        k(    8) = (  -0.2222222   0.4444444  -0.2222222), wk =   0.0658436
        k(    9) = (  -0.3333333   0.5555556  -0.3333333), wk =   0.0658436
        k(   10) = (   0.5555556  -0.3333333   0.5555556), wk =   0.0658436
        k(   11) = (   0.4444444  -0.2222222   0.4444444), wk =   0.0658436
        k(   12) = (   0.3333333  -0.1111111   0.3333333), wk =   0.0658436
        k(   13) = (   0.2222222  -0.0000000   0.2222222), wk =   0.0329218
        k(   14) = (   0.0000000   0.4444444   0.0000000), wk =   0.0164609
        k(   15) = (  -0.1111111   0.5555556  -0.1111111), wk =   0.0658436
        k(   16) = (  -0.2222222   0.6666667  -0.2222222), wk =   0.0658436
        k(   17) = (   0.6666667  -0.2222222   0.6666667), wk =   0.0658436
        k(   18) = (   0.5555556  -0.1111111   0.5555556), wk =   0.0658436
        k(   19) = (   0.4444444   0.0000000   0.4444444), wk =   0.0329218
        k(   20) = (   0.0000000   0.6666667   0.0000000), wk =   0.0164609
        k(   21) = (  -0.1111111   0.7777778  -0.1111111), wk =   0.0658436
        k(   22) = (   0.7777778  -0.1111111   0.7777778), wk =   0.0658436
        k(   23) = (   0.6666667  -0.0000000   0.6666667), wk =   0.0329218
        k(   24) = (   0.0000000   0.8888889   0.0000000), wk =   0.0164609
        k(   25) = (   0.8888889   0.0000000   0.8888889), wk =   0.0329218
        k(   26) = (  -0.2222222   0.4444444   0.0000000), wk =   0.0658436
        k(   27) = (  -0.3333333   0.5555556  -0.1111111), wk =   0.1316872
        k(   28) = (   0.5555556  -0.3333333   0.7777778), wk =   0.1316872
        k(   29) = (  -0.2222222   0.6666667   0.0000000), wk =   0.0658436
        k(   30) = (   0.6666667  -0.2222222   0.8888889), wk =   0.1316872
        k(   31) = (   0.5555556  -0.1111111   0.7777778), wk =   0.1316872
        k(   32) = (   0.4444444   0.0000000   0.6666667), wk =   0.0658436
        k(   33) = (   0.7777778  -0.1111111   1.0000000), wk =   0.0658436
        k(   34) = (   0.6666667  -0.0000000   0.8888889), wk =   0.0658436
        k(   35) = (   0.5555556  -0.1111111   1.0000000), wk =   0.0658436

     Dense  grid:     3839 G-vectors     FFT dimensions: (  24,  24,  24)

     Estimated max dynamical RAM per process >       4.69 MB

     Estimated total dynamical RAM >      23.43 MB

     Initial potential from superposition of free atoms

     starting charge   10.99989, renormalised to   11.00000
     Starting wfcs are    9 randomized atomic wfcs +    1 random wfcs

     total cpu time spent up to now is        1.1 secs

     Self-consistent Calculation

     iteration #  1     ecut=    40.00 Ry     beta= 0.70
     Davidson diagonalization with overlap
     ethr =  1.00E-02,  avg # of iterations =  5.4

     Threshold (ethr) on eigenvalues was too large:
     Diagonalizing with lowered threshold

     Davidson diagonalization with overlap
     ethr =  4.70E-04,  avg # of iterations =  1.6

     total cpu time spent up to now is        1.8 secs

     total energy              =     -85.37195590 Ry
     Harris-Foulkes estimate   =     -85.40470848 Ry
     estimated scf accuracy    <       0.05206639 Ry

     iteration #  2     ecut=    40.00 Ry     beta= 0.70
     Davidson diagonalization with overlap
     ethr =  4.73E-04,  avg # of iterations =  2.4

     total cpu time spent up to now is        2.0 secs

     total energy              =     -85.38593910 Ry
     Harris-Foulkes estimate   =     -85.39276652 Ry
     estimated scf accuracy    <       0.01090303 Ry

     iteration #  3     ecut=    40.00 Ry     beta= 0.70
     Davidson diagonalization with overlap
     ethr =  9.91E-05,  avg # of iterations =  2.0

     total cpu time spent up to now is        2.3 secs

     total energy              =     -85.38855757 Ry
     Harris-Foulkes estimate   =     -85.38860349 Ry
     estimated scf accuracy    <       0.00017051 Ry

     iteration #  4     ecut=    40.00 Ry     beta= 0.70
     Davidson diagonalization with overlap
     ethr =  1.55E-06,  avg # of iterations =  4.1

     total cpu time spent up to now is        2.6 secs

     total energy              =     -85.38868963 Ry
     Harris-Foulkes estimate   =     -85.38873805 Ry
     estimated scf accuracy    <       0.00009141 Ry

     iteration #  5     ecut=    40.00 Ry     beta= 0.70
     Davidson diagonalization with overlap
     ethr =  8.31E-07,  avg # of iterations =  1.2

     total cpu time spent up to now is        2.8 secs

     total energy              =     -85.38869676 Ry
     Harris-Foulkes estimate   =     -85.38869981 Ry
     estimated scf accuracy    <       0.00000504 Ry

     iteration #  6     ecut=    40.00 Ry     beta= 0.70
     Davidson diagonalization with overlap
     ethr =  4.58E-08,  avg # of iterations =  3.1

     total cpu time spent up to now is        3.1 secs

     total energy              =     -85.38870082 Ry
     Harris-Foulkes estimate   =     -85.38870107 Ry
     estimated scf accuracy    <       0.00000076 Ry

     iteration #  7     ecut=    40.00 Ry     beta= 0.70
     Davidson diagonalization with overlap
     ethr =  6.89E-09,  avg # of iterations =  1.0

     total cpu time spent up to now is        3.4 secs

     total energy              =     -85.38870071 Ry
     Harris-Foulkes estimate   =     -85.38870085 Ry
     estimated scf accuracy    <       0.00000022 Ry

     iteration #  8     ecut=    40.00 Ry     beta= 0.70
     Davidson diagonalization with overlap
     ethr =  1.97E-09,  avg # of iterations =  2.7

     total cpu time spent up to now is        3.7 secs

     total energy              =     -85.38870079 Ry
     Harris-Foulkes estimate   =     -85.38870080 Ry
     estimated scf accuracy    <       0.00000003 Ry

     iteration #  9     ecut=    40.00 Ry     beta= 0.70
     Davidson diagonalization with overlap
     ethr =  2.76E-10,  avg # of iterations =  1.8

     total cpu time spent up to now is        4.0 secs

     End of self-consistent calculation

          k = 0.0000 0.0000 0.0000 (   531 PWs)   bands (ev):

     6.0960  11.3169  11.3169  11.3169  12.8452  12.8452  31.3961  35.2591
    35.2591  35.2591

          k =-0.1111 0.1111-0.1111 (   513 PWs)   bands (ev):

     6.5200  11.1904  11.4544  11.4544  12.7935  12.7935  31.7084  32.8602
    35.6612  35.6612

          k =-0.2222 0.2222-0.2222 (   489 PWs)   bands (ev):

     7.6085  11.0948  11.6121  11.6121  12.9075  12.9075  28.4180  32.4594
    36.2546  36.2546

          k =-0.3333 0.3333-0.3333 (   492 PWs)   bands (ev):

     8.5060  11.4689  11.4689  12.0360  13.4675  13.4675  23.9470  31.5744
    35.1675  35.1675

          k =-0.4444 0.4444-0.4444 (   489 PWs)   bands (ev):

     8.6617  11.3011  11.3011  13.9824  13.9824  14.3431  19.9893  30.7900
    33.8197  33.8197

          k = 0.0000 0.2222 0.0000 (   503 PWs)   bands (ev):

     6.6638  11.0309  11.5775  11.5775  12.5433  12.9722  32.0127  33.7144
    34.5134  34.5134

          k =-0.1111 0.3333-0.1111 (   497 PWs)   bands (ev):

     7.5596  10.7780  11.7428  11.8299  12.5006  13.1475  30.1207  32.6958
    33.7435  35.6168

          k =-0.2222 0.4444-0.2222 (   496 PWs)   bands (ev):

     8.6433  11.0035  11.4311  11.8028  13.3996  13.6148  25.6282  32.1129
    32.9342  34.8301

          k =-0.3333 0.5556-0.3333 (   491 PWs)   bands (ev):

     8.9597  11.1466  11.6112  12.2122  14.0457  15.0983  21.2868  31.1053
    32.4468  33.0577

          k = 0.5556-0.3333 0.5556 (   484 PWs)   bands (ev):

     8.9757  11.0897  11.5150  12.8574  13.9565  16.4833  19.2407  30.5554
    32.0718  33.1033

          k = 0.4444-0.2222 0.4444 (   494 PWs)   bands (ev):

     8.9557  11.2487  11.6089  11.9862  13.3352  14.7930  22.7228  30.6080
    32.4824  35.1866

          k = 0.3333-0.1111 0.3333 (   495 PWs)   bands (ev):

     8.3511  10.9047  11.5811  11.8217  12.6029  13.7172  27.1281  31.1520
    34.0841  36.6921

          k = 0.2222-0.0000 0.2222 (   501 PWs)   bands (ev):

     7.1874  10.9657  11.6453  11.6691  12.5078  13.0610  31.0100  31.7881
    34.5270  37.4681

          k = 0.0000 0.4444 0.0000 (   496 PWs)   bands (ev):

     8.1403  10.3659  12.0158  12.3184  12.3184  13.3042  31.8137  31.8137
    32.5592  33.4592

          k =-0.1111 0.5556-0.1111 (   492 PWs)   bands (ev):

     9.0210  10.1413  11.6692  12.5392  13.4433  13.6863  27.5949  30.4996
    31.3882  33.4912

          k =-0.2222 0.6667-0.2222 (   491 PWs)   bands (ev):

     9.4418  10.4996  11.4685  12.3784  14.1103  15.5703  23.0479  29.2972
    30.0732  33.1451

          k = 0.6667-0.2222 0.6667 (   482 PWs)   bands (ev):

     9.5810  10.7047  11.7538  12.1914  13.9918  18.5285  19.3029  27.6074
    30.9300  32.7261

          k = 0.5556-0.1111 0.5556 (   492 PWs)   bands (ev):

     9.7799  10.8455  11.4640  12.1348  13.3322  16.6344  22.2415  26.7406
    32.7512  33.0639

          k = 0.4444 0.0000 0.4444 (   493 PWs)   bands (ev):

     9.4942  10.6937  11.2768  12.1979  12.5747  14.9901  25.6961  27.6035
    33.3782  35.9189

          k = 0.0000 0.6667 0.0000 (   480 PWs)   bands (ev):

     9.1239   9.6917  12.9932  13.3653  13.3653  13.7020  28.2465  28.6302
    28.6302  32.7088

          k =-0.1111 0.7778-0.1111 (   482 PWs)   bands (ev):

     9.2481   9.6142  12.8277  13.3665  14.1438  15.6454  24.4644  26.8471
    27.8329  33.7251

          k = 0.7778-0.1111 0.7778 (   484 PWs)   bands (ev):

     9.4599  10.0337  12.2726  13.1071  14.1016  18.8069  21.0877  24.7792
    28.5106  33.8014

          k = 0.6667-0.0000 0.6667 (   498 PWs)   bands (ev):

     9.8298  10.6391  11.5131  12.7338  13.6178  18.4930  22.4868  23.2148
    30.4912  33.3482

          k = 0.0000 0.8889 0.0000 (   472 PWs)   bands (ev):

     8.9604   9.2888  13.9747  14.2473  14.2473  16.0929  23.0038  26.5294
    26.5294  33.1570

          k = 0.8889 0.0000 0.8889 (   478 PWs)   bands (ev):

     9.0851   9.4101  13.5937  13.7936  14.2954  18.1157  21.5053  25.1607
    26.7903  34.0091

          k =-0.2222 0.4444 0.0000 (   492 PWs)   bands (ev):

     8.5522  10.4997  11.5167  12.3228  12.5305  13.7485  28.4991  30.1017
    33.5756  35.1384

          k =-0.3333 0.5556-0.1111 (   491 PWs)   bands (ev):

     9.4322  10.7749  11.0919  12.2494  13.2870  14.9808  24.5100  28.9531
    31.6662  35.2173

          k = 0.5556-0.3333 0.7778 (   487 PWs)   bands (ev):

     9.5129  10.7866  11.7370  12.0713  13.8760  17.0629  20.4637  28.9603
    30.1824  34.0244

          k =-0.2222 0.6667 0.0000 (   480 PWs)   bands (ev):

     9.5442   9.9454  11.6235  13.3139  13.3560  15.0615  25.8400  27.4905
    29.2877  35.4732

          k = 0.6667-0.2222 0.8889 (   489 PWs)   bands (ev):

     9.7738  10.2683  11.4319  12.9461  13.9786  17.4048  22.3385  26.3962
    27.9133  35.3583

          k = 0.5556-0.1111 0.7778 (   489 PWs)   bands (ev):

    10.0478  10.4909  11.3026  12.6158  13.8978  19.0107  20.7410  25.1994
    28.5517  35.2840

          k = 0.4444 0.0000 0.6667 (   493 PWs)   bands (ev):

    10.3609  10.6204  10.6467  12.6818  13.3746  16.7612  23.8420  25.0876
    30.1375  35.8302

          k = 0.7778-0.1111 1.0000 (   484 PWs)   bands (ev):

     9.3368   9.6026  12.7153  13.6198  14.2455  17.7731  22.5277  25.5937
    26.1996  35.4788

          k = 0.6667-0.0000 0.8889 (   487 PWs)   bands (ev):

     9.6508  10.0707  11.9892  13.0858  14.2380  20.5401  20.5796  23.7050
    26.8242  35.8360

          k = 0.5556-0.1111 1.0000 (   491 PWs)   bands (ev):

    10.0517  10.5282  11.0693  12.8051  14.2405  19.6013  22.4920  23.3089
    26.1962  38.4592

     the Fermi energy is    16.0280 ev

!    total energy              =     -85.38870079 Ry
     Harris-Foulkes estimate   =     -85.38870079 Ry
     estimated scf accuracy    <          5.8E-09 Ry

     The total energy is the sum of the following terms:

     one-electron contribution =      11.07645451 Ry
     hartree contribution      =       7.59516536 Ry
     xc contribution           =     -32.10589818 Ry
     ewald contribution        =     -71.95438540 Ry
     smearing contrib. (-TS)   =      -0.00003707 Ry

     convergence has been achieved in   9 iterations

     Forces acting on atoms (cartesian axes, Ry/au):

     atom    1 type  1   force =     0.00000000    0.00000000    0.00000000

     Total force =     0.000000     Total SCF correction =     0.000000


     Computing stress (Cartesian axis) and pressure

          total   stress  (Ry/bohr**3)                   (kbar)     P=  102.78
   0.00069868   0.00000000   0.00000000        102.78      0.00      0.00
   0.00000000   0.00069868  -0.00000000          0.00    102.78     -0.00
   0.00000000  -0.00000000   0.00069868          0.00     -0.00    102.78


     Writing output data file Au.save/

     init_run     :      0.21s CPU      0.22s WALL (       1 calls)
     electrons    :      2.69s CPU      2.86s WALL (       1 calls)
     forces       :      0.03s CPU      0.03s WALL (       1 calls)
     stress       :      0.10s CPU      0.10s WALL (       1 calls)

     Called by init_run:
     wfcinit      :      0.06s CPU      0.07s WALL (       1 calls)
     potinit      :      0.00s CPU      0.01s WALL (       1 calls)
     hinit0       :      0.14s CPU      0.14s WALL (       1 calls)

     Called by electrons:
     c_bands      :      2.22s CPU      2.36s WALL (      10 calls)
     sum_band     :      0.39s CPU      0.42s WALL (      10 calls)
     v_of_rho     :      0.04s CPU      0.04s WALL (      10 calls)
     newd         :      0.04s CPU      0.04s WALL (      10 calls)
     mix_rho      :      0.00s CPU      0.00s WALL (      10 calls)

     Called by c_bands:
     init_us_2    :      0.06s CPU      0.06s WALL (     805 calls)
     cegterg      :      2.13s CPU      2.26s WALL (     350 calls)

     Called by sum_band:
     sum_band:bec :      0.00s CPU      0.00s WALL (     350 calls)
     addusdens    :      0.04s CPU      0.04s WALL (      10 calls)

     Called by *egterg:
     h_psi        :      1.56s CPU      1.66s WALL (    1266 calls)
     s_psi        :      0.04s CPU      0.04s WALL (    1266 calls)
     g_psi        :      0.00s CPU      0.00s WALL (     881 calls)
     cdiaghg      :      0.30s CPU      0.32s WALL (    1196 calls)

     Called by h_psi:
     h_psi:pot    :      1.56s CPU      1.65s WALL (    1266 calls)
     h_psi:calbec :      0.07s CPU      0.08s WALL (    1266 calls)
     vloc_psi     :      1.43s CPU      1.52s WALL (    1266 calls)
     add_vuspsi   :      0.04s CPU      0.05s WALL (    1266 calls)

     General routines
     calbec       :      0.13s CPU      0.13s WALL (    1791 calls)
     fft          :      0.03s CPU      0.03s WALL (     137 calls)
     ffts         :      0.00s CPU      0.00s WALL (      10 calls)
     fftw         :      1.58s CPU      1.68s WALL (   22236 calls)

     Parallel routines
     fft_scatt_xy :      0.13s CPU      0.14s WALL (   22383 calls)
     fft_scatt_yz :      0.60s CPU      0.63s WALL (   22383 calls)

     PWSCF        :     4.00s CPU         4.26s WALL


   This run was terminated on:  11:35:24  26Mar2024            

=------------------------------------------------------------------------------=
   JOB DONE.
=------------------------------------------------------------------------------=
