
     Program PWSCF v.6.3MaX starts on 26Mar2024 at 12:14:23 

     This program is part of the open-source Quantum ESPRESSO suite
     for quantum simulation of materials; please cite
         "P. Giannozzi et al., J. Phys.:Condens. Matter 21 395502 (2009);
         "P. Giannozzi et al., J. Phys.:Condens. Matter 29 465901 (2017);
          URL http://www.quantum-espresso.org", 
     in publications or presentations arising from this work. More details at
     http://www.quantum-espresso.org/quote

     Parallel version (MPI), running on     5 processors

     MPI processes distributed on     1 nodes
     R & G space division:  proc/nbgrp/npool/nimage =       5
     Waiting for input...
     Reading input from standard input

     Current dimensions of program PWSCF are:
     Max number of different atomic species (ntypx) = 10
     Max number of k-points (npk) =  40000
     Max angular momentum in pseudopotentials (lmaxx) =  3
               file Au.pbesol-n-kjpaw_psl.1.0.0.UPF: wavefunction(s)  6S 5D renormalized

     Subspace diagonalization in iterative solution of the eigenvalue problem:
     a serial algorithm will be used


     Parallelization info
     --------------------
     sticks:   dense  smooth     PW     G-vecs:    dense   smooth      PW
     Min         122     122     39                 1997     1997     351
     Max         123     123     40                 1997     1997     352
     Sum         613     613    199                 9985     9985    1759



     bravais-lattice index     =            2
     lattice parameter (alat)  =       7.7100  a.u.
     unit-cell volume          =     114.5785 (a.u.)^3
     number of atoms/cell      =            1
     number of atomic types    =            1
     number of electrons       =        11.00
     number of Kohn-Sham states=           10
     kinetic-energy cutoff     =      75.0000  Ry
     charge density cutoff     =     300.0000  Ry
     convergence threshold     =      1.0E-08
     mixing beta               =       0.7000
     number of iterations used =            8  plain     mixing
     Exchange-correlation      = SLA PW PSX PSC ( 1  4 10  8 0 0)

     celldm(1)=   7.710000  celldm(2)=   0.000000  celldm(3)=   0.000000
     celldm(4)=   0.000000  celldm(5)=   0.000000  celldm(6)=   0.000000

     crystal axes: (cart. coord. in units of alat)
               a(1) = (  -0.500000   0.000000   0.500000 )  
               a(2) = (   0.000000   0.500000   0.500000 )  
               a(3) = (  -0.500000   0.500000   0.000000 )  

     reciprocal axes: (cart. coord. in units 2 pi/alat)
               b(1) = ( -1.000000 -1.000000  1.000000 )  
               b(2) = (  1.000000  1.000000  1.000000 )  
               b(3) = ( -1.000000  1.000000 -1.000000 )  


     PseudoPot. # 1 for Au read from file:
     /home/lorenzo/pseudos/Au/Au.pbesol-n-kjpaw_psl.1.0.0.UPF
     MD5 check sum: abc371be705c47a6b6a6b4088b452d3e
     Pseudo is Projector augmented-wave + core cor, Zval = 11.0
     Generated using "atomic" code by A. Dal Corso v.6.3
     Shape of augmentation charge: PSQ
     Using radial grid of 1279 points,  6 beta functions with: 
                l(1) =   0
                l(2) =   0
                l(3) =   1
                l(4) =   1
                l(5) =   2
                l(6) =   2
     Q(r) pseudized with 0 coefficients 


     atomic species   valence    mass     pseudopotential
        Au            11.00   196.96600     Au( 1.00)

     48 Sym. Ops., with inversion, found



   Cartesian axes

     site n.     atom                  positions (alat units)
         1           Au  tau(   1) = (   0.0000000   0.0000000   0.0000000  )

     number of k points=    10  gaussian smearing, width (Ry)=  0.0100
                       cart. coord. in units 2pi/alat
        k(    1) = (   0.0000000   0.0000000   0.0000000), wk =   0.0160000
        k(    2) = (  -0.2000000   0.2000000  -0.2000000), wk =   0.1280000
        k(    3) = (  -0.4000000   0.4000000  -0.4000000), wk =   0.1280000
        k(    4) = (   0.0000000   0.4000000   0.0000000), wk =   0.0960000
        k(    5) = (  -0.2000000   0.6000000  -0.2000000), wk =   0.3840000
        k(    6) = (   0.6000000  -0.2000000   0.6000000), wk =   0.3840000
        k(    7) = (   0.4000000   0.0000000   0.4000000), wk =   0.1920000
        k(    8) = (   0.0000000   0.8000000   0.0000000), wk =   0.0960000
        k(    9) = (   0.8000000   0.0000000   0.8000000), wk =   0.1920000
        k(   10) = (   0.6000000  -0.2000000   1.0000000), wk =   0.3840000

     Dense  grid:     9985 G-vectors     FFT dimensions: (  32,  32,  32)

     Estimated max dynamical RAM per process >       9.64 MB

     Estimated total dynamical RAM >      48.22 MB

     Initial potential from superposition of free atoms

     starting charge   10.99990, renormalised to   11.00000
     Starting wfcs are    9 randomized atomic wfcs +    1 random wfcs
     Checking if some PAW data can be deallocated... 

     total cpu time spent up to now is        1.3 secs

     Self-consistent Calculation

     iteration #  1     ecut=    75.00 Ry     beta= 0.70
     Davidson diagonalization with overlap
     ethr =  1.00E-02,  avg # of iterations =  5.0

     Threshold (ethr) on eigenvalues was too large:
     Diagonalizing with lowered threshold

     Davidson diagonalization with overlap
     ethr =  5.50E-04,  avg # of iterations =  2.6

     total cpu time spent up to now is        1.7 secs

     total energy              =    -764.66663940 Ry
     Harris-Foulkes estimate   =    -764.71042123 Ry
     estimated scf accuracy    <       0.06336492 Ry

     iteration #  2     ecut=    75.00 Ry     beta= 0.70
     Davidson diagonalization with overlap
     ethr =  5.76E-04,  avg # of iterations =  3.0

     negative rho (up, down):  1.517E-02 0.000E+00

     total cpu time spent up to now is        2.0 secs

     total energy              =    -764.70770909 Ry
     Harris-Foulkes estimate   =    -764.70070946 Ry
     estimated scf accuracy    <       0.05961126 Ry

     iteration #  3     ecut=    75.00 Ry     beta= 0.70
     Davidson diagonalization with overlap
     ethr =  5.42E-04,  avg # of iterations =  4.3

     total cpu time spent up to now is        2.3 secs

     total energy              =    -731.05340260 Ry
     Harris-Foulkes estimate   =    -779.06412318 Ry
     estimated scf accuracy    <  151460.63496783 Ry

     iteration #  4     ecut=    75.00 Ry     beta= 0.70
     Davidson diagonalization with overlap
     ethr =  5.42E-04,  avg # of iterations =  5.7

     total cpu time spent up to now is        2.7 secs

     total energy              =    -764.69129318 Ry
     Harris-Foulkes estimate   =    -764.69129632 Ry
     estimated scf accuracy    <       0.01683404 Ry

     iteration #  5     ecut=    75.00 Ry     beta= 0.70
     Davidson diagonalization with overlap
     ethr =  1.53E-04,  avg # of iterations =  1.5

     total cpu time spent up to now is        2.9 secs

     total energy              =    -764.69131579 Ry
     Harris-Foulkes estimate   =    -764.69132324 Ry
     estimated scf accuracy    <       0.01647667 Ry

     iteration #  6     ecut=    75.00 Ry     beta= 0.70
     Davidson diagonalization with overlap
     ethr =  1.50E-04,  avg # of iterations =  1.0

     total cpu time spent up to now is        3.2 secs

     total energy              =    -764.69131429 Ry
     Harris-Foulkes estimate   =    -764.69131833 Ry
     estimated scf accuracy    <       0.01628569 Ry

     iteration #  7     ecut=    75.00 Ry     beta= 0.70
     Davidson diagonalization with overlap
     ethr =  1.48E-04,  avg # of iterations =  1.0

     total cpu time spent up to now is        3.4 secs

     total energy              =    -764.69131136 Ry
     Harris-Foulkes estimate   =    -764.69131507 Ry
     estimated scf accuracy    <       0.01614813 Ry

     iteration #  8     ecut=    75.00 Ry     beta= 0.70
     Davidson diagonalization with overlap
     ethr =  1.47E-04,  avg # of iterations =  1.0

     total cpu time spent up to now is        3.7 secs

     total energy              =    -764.69130704 Ry
     Harris-Foulkes estimate   =    -764.69131167 Ry
     estimated scf accuracy    <       0.01603400 Ry

     iteration #  9     ecut=    75.00 Ry     beta= 0.70
     Davidson diagonalization with overlap
     ethr =  1.46E-04,  avg # of iterations =  1.0

     total cpu time spent up to now is        3.9 secs

     total energy              =    -764.69130386 Ry
     Harris-Foulkes estimate   =    -764.69130720 Ry
     estimated scf accuracy    <       0.01593262 Ry

     iteration # 10     ecut=    75.00 Ry     beta= 0.70
     Davidson diagonalization with overlap
     ethr =  1.45E-04,  avg # of iterations =  1.0

     total cpu time spent up to now is        4.1 secs

     total energy              =    -764.69129971 Ry
     Harris-Foulkes estimate   =    -764.69130395 Ry
     estimated scf accuracy    <       0.01585297 Ry

     iteration # 11     ecut=    75.00 Ry     beta= 0.70
     Davidson diagonalization with overlap
     ethr =  1.44E-04,  avg # of iterations =  1.0

     total cpu time spent up to now is        4.4 secs

     total energy              =    -764.69129755 Ry
     Harris-Foulkes estimate   =    -764.69129978 Ry
     estimated scf accuracy    <       0.01577274 Ry

     iteration # 12     ecut=    75.00 Ry     beta= 0.70
     Davidson diagonalization with overlap
     ethr =  1.43E-04,  avg # of iterations =  1.0

     total cpu time spent up to now is        4.6 secs

     total energy              =    -764.68979473 Ry
     Harris-Foulkes estimate   =    -764.69129759 Ry
     estimated scf accuracy    <       0.01572279 Ry

     iteration # 13     ecut=    75.00 Ry     beta= 0.70
     Davidson diagonalization with overlap
     ethr =  1.43E-04,  avg # of iterations =  2.7

     total cpu time spent up to now is        4.8 secs

     total energy              =    -764.69040357 Ry
     Harris-Foulkes estimate   =    -764.69035949 Ry
     estimated scf accuracy    <       0.00169233 Ry

     iteration # 14     ecut=    75.00 Ry     beta= 0.70
     Davidson diagonalization with overlap
     ethr =  1.54E-05,  avg # of iterations =  1.5

     total cpu time spent up to now is        5.1 secs

     total energy              =    -764.69022800 Ry
     Harris-Foulkes estimate   =    -764.69041400 Ry
     estimated scf accuracy    <       0.00190139 Ry

     iteration # 15     ecut=    75.00 Ry     beta= 0.70
     Davidson diagonalization with overlap
     ethr =  1.54E-05,  avg # of iterations =  2.1

     total cpu time spent up to now is        5.3 secs

     total energy              =    -764.69023204 Ry
     Harris-Foulkes estimate   =    -764.69028144 Ry
     estimated scf accuracy    <       0.00039297 Ry

     iteration # 16     ecut=    75.00 Ry     beta= 0.70
     Davidson diagonalization with overlap
     ethr =  3.57E-06,  avg # of iterations =  3.1

     total cpu time spent up to now is        5.6 secs

     total energy              =    -764.69026560 Ry
     Harris-Foulkes estimate   =    -764.69026804 Ry
     estimated scf accuracy    <       0.00000270 Ry

     iteration # 17     ecut=    75.00 Ry     beta= 0.70
     Davidson diagonalization with overlap
     ethr =  2.46E-08,  avg # of iterations =  3.4

     total cpu time spent up to now is        5.9 secs

     total energy              =    -764.69029514 Ry
     Harris-Foulkes estimate   =    -764.69027219 Ry
     estimated scf accuracy    <       0.00005674 Ry

     iteration # 18     ecut=    75.00 Ry     beta= 0.70
     Davidson diagonalization with overlap
     ethr =  2.46E-08,  avg # of iterations =  3.7

     total cpu time spent up to now is        6.2 secs

     total energy              =    -764.69019397 Ry
     Harris-Foulkes estimate   =    -764.69039627 Ry
     estimated scf accuracy    <       0.00194044 Ry

     iteration # 19     ecut=    75.00 Ry     beta= 0.70
     Davidson diagonalization with overlap
     ethr =  2.46E-08,  avg # of iterations =  3.7

     total cpu time spent up to now is        6.5 secs

     total energy              =    -764.69026906 Ry
     Harris-Foulkes estimate   =    -764.69027619 Ry
     estimated scf accuracy    <       0.00011608 Ry

     iteration # 20     ecut=    75.00 Ry     beta= 0.70
     Davidson diagonalization with overlap
     ethr =  2.46E-08,  avg # of iterations =  2.4

     total cpu time spent up to now is        6.9 secs

     total energy              =    -764.69026396 Ry
     Harris-Foulkes estimate   =    -764.69027093 Ry
     estimated scf accuracy    <       0.00003427 Ry

     iteration # 21     ecut=    75.00 Ry     beta= 0.70
     Davidson diagonalization with overlap
     ethr =  2.46E-08,  avg # of iterations =  3.0

     total cpu time spent up to now is        7.3 secs

     total energy              =    -764.69026896 Ry
     Harris-Foulkes estimate   =    -764.69026955 Ry
     estimated scf accuracy    <       0.00001009 Ry

     iteration # 22     ecut=    75.00 Ry     beta= 0.70
     Davidson diagonalization with overlap
     ethr =  2.46E-08,  avg # of iterations =  1.5

     total cpu time spent up to now is        7.5 secs

     total energy              =    -764.69026857 Ry
     Harris-Foulkes estimate   =    -764.69026911 Ry
     estimated scf accuracy    <       0.00000327 Ry

     iteration # 23     ecut=    75.00 Ry     beta= 0.70
     Davidson diagonalization with overlap
     ethr =  2.46E-08,  avg # of iterations =  2.1

     total cpu time spent up to now is        7.8 secs

     total energy              =    -764.69026893 Ry
     Harris-Foulkes estimate   =    -764.69026895 Ry
     estimated scf accuracy    <       0.00000018 Ry

     iteration # 24     ecut=    75.00 Ry     beta= 0.70
     Davidson diagonalization with overlap
     ethr =  1.60E-09,  avg # of iterations =  1.9

     total cpu time spent up to now is        8.1 secs

     total energy              =    -764.69026895 Ry
     Harris-Foulkes estimate   =    -764.69026895 Ry
     estimated scf accuracy    <       0.00000012 Ry

     iteration # 25     ecut=    75.00 Ry     beta= 0.70
     Davidson diagonalization with overlap
     ethr =  1.08E-09,  avg # of iterations =  1.0

     total cpu time spent up to now is        8.3 secs

     total energy              =    -764.69026889 Ry
     Harris-Foulkes estimate   =    -764.69026895 Ry
     estimated scf accuracy    <       0.00000011 Ry

     iteration # 26     ecut=    75.00 Ry     beta= 0.70
     Davidson diagonalization with overlap
     ethr =  1.02E-09,  avg # of iterations =  2.5

     total cpu time spent up to now is        8.6 secs

     total energy              =    -764.69026892 Ry
     Harris-Foulkes estimate   =    -764.69026900 Ry
     estimated scf accuracy    <       0.00000083 Ry

     iteration # 27     ecut=    75.00 Ry     beta= 0.70
     Davidson diagonalization with overlap
     ethr =  1.02E-09,  avg # of iterations =  2.1

     total cpu time spent up to now is        8.8 secs

     total energy              =    -764.69026894 Ry
     Harris-Foulkes estimate   =    -764.69026895 Ry
     estimated scf accuracy    <       0.00000008 Ry

     iteration # 28     ecut=    75.00 Ry     beta= 0.70
     Davidson diagonalization with overlap
     ethr =  6.97E-10,  avg # of iterations =  1.0

     total cpu time spent up to now is        9.1 secs

     total energy              =    -764.69026895 Ry
     Harris-Foulkes estimate   =    -764.69026894 Ry
     estimated scf accuracy    <       0.00000003 Ry

     iteration # 29     ecut=    75.00 Ry     beta= 0.70
     Davidson diagonalization with overlap
     ethr =  3.08E-10,  avg # of iterations =  1.0

     total cpu time spent up to now is        9.3 secs

     total energy              =    -764.69026894 Ry
     Harris-Foulkes estimate   =    -764.69026895 Ry
     estimated scf accuracy    <       0.00000003 Ry

     iteration # 30     ecut=    75.00 Ry     beta= 0.70
     Davidson diagonalization with overlap
     ethr =  2.76E-10,  avg # of iterations =  1.1

     total cpu time spent up to now is        9.5 secs

     total energy              =    -764.69026895 Ry
     Harris-Foulkes estimate   =    -764.69026895 Ry
     estimated scf accuracy    <       0.00000001 Ry

     iteration # 31     ecut=    75.00 Ry     beta= 0.70
     Davidson diagonalization with overlap
     ethr =  1.06E-10,  avg # of iterations =  1.2

     total cpu time spent up to now is        9.8 secs

     End of self-consistent calculation

          k = 0.0000 0.0000 0.0000 (  1243 PWs)   bands (ev):

     5.8143  11.0976  11.0976  11.0976  12.6362  12.6362  31.1332  34.9831
    34.9831  34.9831

          k =-0.2000 0.2000-0.2000 (  1266 PWs)   bands (ev):

     7.0858  10.8499  11.3869  11.3869  12.6349  12.6349  29.0514  32.2474
    35.9499  35.9499

          k =-0.4000 0.4000-0.4000 (  1251 PWs)   bands (ev):

     8.4019  11.1371  11.1371  13.0949  13.6094  13.6094  21.1753  30.7524
    33.9648  33.9648

          k = 0.0000 0.4000 0.0000 (  1279 PWs)   bands (ev):

     7.5296  10.2899  11.8707  11.9185  11.9185  13.0176  32.2326  32.2326
    32.3364  32.9675

          k =-0.2000 0.6000-0.2000 (  1266 PWs)   bands (ev):

     9.0597  10.2862  11.1355  12.0640  13.7650  14.3432  24.1726  30.2247
    30.3225  33.0124

          k = 0.6000-0.2000 0.6000 (  1259 PWs)   bands (ev):

     9.3089  10.5831  11.6842  11.7834  13.5509  17.3487  19.7453  27.5684
    31.7837  32.1920

          k = 0.4000 0.0000 0.4000 (  1259 PWs)   bands (ev):

     8.7951  10.4580  11.1937  11.9945  12.1495  14.2319  26.3922  28.4440
    33.4956  36.3701

          k = 0.0000 0.8000 0.0000 (  1258 PWs)   bands (ev):

     8.8072   9.1837  13.6814  13.7520  13.7520  14.5025  24.5607  26.8882
    26.8882  32.5336

          k = 0.8000 0.0000 0.8000 (  1248 PWs)   bands (ev):

     9.1259   9.6104  12.4223  13.1812  13.8873  19.4536  20.3931  23.5952
    27.6303  33.7567

          k = 0.6000-0.2000 1.0000 (  1243 PWs)   bands (ev):

     9.8705  10.1265  10.8234  12.7579  13.7382  17.7840  22.8408  24.1443
    27.0277  37.1914

     the Fermi energy is    14.5425 ev

!    total energy              =    -764.69026895 Ry
     Harris-Foulkes estimate   =    -764.69026895 Ry
     estimated scf accuracy    <          8.9E-09 Ry

     total all-electron energy =    -38013.524731 Ry

     The total energy is the sum of the following terms:

     one-electron contribution =      13.84870068 Ry
     hartree contribution      =       7.58612846 Ry
     xc contribution           =     -31.82504276 Ry
     ewald contribution        =     -71.95438534 Ry
     one-center paw contrib.   =    -682.34529190 Ry
     smearing contrib. (-TS)   =      -0.00037808 Ry

     convergence has been achieved in  31 iterations

     Forces acting on atoms (cartesian axes, Ry/au):

     atom    1 type  1   force =     0.00000000    0.00000000    0.00000000

     Total force =     0.000000     Total SCF correction =     0.000000


     Computing stress (Cartesian axis) and pressure

          total   stress  (Ry/bohr**3)                   (kbar)     P=    4.69
   0.00003190   0.00000000  -0.00000000          4.69      0.00     -0.00
   0.00000000   0.00003190   0.00000000          0.00      4.69      0.00
  -0.00000000   0.00000000   0.00003190         -0.00      0.00      4.69


     Writing output data file Au.save/

     init_run     :      0.38s CPU      0.40s WALL (       1 calls)
     electrons    :      7.74s CPU      8.53s WALL (       1 calls)
     forces       :      0.03s CPU      0.03s WALL (       1 calls)
     stress       :      0.11s CPU      0.11s WALL (       1 calls)

     Called by init_run:
     wfcinit      :      0.03s CPU      0.04s WALL (       1 calls)
     potinit      :      0.12s CPU      0.13s WALL (       1 calls)
     hinit0       :      0.19s CPU      0.19s WALL (       1 calls)

     Called by electrons:
     c_bands      :      3.03s CPU      3.30s WALL (      32 calls)
     sum_band     :      1.05s CPU      1.12s WALL (      32 calls)
     v_of_rho     :      0.20s CPU      0.21s WALL (      32 calls)
     newd         :      0.33s CPU      0.38s WALL (      32 calls)
     PAW_pot      :      3.20s CPU      3.58s WALL (      32 calls)
     mix_rho      :      0.04s CPU      0.04s WALL (      32 calls)

     Called by c_bands:
     init_us_2    :      0.11s CPU      0.12s WALL (     670 calls)
     cegterg      :      2.87s CPU      3.14s WALL (     320 calls)

     Called by sum_band:
     sum_band:bec :      0.00s CPU      0.00s WALL (     320 calls)
     addusdens    :      0.31s CPU      0.32s WALL (      32 calls)

     Called by *egterg:
     h_psi        :      2.21s CPU      2.44s WALL (    1031 calls)
     s_psi        :      0.07s CPU      0.08s WALL (    1031 calls)
     g_psi        :      0.01s CPU      0.01s WALL (     701 calls)
     cdiaghg      :      0.22s CPU      0.24s WALL (    1011 calls)

     Called by h_psi:
     h_psi:pot    :      2.20s CPU      2.43s WALL (    1031 calls)
     h_psi:calbec :      0.12s CPU      0.13s WALL (    1031 calls)
     vloc_psi     :      2.00s CPU      2.21s WALL (    1031 calls)
     add_vuspsi   :      0.07s CPU      0.08s WALL (    1031 calls)

     General routines
     calbec       :      0.20s CPU      0.21s WALL (    1401 calls)
     fft          :      0.10s CPU      0.10s WALL (     379 calls)
     ffts         :      0.01s CPU      0.01s WALL (      32 calls)
     fftw         :      2.34s CPU      2.58s WALL (   19142 calls)

     Parallel routines
     fft_scatt_xy :      0.22s CPU      0.25s WALL (   19553 calls)
     fft_scatt_yz :      0.84s CPU      0.92s WALL (   19553 calls)

     PWSCF        :     9.13s CPU         9.98s WALL


   This run was terminated on:  12:14:33  26Mar2024            

=------------------------------------------------------------------------------=
   JOB DONE.
=------------------------------------------------------------------------------=
