
     Program PWSCF v.6.3MaX starts on 26Mar2024 at 12:25:40 

     This program is part of the open-source Quantum ESPRESSO suite
     for quantum simulation of materials; please cite
         "P. Giannozzi et al., J. Phys.:Condens. Matter 21 395502 (2009);
         "P. Giannozzi et al., J. Phys.:Condens. Matter 29 465901 (2017);
          URL http://www.quantum-espresso.org", 
     in publications or presentations arising from this work. More details at
     http://www.quantum-espresso.org/quote

     Parallel version (MPI), running on     5 processors

     MPI processes distributed on     1 nodes
     R & G space division:  proc/nbgrp/npool/nimage =       5
     Waiting for input...
     Reading input from standard input

     Current dimensions of program PWSCF are:
     Max number of different atomic species (ntypx) = 10
     Max number of k-points (npk) =  40000
     Max angular momentum in pseudopotentials (lmaxx) =  3
               file Au.pbesol-n-kjpaw_psl.1.0.0.UPF: wavefunction(s)  6S 5D renormalized

     Subspace diagonalization in iterative solution of the eigenvalue problem:
     a serial algorithm will be used


     Parallelization info
     --------------------
     sticks:   dense  smooth     PW     G-vecs:    dense   smooth      PW
     Min         137     137     42                 2407     2407     416
     Max         137     137     43                 2409     2409     418
     Sum         685     685    211                12039    12039    2085



     bravais-lattice index     =            2
     lattice parameter (alat)  =       7.7100  a.u.
     unit-cell volume          =     114.5785 (a.u.)^3
     number of atoms/cell      =            1
     number of atomic types    =            1
     number of electrons       =        11.00
     number of Kohn-Sham states=           10
     kinetic-energy cutoff     =      85.0000  Ry
     charge density cutoff     =     340.0000  Ry
     convergence threshold     =      1.0E-08
     mixing beta               =       0.7000
     number of iterations used =            8  plain     mixing
     Exchange-correlation      = SLA PW PSX PSC ( 1  4 10  8 0 0)

     celldm(1)=   7.710000  celldm(2)=   0.000000  celldm(3)=   0.000000
     celldm(4)=   0.000000  celldm(5)=   0.000000  celldm(6)=   0.000000

     crystal axes: (cart. coord. in units of alat)
               a(1) = (  -0.500000   0.000000   0.500000 )  
               a(2) = (   0.000000   0.500000   0.500000 )  
               a(3) = (  -0.500000   0.500000   0.000000 )  

     reciprocal axes: (cart. coord. in units 2 pi/alat)
               b(1) = ( -1.000000 -1.000000  1.000000 )  
               b(2) = (  1.000000  1.000000  1.000000 )  
               b(3) = ( -1.000000  1.000000 -1.000000 )  


     PseudoPot. # 1 for Au read from file:
     /home/lorenzo/pseudos/Au/Au.pbesol-n-kjpaw_psl.1.0.0.UPF
     MD5 check sum: abc371be705c47a6b6a6b4088b452d3e
     Pseudo is Projector augmented-wave + core cor, Zval = 11.0
     Generated using "atomic" code by A. Dal Corso v.6.3
     Shape of augmentation charge: PSQ
     Using radial grid of 1279 points,  6 beta functions with: 
                l(1) =   0
                l(2) =   0
                l(3) =   1
                l(4) =   1
                l(5) =   2
                l(6) =   2
     Q(r) pseudized with 0 coefficients 


     atomic species   valence    mass     pseudopotential
        Au            11.00   196.96600     Au( 1.00)

     48 Sym. Ops., with inversion, found



   Cartesian axes

     site n.     atom                  positions (alat units)
         1           Au  tau(   1) = (   0.0000000   0.0000000   0.0000000  )

     number of k points=    56  gaussian smearing, width (Ry)=  0.0100
                       cart. coord. in units 2pi/alat
        k(    1) = (   0.0000000   0.0000000   0.0000000), wk =   0.0015026
        k(    2) = (  -0.0909091   0.0909091  -0.0909091), wk =   0.0120210
        k(    3) = (  -0.1818182   0.1818182  -0.1818182), wk =   0.0120210
        k(    4) = (  -0.2727273   0.2727273  -0.2727273), wk =   0.0120210
        k(    5) = (  -0.3636364   0.3636364  -0.3636364), wk =   0.0120210
        k(    6) = (  -0.4545455   0.4545455  -0.4545455), wk =   0.0120210
        k(    7) = (   0.0000000   0.1818182   0.0000000), wk =   0.0090158
        k(    8) = (  -0.0909091   0.2727273  -0.0909091), wk =   0.0360631
        k(    9) = (  -0.1818182   0.3636364  -0.1818182), wk =   0.0360631
        k(   10) = (  -0.2727273   0.4545455  -0.2727273), wk =   0.0360631
        k(   11) = (  -0.3636364   0.5454545  -0.3636364), wk =   0.0360631
        k(   12) = (   0.5454545  -0.3636364   0.5454545), wk =   0.0360631
        k(   13) = (   0.4545455  -0.2727273   0.4545455), wk =   0.0360631
        k(   14) = (   0.3636364  -0.1818182   0.3636364), wk =   0.0360631
        k(   15) = (   0.2727273  -0.0909091   0.2727273), wk =   0.0360631
        k(   16) = (   0.1818182  -0.0000000   0.1818182), wk =   0.0180316
        k(   17) = (   0.0000000   0.3636364   0.0000000), wk =   0.0090158
        k(   18) = (  -0.0909091   0.4545455  -0.0909091), wk =   0.0360631
        k(   19) = (  -0.1818182   0.5454545  -0.1818182), wk =   0.0360631
        k(   20) = (  -0.2727273   0.6363636  -0.2727273), wk =   0.0360631
        k(   21) = (   0.6363636  -0.2727273   0.6363636), wk =   0.0360631
        k(   22) = (   0.5454545  -0.1818182   0.5454545), wk =   0.0360631
        k(   23) = (   0.4545455  -0.0909091   0.4545455), wk =   0.0360631
        k(   24) = (   0.3636364   0.0000000   0.3636364), wk =   0.0180316
        k(   25) = (   0.0000000   0.5454545   0.0000000), wk =   0.0090158
        k(   26) = (  -0.0909091   0.6363636  -0.0909091), wk =   0.0360631
        k(   27) = (  -0.1818182   0.7272727  -0.1818182), wk =   0.0360631
        k(   28) = (   0.7272727  -0.1818182   0.7272727), wk =   0.0360631
        k(   29) = (   0.6363636  -0.0909091   0.6363636), wk =   0.0360631
        k(   30) = (   0.5454545   0.0000000   0.5454545), wk =   0.0180316
        k(   31) = (   0.0000000   0.7272727   0.0000000), wk =   0.0090158
        k(   32) = (  -0.0909091   0.8181818  -0.0909091), wk =   0.0360631
        k(   33) = (   0.8181818  -0.0909091   0.8181818), wk =   0.0360631
        k(   34) = (   0.7272727   0.0000000   0.7272727), wk =   0.0180316
        k(   35) = (   0.0000000   0.9090909   0.0000000), wk =   0.0090158
        k(   36) = (   0.9090909  -0.0000000   0.9090909), wk =   0.0180316
        k(   37) = (  -0.1818182   0.3636364   0.0000000), wk =   0.0360631
        k(   38) = (  -0.2727273   0.4545455  -0.0909091), wk =   0.0721262
        k(   39) = (  -0.3636364   0.5454545  -0.1818182), wk =   0.0721262
        k(   40) = (   0.5454545  -0.3636364   0.7272727), wk =   0.0721262
        k(   41) = (  -0.1818182   0.5454545   0.0000000), wk =   0.0360631
        k(   42) = (  -0.2727273   0.6363636  -0.0909091), wk =   0.0721262
        k(   43) = (   0.6363636  -0.2727273   0.8181818), wk =   0.0721262
        k(   44) = (   0.5454545  -0.1818182   0.7272727), wk =   0.0721262
        k(   45) = (   0.4545455  -0.0909091   0.6363636), wk =   0.0721262
        k(   46) = (   0.3636364   0.0000000   0.5454545), wk =   0.0360631
        k(   47) = (  -0.1818182   0.7272727   0.0000000), wk =   0.0360631
        k(   48) = (   0.7272727  -0.1818182   0.9090909), wk =   0.0721262
        k(   49) = (   0.6363636  -0.0909091   0.8181818), wk =   0.0721262
        k(   50) = (   0.5454545   0.0000000   0.7272727), wk =   0.0360631
        k(   51) = (   0.8181818  -0.0909091   1.0000000), wk =   0.0360631
        k(   52) = (   0.7272727   0.0000000   0.9090909), wk =   0.0360631
        k(   53) = (   0.6363636  -0.2727273   1.0000000), wk =   0.0360631
        k(   54) = (   0.5454545  -0.1818182   0.9090909), wk =   0.0721262
        k(   55) = (   0.6363636  -0.0909091   1.0000000), wk =   0.0360631
        k(   56) = (   0.5454545   0.0000000   0.9090909), wk =   0.0360631

     Dense  grid:    12039 G-vectors     FFT dimensions: (  32,  32,  32)

     Estimated max dynamical RAM per process >      13.42 MB

     Estimated total dynamical RAM >      67.08 MB

     Initial potential from superposition of free atoms

     starting charge   10.99990, renormalised to   11.00000
     Starting wfcs are    9 randomized atomic wfcs +    1 random wfcs
     Checking if some PAW data can be deallocated... 

     total cpu time spent up to now is        1.7 secs

     Self-consistent Calculation

     iteration #  1     ecut=    85.00 Ry     beta= 0.70
     Davidson diagonalization with overlap
     ethr =  1.00E-02,  avg # of iterations =  5.3

     Threshold (ethr) on eigenvalues was too large:
     Diagonalizing with lowered threshold

     Davidson diagonalization with overlap
     ethr =  5.64E-04,  avg # of iterations =  1.4

     total cpu time spent up to now is        3.4 secs

     total energy              =    -764.65912607 Ry
     Harris-Foulkes estimate   =    -764.70293724 Ry
     estimated scf accuracy    <       0.06307204 Ry

     iteration #  2     ecut=    85.00 Ry     beta= 0.70
     Davidson diagonalization with overlap
     ethr =  5.73E-04,  avg # of iterations =  2.7

     negative rho (up, down):  2.368E-03 0.000E+00

     total cpu time spent up to now is        4.4 secs

     total energy              =    -764.67867664 Ry
     Harris-Foulkes estimate   =    -764.69019739 Ry
     estimated scf accuracy    <       0.02066759 Ry

     iteration #  3     ecut=    85.00 Ry     beta= 0.70
     Davidson diagonalization with overlap
     ethr =  1.88E-04,  avg # of iterations =  2.0

     negative rho (up, down):  1.385E-02 0.000E+00

     total cpu time spent up to now is        5.3 secs

     total energy              =    -764.68291146 Ry
     Harris-Foulkes estimate   =    -764.68287279 Ry
     estimated scf accuracy    <       0.00169010 Ry

     iteration #  4     ecut=    85.00 Ry     beta= 0.70
     Davidson diagonalization with overlap
     ethr =  1.54E-05,  avg # of iterations =  4.0

     negative rho (up, down):  5.210E-03 0.000E+00

     total cpu time spent up to now is        6.5 secs

     total energy              =    -764.68345442 Ry
     Harris-Foulkes estimate   =    -764.68394560 Ry
     estimated scf accuracy    <       0.00815239 Ry

     iteration #  5     ecut=    85.00 Ry     beta= 0.70
     Davidson diagonalization with overlap
     ethr =  1.54E-05,  avg # of iterations =  3.1

     total cpu time spent up to now is        7.5 secs

     total energy              =    -764.68272094 Ry
     Harris-Foulkes estimate   =    -764.68380218 Ry
     estimated scf accuracy    <       0.00423600 Ry

     iteration #  6     ecut=    85.00 Ry     beta= 0.70
     Davidson diagonalization with overlap
     ethr =  1.54E-05,  avg # of iterations =  2.9

     negative rho (up, down):  3.940E-02 0.000E+00

     total cpu time spent up to now is        8.5 secs

     total energy              =    -764.68148540 Ry
     Harris-Foulkes estimate   =    -764.68303383 Ry
     estimated scf accuracy    <       0.00200985 Ry

     iteration #  7     ecut=    85.00 Ry     beta= 0.70
     Davidson diagonalization with overlap
     ethr =  1.54E-05,  avg # of iterations =  4.0

     negative rho (up, down):  3.940E-02 0.000E+00

     total cpu time spent up to now is        9.7 secs

     total energy              =    -764.68273307 Ry
     Harris-Foulkes estimate   =    -764.68273307 Ry
     estimated scf accuracy    <       0.00103443 Ry

     iteration #  8     ecut=    85.00 Ry     beta= 0.70
     Davidson diagonalization with overlap
     ethr =  9.40E-06,  avg # of iterations =  1.0

     negative rho (up, down):  6.569E-03 0.000E+00

     total cpu time spent up to now is       10.4 secs

     total energy              =    -764.68234154 Ry
     Harris-Foulkes estimate   =    -764.68273392 Ry
     estimated scf accuracy    <       0.00103479 Ry

     iteration #  9     ecut=    85.00 Ry     beta= 0.70
     Davidson diagonalization with overlap
     ethr =  9.40E-06,  avg # of iterations =  3.6

     negative rho (up, down):  3.609E-01 0.000E+00

     total cpu time spent up to now is       11.5 secs

     total energy              =    -764.67060373 Ry
     Harris-Foulkes estimate   =    -764.68273689 Ry
     estimated scf accuracy    <       0.00068730 Ry

     iteration # 10     ecut=    85.00 Ry     beta= 0.70
     Davidson diagonalization with overlap
     ethr =  6.25E-06,  avg # of iterations =  5.4

     negative rho (up, down):  8.193E-01 0.000E+00

     total cpu time spent up to now is       13.0 secs

     total energy              =    -803.69646757 Ry
     Harris-Foulkes estimate   =    -775.25246695 Ry
     estimated scf accuracy    <  156825.17004625 Ry

     iteration # 11     ecut=    85.00 Ry     beta= 0.70
     Davidson diagonalization with overlap
     ethr =  6.25E-06,  avg # of iterations =  3.9

     negative rho (up, down):  4.945E-01 0.000E+00

     total cpu time spent up to now is       14.3 secs

     total energy              =    -788.00540110 Ry
     Harris-Foulkes estimate   =    -805.95289909 Ry
     estimated scf accuracy    <  197602.47082399 Ry

     iteration # 12     ecut=    85.00 Ry     beta= 0.70
     Davidson diagonalization with overlap
     ethr =  6.25E-06,  avg # of iterations =  3.2

     negative rho (up, down):  1.421E-01 0.000E+00

     total cpu time spent up to now is       15.4 secs

     total energy              =    -746.49359500 Ry
     Harris-Foulkes estimate   =    -788.30330296 Ry
     estimated scf accuracy    <  182958.93318661 Ry

     iteration # 13     ecut=    85.00 Ry     beta= 0.70
     Davidson diagonalization with overlap
     ethr =  6.25E-06,  avg # of iterations = 11.6

     negative rho (up, down):  4.014E-03 0.000E+00

     total cpu time spent up to now is       17.3 secs

     total energy              =    -764.67912798 Ry
     Harris-Foulkes estimate   =    -764.68361976 Ry
     estimated scf accuracy    <       0.02373723 Ry

     iteration # 14     ecut=    85.00 Ry     beta= 0.70
     Davidson diagonalization with overlap
     ethr =  6.25E-06,  avg # of iterations =  5.0

     negative rho (up, down):  4.569E-03 0.000E+00

     total cpu time spent up to now is       18.6 secs

     total energy              =    -764.68250626 Ry
     Harris-Foulkes estimate   =    -764.68273729 Ry
     estimated scf accuracy    <       0.00075860 Ry

     iteration # 15     ecut=    85.00 Ry     beta= 0.70
     Davidson diagonalization with overlap
     ethr =  6.25E-06,  avg # of iterations =  4.4

     negative rho (up, down):  1.316E-02 0.000E+00

     total cpu time spent up to now is       19.8 secs

     total energy              =    -764.68349997 Ry
     Harris-Foulkes estimate   =    -764.68325018 Ry
     estimated scf accuracy    <       0.00254741 Ry

     iteration # 16     ecut=    85.00 Ry     beta= 0.70
     Davidson diagonalization with overlap
     ethr =  6.25E-06,  avg # of iterations =  3.9

     negative rho (up, down):  1.243E-01 0.000E+00

     total cpu time spent up to now is       20.9 secs

     total energy              =    -764.67691356 Ry
     Harris-Foulkes estimate   =    -764.68378950 Ry
     estimated scf accuracy    <       0.00756235 Ry

     iteration # 17     ecut=    85.00 Ry     beta= 0.70
     Davidson diagonalization with overlap
     ethr =  6.25E-06,  avg # of iterations =  5.3

     negative rho (up, down):  1.368E-01 0.000E+00

     total cpu time spent up to now is       22.4 secs

     total energy              =    -764.68328333 Ry
     Harris-Foulkes estimate   =    -764.68311110 Ry
     estimated scf accuracy    <       0.00400383 Ry

     iteration # 18     ecut=    85.00 Ry     beta= 0.70
     Davidson diagonalization with overlap
     ethr =  6.25E-06,  avg # of iterations =  3.9

     negative rho (up, down):  1.819E-01 0.000E+00

     total cpu time spent up to now is       23.3 secs

     total energy              =    -764.68533494 Ry
     Harris-Foulkes estimate   =    -764.68337255 Ry
     estimated scf accuracy    <       0.01289610 Ry

     iteration # 19     ecut=    85.00 Ry     beta= 0.70
     Davidson diagonalization with overlap
     ethr =  6.25E-06,  avg # of iterations =  5.9

     negative rho (up, down):  6.936E-02 0.000E+00

     total cpu time spent up to now is       24.7 secs

     total energy              =    -764.65751478 Ry
     Harris-Foulkes estimate   =    -764.69443474 Ry
     estimated scf accuracy    <       2.00197770 Ry

     iteration # 20     ecut=    85.00 Ry     beta= 0.70
     Davidson diagonalization with overlap
     ethr =  6.25E-06,  avg # of iterations =  7.9

     negative rho (up, down):  8.530E-02 0.000E+00

     total cpu time spent up to now is       26.2 secs

     total energy              =    -764.68302073 Ry
     Harris-Foulkes estimate   =    -764.68296568 Ry
     estimated scf accuracy    <       0.00517892 Ry

     iteration # 21     ecut=    85.00 Ry     beta= 0.70
     Davidson diagonalization with overlap
     ethr =  6.25E-06,  avg # of iterations =  1.8

     negative rho (up, down):  1.171E-01 0.000E+00

     total cpu time spent up to now is       26.9 secs

     total energy              =    -764.68306216 Ry
     Harris-Foulkes estimate   =    -764.68302616 Ry
     estimated scf accuracy    <       0.00483919 Ry

     iteration # 22     ecut=    85.00 Ry     beta= 0.70
     Davidson diagonalization with overlap
     ethr =  6.25E-06,  avg # of iterations =  1.8

     negative rho (up, down):  1.162E-01 0.000E+00

     total cpu time spent up to now is       27.8 secs

     total energy              =    -764.68306516 Ry
     Harris-Foulkes estimate   =    -764.68306845 Ry
     estimated scf accuracy    <       0.00261797 Ry

     iteration # 23     ecut=    85.00 Ry     beta= 0.70
     Davidson diagonalization with overlap
     ethr =  6.25E-06,  avg # of iterations =  1.0

     negative rho (up, down):  1.115E-01 0.000E+00

     total cpu time spent up to now is       28.7 secs

     total energy              =    -764.68304987 Ry
     Harris-Foulkes estimate   =    -764.68306635 Ry
     estimated scf accuracy    <       0.00277170 Ry

     iteration # 24     ecut=    85.00 Ry     beta= 0.70
     Davidson diagonalization with overlap
     ethr =  6.25E-06,  avg # of iterations =  1.0

     negative rho (up, down):  1.267E-01 0.000E+00

     total cpu time spent up to now is       29.5 secs

     total energy              =    -764.68312804 Ry
     Harris-Foulkes estimate   =    -764.68305028 Ry
     estimated scf accuracy    <       0.00305565 Ry

     iteration # 25     ecut=    85.00 Ry     beta= 0.70
     Davidson diagonalization with overlap
     ethr =  6.25E-06,  avg # of iterations =  3.3

     negative rho (up, down):  8.028E-02 0.000E+00

     total cpu time spent up to now is       30.6 secs

     total energy              =    -764.68298295 Ry
     Harris-Foulkes estimate   =    -764.68315487 Ry
     estimated scf accuracy    <       0.00528495 Ry

     iteration # 26     ecut=    85.00 Ry     beta= 0.70
     Davidson diagonalization with overlap
     ethr =  6.25E-06,  avg # of iterations =  3.5

     negative rho (up, down):  2.758E-03 0.000E+00

     total cpu time spent up to now is       31.5 secs

     total energy              =    -764.68127530 Ry
     Harris-Foulkes estimate   =    -764.68302277 Ry
     estimated scf accuracy    <       0.00640130 Ry

     iteration # 27     ecut=    85.00 Ry     beta= 0.70
     Davidson diagonalization with overlap
     ethr =  6.25E-06,  avg # of iterations =  4.5

     negative rho (up, down):  3.294E-02 0.000E+00

     total cpu time spent up to now is       32.8 secs

     total energy              =    -764.68121656 Ry
     Harris-Foulkes estimate   =    -764.68274798 Ry
     estimated scf accuracy    <       0.00087984 Ry

     iteration # 28     ecut=    85.00 Ry     beta= 0.70
     Davidson diagonalization with overlap
     ethr =  6.25E-06,  avg # of iterations =  4.8

     negative rho (up, down):  1.549E-02 0.000E+00

     total cpu time spent up to now is       34.2 secs

     total energy              =    -764.67835793 Ry
     Harris-Foulkes estimate   =    -764.68446019 Ry
     estimated scf accuracy    <       0.01639055 Ry

     iteration # 29     ecut=    85.00 Ry     beta= 0.70
     Davidson diagonalization with overlap
     ethr =  6.25E-06,  avg # of iterations =  5.1

     negative rho (up, down):  1.871E-02 0.000E+00

     total cpu time spent up to now is       35.5 secs

     total energy              =    -764.68266450 Ry
     Harris-Foulkes estimate   =    -764.68267610 Ry
     estimated scf accuracy    <       0.00008913 Ry

     iteration # 30     ecut=    85.00 Ry     beta= 0.70
     Davidson diagonalization with overlap
     ethr =  8.10E-07,  avg # of iterations =  2.6

     negative rho (up, down):  2.774E-02 0.000E+00

     total cpu time spent up to now is       36.3 secs

     total energy              =    -764.68265618 Ry
     Harris-Foulkes estimate   =    -764.68267031 Ry
     estimated scf accuracy    <       0.00001028 Ry

     iteration # 31     ecut=    85.00 Ry     beta= 0.70
     Davidson diagonalization with overlap
     ethr =  9.35E-08,  avg # of iterations =  3.5

     negative rho (up, down):  3.539E-02 0.000E+00

     total cpu time spent up to now is       37.4 secs

     total energy              =    -764.68269658 Ry
     Harris-Foulkes estimate   =    -764.68268135 Ry
     estimated scf accuracy    <       0.00016884 Ry

     iteration # 32     ecut=    85.00 Ry     beta= 0.70
     Davidson diagonalization with overlap
     ethr =  9.35E-08,  avg # of iterations =  3.1

     negative rho (up, down):  3.291E-02 0.000E+00

     total cpu time spent up to now is       38.4 secs

     total energy              =    -764.68269838 Ry
     Harris-Foulkes estimate   =    -764.68271165 Ry
     estimated scf accuracy    <       0.00067105 Ry

     iteration # 33     ecut=    85.00 Ry     beta= 0.70
     Davidson diagonalization with overlap
     ethr =  9.35E-08,  avg # of iterations =  2.0

     negative rho (up, down):  2.299E-02 0.000E+00

     total cpu time spent up to now is       39.2 secs

     total energy              =    -764.68264637 Ry
     Harris-Foulkes estimate   =    -764.68269989 Ry
     estimated scf accuracy    <       0.00048644 Ry

     iteration # 34     ecut=    85.00 Ry     beta= 0.70
     Davidson diagonalization with overlap
     ethr =  9.35E-08,  avg # of iterations =  3.5

     negative rho (up, down):  7.047E-02 0.000E+00

     total cpu time spent up to now is       40.3 secs

     total energy              =    -764.68257791 Ry
     Harris-Foulkes estimate   =    -764.68267242 Ry
     estimated scf accuracy    <       0.00003183 Ry

     iteration # 35     ecut=    85.00 Ry     beta= 0.70
     Davidson diagonalization with overlap
     ethr =  9.35E-08,  avg # of iterations =  4.6

     negative rho (up, down):  6.772E-02 0.000E+00

     total cpu time spent up to now is       41.7 secs

     total energy              =    -764.68295280 Ry
     Harris-Foulkes estimate   =    -764.68296979 Ry
     estimated scf accuracy    <       0.00514222 Ry

     iteration # 36     ecut=    85.00 Ry     beta= 0.70
     Davidson diagonalization with overlap
     ethr =  9.35E-08,  avg # of iterations =  1.4

     negative rho (up, down):  5.193E-02 0.000E+00

     total cpu time spent up to now is       42.4 secs

     total energy              =    -764.68279744 Ry
     Harris-Foulkes estimate   =    -764.68295320 Ry
     estimated scf accuracy    <       0.00500809 Ry

     iteration # 37     ecut=    85.00 Ry     beta= 0.70
     Davidson diagonalization with overlap
     ethr =  9.35E-08,  avg # of iterations =  3.6

     negative rho (up, down):  5.598E-04 0.000E+00

     total cpu time spent up to now is       43.5 secs

     total energy              =    -764.68174318 Ry
     Harris-Foulkes estimate   =    -764.68282964 Ry
     estimated scf accuracy    <       0.00282259 Ry

     iteration # 38     ecut=    85.00 Ry     beta= 0.70
     Davidson diagonalization with overlap
     ethr =  9.35E-08,  avg # of iterations =  4.7

     negative rho (up, down):  7.103E-03 0.000E+00

     total cpu time spent up to now is       44.9 secs

     total energy              =    -764.68267238 Ry
     Harris-Foulkes estimate   =    -764.68280783 Ry
     estimated scf accuracy    <       0.00133580 Ry

     iteration # 39     ecut=    85.00 Ry     beta= 0.70
     Davidson diagonalization with overlap
     ethr =  9.35E-08,  avg # of iterations =  3.5

     negative rho (up, down):  1.241E-02 0.000E+00

     total cpu time spent up to now is       46.0 secs

     total energy              =    -764.68267491 Ry
     Harris-Foulkes estimate   =    -764.68271677 Ry
     estimated scf accuracy    <       0.00056605 Ry

     iteration # 40     ecut=    85.00 Ry     beta= 0.70
     Davidson diagonalization with overlap
     ethr =  9.35E-08,  avg # of iterations =  3.0

     negative rho (up, down):  8.728E-03 0.000E+00

     total cpu time spent up to now is       46.9 secs

     total energy              =    -764.68270047 Ry
     Harris-Foulkes estimate   =    -764.68268716 Ry
     estimated scf accuracy    <       0.00022753 Ry

     iteration # 41     ecut=    85.00 Ry     beta= 0.70
     Davidson diagonalization with overlap
     ethr =  9.35E-08,  avg # of iterations =  2.5

     negative rho (up, down):  1.113E-02 0.000E+00

     total cpu time spent up to now is       47.8 secs

     total energy              =    -764.68269082 Ry
     Harris-Foulkes estimate   =    -764.68270656 Ry
     estimated scf accuracy    <       0.00044912 Ry

     iteration # 42     ecut=    85.00 Ry     beta= 0.70
     Davidson diagonalization with overlap
     ethr =  9.35E-08,  avg # of iterations =  2.3

     negative rho (up, down):  5.011E-03 0.000E+00

     total cpu time spent up to now is       48.5 secs

     total energy              =    -764.68271591 Ry
     Harris-Foulkes estimate   =    -764.68269326 Ry
     estimated scf accuracy    <       0.00030856 Ry

     iteration # 43     ecut=    85.00 Ry     beta= 0.70
     Davidson diagonalization with overlap
     ethr =  9.35E-08,  avg # of iterations =  3.4

     negative rho (up, down):  7.101E-03 0.000E+00

     total cpu time spent up to now is       49.5 secs

     total energy              =    -764.68271518 Ry
     Harris-Foulkes estimate   =    -764.68273108 Ry
     estimated scf accuracy    <       0.00071347 Ry

     iteration # 44     ecut=    85.00 Ry     beta= 0.70
     Davidson diagonalization with overlap
     ethr =  9.35E-08,  avg # of iterations =  1.9

     negative rho (up, down):  2.061E-02 0.000E+00

     total cpu time spent up to now is       50.5 secs

     total energy              =    -764.68258013 Ry
     Harris-Foulkes estimate   =    -764.68271678 Ry
     estimated scf accuracy    <       0.00057709 Ry

     iteration # 45     ecut=    85.00 Ry     beta= 0.70
     Davidson diagonalization with overlap
     ethr =  9.35E-08,  avg # of iterations =  3.8

     negative rho (up, down):  1.991E-02 0.000E+00

     total cpu time spent up to now is       51.8 secs

     total energy              =    -764.68266991 Ry
     Harris-Foulkes estimate   =    -764.68267037 Ry
     estimated scf accuracy    <       0.00000572 Ry

     iteration # 46     ecut=    85.00 Ry     beta= 0.70
     Davidson diagonalization with overlap
     ethr =  5.20E-08,  avg # of iterations =  1.2

     negative rho (up, down):  1.967E-02 0.000E+00

     total cpu time spent up to now is       52.5 secs

     total energy              =    -764.68266993 Ry
     Harris-Foulkes estimate   =    -764.68267006 Ry
     estimated scf accuracy    <       0.00000193 Ry

     iteration # 47     ecut=    85.00 Ry     beta= 0.70
     Davidson diagonalization with overlap
     ethr =  1.75E-08,  avg # of iterations =  1.0

     negative rho (up, down):  1.930E-02 0.000E+00

     total cpu time spent up to now is       53.1 secs

     total energy              =    -764.68266980 Ry
     Harris-Foulkes estimate   =    -764.68266998 Ry
     estimated scf accuracy    <       0.00000154 Ry

     iteration # 48     ecut=    85.00 Ry     beta= 0.70
     Davidson diagonalization with overlap
     ethr =  1.40E-08,  avg # of iterations =  2.5

     negative rho (up, down):  1.926E-02 0.000E+00

     total cpu time spent up to now is       53.9 secs

     End of self-consistent calculation

          k = 0.0000 0.0000 0.0000 (  1459 PWs)   bands (ev):

     5.8145  11.0823  11.0823  11.0823  12.6185  12.6185  31.1358  34.9845
    34.9845  34.9845

          k =-0.0909 0.0909-0.0909 (  1471 PWs)   bands (ev):

     6.1009  10.9923  11.1788  11.1788  12.5789  12.5789  31.4325  33.1803
    35.2520  35.2520

          k =-0.1818 0.1818-0.1818 (  1507 PWs)   bands (ev):

     6.8892  10.8433  11.3532  11.3532  12.5843  12.5843  29.7805  32.2423
    35.8515  35.8515

          k =-0.2727 0.2727-0.2727 (  1507 PWs)   bands (ev):

     7.8477  11.0649  11.3410  11.3410  12.8972  12.8972  26.1984  31.9339
    35.7987  35.7987

          k =-0.3636 0.3636-0.3636 (  1510 PWs)   bands (ev):

     8.3439  11.1817  11.1817  12.3227  13.4086  13.4086  22.5485  31.0482
    34.4718  34.4718

          k =-0.4545 0.4545-0.4545 (  1507 PWs)   bands (ev):

     8.4183  11.0618  11.0618  13.7789  13.7789  14.2598  19.5072  30.4907
    33.4696  33.4696

          k = 0.0000 0.1818 0.0000 (  1483 PWs)   bands (ev):

     6.1973  10.8865  11.2571  11.2571  12.4109  12.7040  31.5892  33.7302
    34.5602  34.5602

          k =-0.0909 0.2727-0.0909 (  1499 PWs)   bands (ev):

     6.8270  10.6851  11.4471  11.4623  12.2687  12.7968  31.0393  32.3020
    34.1505  35.3102

          k =-0.1818 0.3636-0.1818 (  1509 PWs)   bands (ev):

     7.7843  10.6361  11.3859  11.5431  12.6059  13.0670  27.5704  32.2720
    33.6434  35.7296

          k =-0.2727 0.4545-0.2727 (  1508 PWs)   bands (ev):

     8.4746  11.1235  11.2754  11.4242  13.4850  13.5110  23.8523  31.4284
    32.9270  34.3985

          k =-0.3636 0.5455-0.3636 (  1513 PWs)   bands (ev):

     8.6232  10.9486  11.2720  12.3900  13.8224  14.8931  20.4433  30.7059
    32.5022  32.9066

          k = 0.5455-0.3636 0.5455 (  1507 PWs)   bands (ev):

     8.6317  10.9152  11.2068  12.8630  13.7611  15.8874  18.9632  30.4383
    32.0786  32.9108

          k = 0.4545-0.2727 0.4545 (  1514 PWs)   bands (ev):

     8.6197  11.0267  11.2711  12.2090  13.3219  14.5914  21.5396  30.6441
    32.2118  34.3227

          k = 0.3636-0.1818 0.3636 (  1509 PWs)   bands (ev):

     8.3300  10.9855  11.3083  11.4376  12.7150  13.6773  25.0932  31.1922
    33.2212  36.5864

          k = 0.2727-0.0909 0.2727 (  1501 PWs)   bands (ev):

     7.4573  10.6727  11.4177  11.5276  12.2979  13.0467  28.7203  31.7187
    34.4251  36.3488

          k = 0.1818-0.0000 0.1818 (  1494 PWs)   bands (ev):

     6.5608  10.8265  11.3209  11.3491  12.3751  12.7179  31.7266  31.7359
    34.3381  36.3846

          k = 0.0000 0.3636 0.0000 (  1499 PWs)   bands (ev):

     7.2615  10.3936  11.7653  11.7653  11.9403  12.9381  32.4057  32.7621
    32.7861  32.7861

          k =-0.0909 0.4545-0.0909 (  1507 PWs)   bands (ev):

     8.0682  10.1598  11.4999  12.0037  12.4909  13.1709  29.1995  31.6900
    32.4278  33.7811

          k =-0.1818 0.5455-0.1818 (  1516 PWs)   bands (ev):

     8.8399  10.2679  11.1391  11.9683  13.5847  13.6649  25.3783  30.9035
    31.0436  33.2850

          k =-0.2727 0.6364-0.2727 (  1517 PWs)   bands (ev):

     9.0794  10.6394  11.2410  11.8082  13.8754  15.4265  21.7556  29.6428
    30.6698  32.6056

          k = 0.6364-0.2727 0.6364 (  1514 PWs)   bands (ev):

     9.1407  10.6005  11.6803  11.8004  13.7801  17.5667  18.9331  28.5479
    31.2704  32.1076

          k = 0.5455-0.1818 0.5455 (  1514 PWs)   bands (ev):

     9.2190  10.6881  11.6455  11.6607  13.2964  16.2417  20.9724  28.0001
    32.1072  32.7591

          k = 0.4545-0.0909 0.4545 (  1520 PWs)   bands (ev):

     9.1476  10.6966  11.0666  11.7736  12.6208  14.8488  24.2673  28.1793
    32.7195  34.9054

          k = 0.3636 0.0000 0.3636 (  1516 PWs)   bands (ev):

     8.4004  10.4677  11.2828  11.9694  12.0115  13.8243  27.2558  29.3465
    33.9529  35.7700

          k = 0.0000 0.5455 0.0000 (  1507 PWs)   bands (ev):

     8.5195   9.8071  11.8671  12.5424  12.5424  13.2565  30.1067  30.1067
    30.9235  32.2911

          k =-0.0909 0.6364-0.0909 (  1517 PWs)   bands (ev):

     8.9571   9.6341  11.8536  12.7119  13.5955  13.6536  26.8503  29.0353
    29.0361  33.0974

          k =-0.1818 0.7273-0.1818 (  1518 PWs)   bands (ev):

     9.1938   9.8257  11.6650  12.5733  13.9201  15.6413  23.2247  27.3769
    28.6997  33.3137

          k = 0.7273-0.1818 0.7273 (  1515 PWs)   bands (ev):

     9.3576  10.1914  11.5123  12.3899  13.8409  18.1687  20.1601  25.8893
    29.2869  33.0603

          k = 0.6364-0.0909 0.6364 (  1517 PWs)   bands (ev):

     9.6216  10.4747  11.2217  12.2407  13.3807  17.8106  21.1096  24.7987
    30.7417  32.7898

          k = 0.5455 0.0000 0.5455 (  1524 PWs)   bands (ev):

     9.7920  10.6579  10.7615  12.0959  12.8332  16.1812  23.6252  25.0751
    32.6832  32.7595

          k = 0.0000 0.7273 0.0000 (  1524 PWs)   bands (ev):

     8.8568   9.3153  13.4249  13.4249  13.4623  13.5618  26.2382  27.6463
    27.6463  32.2085

          k =-0.0909 0.8182-0.0909 (  1520 PWs)   bands (ev):

     8.8976   9.2546  13.0390  13.3623  13.9509  15.6465  23.7047  26.0644
    27.0534  33.1064

          k = 0.8182-0.0909 0.8182 (  1526 PWs)   bands (ev):

     9.0778   9.5317  12.4665  13.1413  13.9507  18.2373  21.2837  24.2541
    27.4800  33.6755

          k = 0.7273 0.0000 0.7273 (  1518 PWs)   bands (ev):

     9.3706  10.0550  11.7318  12.7918  13.6332  19.2965  20.9577  22.9156
    28.8312  33.4071

          k = 0.0000 0.9091 0.0000 (  1536 PWs)   bands (ev):

     8.6868   9.0408  13.7497  14.0728  14.0728  16.0743  22.2694  26.1474
    26.1474  32.4470

          k = 0.9091-0.0000 0.9091 (  1534 PWs)   bands (ev):

     8.7770   9.1178  13.5730  13.6269  14.1064  17.5392  21.2552  25.1214
    26.3056  33.2105

          k =-0.1818 0.3636 0.0000 (  1508 PWs)   bands (ev):

     7.5702  10.4494  11.4621  11.7715  12.1869  13.0965  29.7183  31.2015
    34.2617  34.5030

          k =-0.2727 0.4545-0.0909 (  1516 PWs)   bands (ev):

     8.5155  10.4202  11.1795  11.8596  12.5951  13.7690  26.5229  30.1904
    32.7350  35.2567

          k =-0.3636 0.5455-0.1818 (  1514 PWs)   bands (ev):

     8.9815  10.8725  11.0798  11.7143  13.2991  14.8264  22.9109  29.7097
    31.3379  34.2882

          k = 0.5455-0.3636 0.7273 (  1517 PWs)   bands (ev):

     9.0165  10.6890  11.5421  11.9506  13.7003  16.5276  19.7106  29.7410
    30.3392  33.2501

          k =-0.1818 0.5455 0.0000 (  1517 PWs)   bands (ev):

     8.7955   9.9389  11.2876  12.5364  12.6886  13.7487  27.6728  29.1541
    31.0470  35.1062

          k =-0.2727 0.6364-0.0909 (  1522 PWs)   bands (ev):

     9.3363  10.0694  11.0174  12.4587  13.3792  14.9752  24.4060  28.1081
    29.4858  34.7022

          k = 0.6364-0.2727 0.8182 (  1517 PWs)   bands (ev):

     9.4598  10.3591  11.1111  12.2444  13.7479  16.9263  21.0988  27.6103
    28.5902  34.1811

          k = 0.5455-0.1818 0.7273 (  1522 PWs)   bands (ev):

     9.5869  10.3473  11.3376  12.0804  13.6398  18.3454  19.5097  26.7156
    29.1563  34.0751

          k = 0.4545-0.0909 0.6364 (  1517 PWs)   bands (ev):

     9.7151  10.4869  10.8276  12.1751  13.1947  16.3231  22.5009  26.3167
    30.2996  34.7219

          k = 0.3636 0.0000 0.5455 (  1515 PWs)   bands (ev):

     9.4297  10.2830  10.8243  12.3009  12.5744  14.8946  25.2241  27.2323
    31.5340  36.0818

          k =-0.1818 0.7273 0.0000 (  1523 PWs)   bands (ev):

     9.1393   9.4992  11.9661  13.3441  13.4190  15.0570  25.1122  26.9474
    27.6061  34.2237

          k = 0.7273-0.1818 0.9091 (  1517 PWs)   bands (ev):

     9.3137   9.7031  11.7348  13.0208  13.8618  17.1512  22.4499  25.5035
    26.9724  34.8770

          k = 0.6364-0.0909 0.8182 (  1526 PWs)   bands (ev):

     9.5389  10.1056  11.3911  12.6456  13.8034  19.3863  20.3899  24.0402
    27.6498  34.7943

          k = 0.5455 0.0000 0.7273 (  1520 PWs)   bands (ev):

     9.8796  10.4055  10.8523  12.4333  13.4424  17.8924  22.8335  23.0731
    28.9541  34.7499

          k = 0.8182-0.0909 1.0000 (  1527 PWs)   bands (ev):

     8.9460   9.2511  12.8914  13.5128  14.0721  17.3747  21.9864  25.5397
    25.7279  34.1732

          k = 0.7273 0.0000 0.9091 (  1522 PWs)   bands (ev):

     9.1986   9.5702  12.2379  13.1042  14.0659  19.4457  20.6481  23.8594
    26.2964  35.0762

          k = 0.6364-0.2727 1.0000 (  1514 PWs)   bands (ev):

     9.8546  10.0348  10.7565  12.8049  13.4110  16.5729  23.5511  25.2259
    28.0608  36.6149

          k = 0.5455-0.1818 0.9091 (  1521 PWs)   bands (ev):

     9.9609  10.1960  10.7977  12.5154  13.7763  18.5428  21.2941  24.7144
    26.9332  36.4157

          k = 0.6364-0.0909 1.0000 (  1527 PWs)   bands (ev):

     9.5606   9.8766  11.4229  12.8188  14.0700  19.1021  21.7789  23.9239
    25.4031  37.8413

          k = 0.5455 0.0000 0.9091 (  1523 PWs)   bands (ev):

     9.7778  10.3133  10.8955  12.5139  14.0665  20.0129  21.7471  22.6468
    25.6421  37.5818

     the Fermi energy is    15.7888 ev

!    total energy              =    -764.68266998 Ry
     Harris-Foulkes estimate   =    -764.68266998 Ry
     estimated scf accuracy    <          3.5E-09 Ry

     total all-electron energy =    -38013.517132 Ry

     The total energy is the sum of the following terms:

     one-electron contribution =      13.86377065 Ry
     hartree contribution      =       7.57914758 Ry
     xc contribution           =     -31.82874612 Ry
     ewald contribution        =     -71.95438534 Ry
     one-center paw contrib.   =    -682.34233069 Ry
     smearing contrib. (-TS)   =      -0.00012606 Ry

     convergence has been achieved in  48 iterations

     negative rho (up, down):  1.926E-02 0.000E+00

     Forces acting on atoms (cartesian axes, Ry/au):

     atom    1 type  1   force =     0.00000000    0.00000000    0.00000000

     Total force =     0.000000     Total SCF correction =     0.000000


     Computing stress (Cartesian axis) and pressure


     negative rho (up, down):  1.926E-02 0.000E+00
          total   stress  (Ry/bohr**3)                   (kbar)     P=   16.33
   0.00011101   0.00000000   0.00000000         16.33      0.00      0.00
  -0.00000000   0.00011101  -0.00000000         -0.00     16.33     -0.00
  -0.00000000  -0.00000000   0.00011101         -0.00     -0.00     16.33


     Writing output data file Au.save/

     init_run     :      0.73s CPU      0.78s WALL (       1 calls)
     electrons    :     48.58s CPU     52.16s WALL (       1 calls)
     forces       :      0.07s CPU      0.08s WALL (       1 calls)
     stress       :      0.28s CPU      0.28s WALL (       1 calls)

     Called by init_run:
     wfcinit      :      0.35s CPU      0.37s WALL (       1 calls)
     potinit      :      0.14s CPU      0.16s WALL (       1 calls)
     hinit0       :      0.21s CPU      0.21s WALL (       1 calls)

     Called by electrons:
     c_bands      :     37.22s CPU     40.19s WALL (      49 calls)
     sum_band     :      5.55s CPU      6.00s WALL (      49 calls)
     v_of_rho     :      0.32s CPU      0.33s WALL (      49 calls)
     newd         :      0.59s CPU      0.59s WALL (      49 calls)
     PAW_pot      :      4.95s CPU      5.12s WALL (      49 calls)
     mix_rho      :      0.06s CPU      0.06s WALL (      49 calls)

     Called by c_bands:
     init_us_2    :      0.93s CPU      0.99s WALL (    5656 calls)
     cegterg      :     35.66s CPU     38.56s WALL (    2744 calls)

     Called by sum_band:
     sum_band:bec :      0.03s CPU      0.03s WALL (    2744 calls)
     addusdens    :      0.56s CPU      0.56s WALL (      49 calls)

     Called by *egterg:
     h_psi        :     25.34s CPU     27.77s WALL (   12409 calls)
     s_psi        :      0.95s CPU      1.03s WALL (   12409 calls)
     g_psi        :      0.11s CPU      0.12s WALL (    9609 calls)
     cdiaghg      :      3.20s CPU      3.34s WALL (   12297 calls)

     Called by h_psi:
     h_psi:pot    :     25.18s CPU     27.59s WALL (   12409 calls)
     h_psi:calbec :      1.49s CPU      1.64s WALL (   12409 calls)
     vloc_psi     :     22.62s CPU     24.79s WALL (   12409 calls)
     add_vuspsi   :      0.98s CPU      1.07s WALL (   12409 calls)

     General routines
     calbec       :      1.92s CPU      2.10s WALL (   15433 calls)
     fft          :      0.15s CPU      0.15s WALL (     566 calls)
     ffts         :      0.01s CPU      0.01s WALL (      49 calls)
     fftw         :     24.50s CPU     26.84s WALL (  199236 calls)

     Parallel routines
     fft_scatt_xy :      2.28s CPU      2.51s WALL (  199851 calls)
     fft_scatt_yz :      8.27s CPU      9.04s WALL (  199851 calls)

     PWSCF        :    50.61s CPU        54.34s WALL


   This run was terminated on:  12:26:34  26Mar2024            

=------------------------------------------------------------------------------=
   JOB DONE.
=------------------------------------------------------------------------------=
