
     Program PWSCF v.6.3MaX starts on 26Mar2024 at 11:14:18 

     This program is part of the open-source Quantum ESPRESSO suite
     for quantum simulation of materials; please cite
         "P. Giannozzi et al., J. Phys.:Condens. Matter 21 395502 (2009);
         "P. Giannozzi et al., J. Phys.:Condens. Matter 29 465901 (2017);
          URL http://www.quantum-espresso.org", 
     in publications or presentations arising from this work. More details at
     http://www.quantum-espresso.org/quote

     Parallel version (MPI), running on     5 processors

     MPI processes distributed on     1 nodes
     R & G space division:  proc/nbgrp/npool/nimage =       5
     Waiting for input...
     Reading input from standard input

     Current dimensions of program PWSCF are:
     Max number of different atomic species (ntypx) = 10
     Max number of k-points (npk) =  40000
     Max angular momentum in pseudopotentials (lmaxx) =  3
               file Au.pbesol-n-kjpaw_psl.1.0.0.UPF: wavefunction(s)  6S 5D renormalized

     Subspace diagonalization in iterative solution of the eigenvalue problem:
     a serial algorithm will be used


     Parallelization info
     --------------------
     sticks:   dense  smooth     PW     G-vecs:    dense   smooth      PW
     Min          17      17      7                  106      106      27
     Max          17      17      8                  107      107      28
     Sum          85      85     37                  531      531     137



     bravais-lattice index     =            2
     lattice parameter (alat)  =       7.7100  a.u.
     unit-cell volume          =     114.5785 (a.u.)^3
     number of atoms/cell      =            1
     number of atomic types    =            1
     number of electrons       =        11.00
     number of Kohn-Sham states=           10
     kinetic-energy cutoff     =      10.0000  Ry
     charge density cutoff     =      40.0000  Ry
     convergence threshold     =      1.0E-08
     mixing beta               =       0.7000
     number of iterations used =            8  plain     mixing
     Exchange-correlation      = SLA PW PSX PSC ( 1  4 10  8 0 0)

     celldm(1)=   7.710000  celldm(2)=   0.000000  celldm(3)=   0.000000
     celldm(4)=   0.000000  celldm(5)=   0.000000  celldm(6)=   0.000000

     crystal axes: (cart. coord. in units of alat)
               a(1) = (  -0.500000   0.000000   0.500000 )  
               a(2) = (   0.000000   0.500000   0.500000 )  
               a(3) = (  -0.500000   0.500000   0.000000 )  

     reciprocal axes: (cart. coord. in units 2 pi/alat)
               b(1) = ( -1.000000 -1.000000  1.000000 )  
               b(2) = (  1.000000  1.000000  1.000000 )  
               b(3) = ( -1.000000  1.000000 -1.000000 )  


     PseudoPot. # 1 for Au read from file:
     /home/lorenzo/pseudos/Au/Au.pbesol-n-kjpaw_psl.1.0.0.UPF
     MD5 check sum: abc371be705c47a6b6a6b4088b452d3e
     Pseudo is Projector augmented-wave + core cor, Zval = 11.0
     Generated using "atomic" code by A. Dal Corso v.6.3
     Shape of augmentation charge: PSQ
     Using radial grid of 1279 points,  6 beta functions with: 
                l(1) =   0
                l(2) =   0
                l(3) =   1
                l(4) =   1
                l(5) =   2
                l(6) =   2
     Q(r) pseudized with 0 coefficients 


     atomic species   valence    mass     pseudopotential
        Au            11.00   196.96600     Au( 1.00)

     48 Sym. Ops., with inversion, found



   Cartesian axes

     site n.     atom                  positions (alat units)
         1           Au  tau(   1) = (   0.0000000   0.0000000   0.0000000  )

     number of k points=     8  gaussian smearing, width (Ry)=  0.0100
                       cart. coord. in units 2pi/alat
        k(    1) = (   0.0000000   0.0000000   0.0000000), wk =   0.0312500
        k(    2) = (  -0.2500000   0.2500000  -0.2500000), wk =   0.2500000
        k(    3) = (   0.5000000  -0.5000000   0.5000000), wk =   0.1250000
        k(    4) = (   0.0000000   0.5000000   0.0000000), wk =   0.1875000
        k(    5) = (   0.7500000  -0.2500000   0.7500000), wk =   0.7500000
        k(    6) = (   0.5000000   0.0000000   0.5000000), wk =   0.3750000
        k(    7) = (   0.0000000  -1.0000000   0.0000000), wk =   0.0937500
        k(    8) = (  -0.5000000  -1.0000000   0.0000000), wk =   0.1875000

     Dense  grid:      531 G-vectors     FFT dimensions: (  12,  12,  12)

     Estimated max dynamical RAM per process >       1.05 MB

     Estimated total dynamical RAM >       5.23 MB

     Check: negative/imaginary core charge=   -0.000056    0.000000

     Initial potential from superposition of free atoms

     starting charge   10.99990, renormalised to   11.00000

     negative rho (up, down):  4.226E-05 0.000E+00
     Starting wfcs are    9 randomized atomic wfcs +    1 random wfcs
     Checking if some PAW data can be deallocated... 

     total cpu time spent up to now is        1.4 secs

     Self-consistent Calculation

     iteration #  1     ecut=    10.00 Ry     beta= 0.70
     Davidson diagonalization with overlap
     ethr =  1.00E-02,  avg # of iterations =  4.2

     total cpu time spent up to now is        1.5 secs

     total energy              =    -762.89952473 Ry
     Harris-Foulkes estimate   =    -763.57454436 Ry
     estimated scf accuracy    <       0.85015721 Ry

     iteration #  2     ecut=    10.00 Ry     beta= 0.70
     Davidson diagonalization with overlap
     ethr =  7.73E-03,  avg # of iterations =  2.0

     total cpu time spent up to now is        1.7 secs

     total energy              =    -763.12963176 Ry
     Harris-Foulkes estimate   =    -763.14315546 Ry
     estimated scf accuracy    <       0.03905894 Ry

     iteration #  3     ecut=    10.00 Ry     beta= 0.70
     Davidson diagonalization with overlap
     ethr =  3.55E-04,  avg # of iterations =  2.1

     total cpu time spent up to now is        1.9 secs

     total energy              =    -763.13398645 Ry
     Harris-Foulkes estimate   =    -763.13516695 Ry
     estimated scf accuracy    <       0.00191168 Ry

     iteration #  4     ecut=    10.00 Ry     beta= 0.70
     Davidson diagonalization with overlap
     ethr =  1.74E-05,  avg # of iterations =  2.2

     total cpu time spent up to now is        2.1 secs

     total energy              =    -763.13316742 Ry
     Harris-Foulkes estimate   =    -763.13781769 Ry
     estimated scf accuracy    <       0.00006808 Ry

     iteration #  5     ecut=    10.00 Ry     beta= 0.70
     Davidson diagonalization with overlap
     ethr =  6.19E-07,  avg # of iterations =  3.1

     total cpu time spent up to now is        2.3 secs

     total energy              =    -763.13516558 Ry
     Harris-Foulkes estimate   =    -763.13520734 Ry
     estimated scf accuracy    <       0.00000309 Ry

     iteration #  6     ecut=    10.00 Ry     beta= 0.70
     Davidson diagonalization with overlap
     ethr =  2.81E-08,  avg # of iterations =  2.2

     total cpu time spent up to now is        2.5 secs

     total energy              =    -763.13518146 Ry
     Harris-Foulkes estimate   =    -763.13518149 Ry
     estimated scf accuracy    <       0.00000003 Ry

     iteration #  7     ecut=    10.00 Ry     beta= 0.70
     Davidson diagonalization with overlap
     ethr =  2.41E-10,  avg # of iterations =  2.1

     total cpu time spent up to now is        2.7 secs

     End of self-consistent calculation

          k = 0.0000 0.0000 0.0000 (    59 PWs)   bands (ev):

     5.9000   9.5528   9.5528   9.5528  11.8043  11.8043  32.1463  35.3714
    35.3714  35.3714

          k =-0.2500 0.2500-0.2500 (    61 PWs)   bands (ev):

     7.5005   9.8894   9.8894  10.4055  11.6886  11.6886  27.8706  33.6014
    36.3266  36.3266

          k = 0.5000-0.5000 0.5000 (    70 PWs)   bands (ev):

     7.6694   9.3490   9.3490  11.6555  11.6555  15.0396  18.7305  31.4200
    32.9196  32.9196

          k = 0.0000 0.5000 0.0000 (    60 PWs)   bands (ev):

     8.0297   8.6303  10.8475  11.4833  11.4833  12.7181  31.6178  31.6178
    31.8818  34.6147

          k = 0.7500-0.2500 0.7500 (    59 PWs)   bands (ev):

     8.4514   9.8129  10.8450  11.4098  13.5274  16.9427  21.2060  28.9329
    29.7436  35.1367

          k = 0.5000 0.0000 0.5000 (    59 PWs)   bands (ev):

     8.9607  10.0929  10.1987  11.0101  11.8150  15.5750  24.3913  27.8075
    34.3388  35.0291

          k = 0.0000-1.0000 0.0000 (    64 PWs)   bands (ev):

     7.7477   7.8418  12.8814  13.0338  13.0338  16.8944  21.0746  25.8765
    25.8765  36.3060

          k =-0.5000-1.0000 0.0000 (    56 PWs)   bands (ev):

     9.2877  10.2522  10.2522  11.4600  14.5494  19.8557  22.8479  22.8479
    27.4127  41.0111

     the Fermi energy is    16.7630 ev

!    total energy              =    -763.13518147 Ry
     Harris-Foulkes estimate   =    -763.13518147 Ry
     estimated scf accuracy    <          1.0E-10 Ry

     total all-electron energy =    -38011.969644 Ry

     The total energy is the sum of the following terms:

     one-electron contribution =      15.85389049 Ry
     hartree contribution      =       5.58977988 Ry
     xc contribution           =     -30.88802060 Ry
     ewald contribution        =     -71.95438535 Ry
     one-center paw contrib.   =    -681.73597187 Ry
     smearing contrib. (-TS)   =      -0.00047403 Ry

     convergence has been achieved in   7 iterations

     Forces acting on atoms (cartesian axes, Ry/au):

     atom    1 type  1   force =     0.00000000    0.00000000    0.00000000

     Total force =     0.000000     Total SCF correction =     0.000000


     Computing stress (Cartesian axis) and pressure

          total   stress  (Ry/bohr**3)                   (kbar)     P=-4976.50
  -0.03382958   0.00000000   0.00000000      -4976.50      0.00      0.00
  -0.00000000  -0.03382958  -0.00000000         -0.00  -4976.50     -0.00
   0.00000000  -0.00000000  -0.03382958          0.00     -0.00  -4976.50


     Writing output data file Au.save/

     init_run     :      0.19s CPU      0.20s WALL (       1 calls)
     electrons    :      1.19s CPU      1.33s WALL (       1 calls)
     forces       :      0.01s CPU      0.01s WALL (       1 calls)
     stress       :      0.01s CPU      0.01s WALL (       1 calls)

     Called by init_run:
     wfcinit      :      0.01s CPU      0.01s WALL (       1 calls)
     potinit      :      0.10s CPU      0.11s WALL (       1 calls)
     hinit0       :      0.07s CPU      0.07s WALL (       1 calls)

     Called by electrons:
     c_bands      :      0.22s CPU      0.25s WALL (       7 calls)
     sum_band     :      0.03s CPU      0.03s WALL (       7 calls)
     v_of_rho     :      0.01s CPU      0.01s WALL (       8 calls)
     newd         :      0.01s CPU      0.01s WALL (       8 calls)
     PAW_pot      :      1.00s CPU      1.12s WALL (       8 calls)
     mix_rho      :      0.00s CPU      0.00s WALL (       7 calls)

     Called by c_bands:
     init_us_2    :      0.00s CPU      0.00s WALL (     136 calls)
     cegterg      :      0.22s CPU      0.24s WALL (      56 calls)

     Called by sum_band:
     sum_band:bec :      0.00s CPU      0.00s WALL (      56 calls)
     addusdens    :      0.00s CPU      0.00s WALL (       7 calls)

     Called by *egterg:
     h_psi        :      0.11s CPU      0.13s WALL (     209 calls)
     s_psi        :      0.00s CPU      0.00s WALL (     209 calls)
     g_psi        :      0.00s CPU      0.00s WALL (     145 calls)
     cdiaghg      :      0.07s CPU      0.07s WALL (     201 calls)

     Called by h_psi:
     h_psi:pot    :      0.11s CPU      0.13s WALL (     209 calls)
     h_psi:calbec :      0.01s CPU      0.01s WALL (     209 calls)
     vloc_psi     :      0.09s CPU      0.11s WALL (     209 calls)
     add_vuspsi   :      0.00s CPU      0.00s WALL (     209 calls)

     General routines
     calbec       :      0.01s CPU      0.01s WALL (     305 calls)
     fft          :      0.01s CPU      0.01s WALL (     114 calls)
     ffts         :      0.00s CPU      0.00s WALL (       7 calls)
     fftw         :      0.10s CPU      0.12s WALL (    3830 calls)

     Parallel routines
     fft_scatt_xy :      0.01s CPU      0.01s WALL (    3951 calls)
     fft_scatt_yz :      0.06s CPU      0.07s WALL (    3951 calls)

     PWSCF        :     2.56s CPU         2.79s WALL


   This run was terminated on:  11:14:21  26Mar2024            

=------------------------------------------------------------------------------=
   JOB DONE.
=------------------------------------------------------------------------------=
