
     Program PWSCF v.6.3MaX starts on 26Mar2024 at 11:21:50 

     This program is part of the open-source Quantum ESPRESSO suite
     for quantum simulation of materials; please cite
         "P. Giannozzi et al., J. Phys.:Condens. Matter 21 395502 (2009);
         "P. Giannozzi et al., J. Phys.:Condens. Matter 29 465901 (2017);
          URL http://www.quantum-espresso.org", 
     in publications or presentations arising from this work. More details at
     http://www.quantum-espresso.org/quote

     Parallel version (MPI), running on     5 processors

     MPI processes distributed on     1 nodes
     R & G space division:  proc/nbgrp/npool/nimage =       5
     Waiting for input...
     Reading input from standard input

     Current dimensions of program PWSCF are:
     Max number of different atomic species (ntypx) = 10
     Max number of k-points (npk) =  40000
     Max angular momentum in pseudopotentials (lmaxx) =  3

     Subspace diagonalization in iterative solution of the eigenvalue problem:
     a serial algorithm will be used


     Parallelization info
     --------------------
     sticks:   dense  smooth     PW     G-vecs:    dense   smooth      PW
     Min          39      39     12                  381      381      67
     Max          40      40     13                  384      384      70
     Sum         199     199     61                 1917     1917     339



     bravais-lattice index     =            2
     lattice parameter (alat)  =       7.7100  a.u.
     unit-cell volume          =     114.5785 (a.u.)^3
     number of atoms/cell      =            1
     number of atomic types    =            1
     number of electrons       =        11.00
     number of Kohn-Sham states=           10
     kinetic-energy cutoff     =      25.0000  Ry
     charge density cutoff     =     100.0000  Ry
     convergence threshold     =      1.0E-08
     mixing beta               =       0.7000
     number of iterations used =            8  plain     mixing
     Exchange-correlation      = PBESOL ( 1  4 10  8 0 0)

     celldm(1)=   7.710000  celldm(2)=   0.000000  celldm(3)=   0.000000
     celldm(4)=   0.000000  celldm(5)=   0.000000  celldm(6)=   0.000000

     crystal axes: (cart. coord. in units of alat)
               a(1) = (  -0.500000   0.000000   0.500000 )  
               a(2) = (   0.000000   0.500000   0.500000 )  
               a(3) = (  -0.500000   0.500000   0.000000 )  

     reciprocal axes: (cart. coord. in units 2 pi/alat)
               b(1) = ( -1.000000 -1.000000  1.000000 )  
               b(2) = (  1.000000  1.000000  1.000000 )  
               b(3) = ( -1.000000  1.000000 -1.000000 )  


     PseudoPot. # 1 for Au read from file:
     /home/lorenzo/pseudos/Au/Au.pbesol-n-rrkjus_psl.1.0.0.UPF
     MD5 check sum: 09626e9411213730b9a56fcc59c03ca8
     Pseudo is Ultrasoft + core correction, Zval = 11.0
     Generated using "atomic" code by A. Dal Corso v.6.3
     Using radial grid of 1279 points,  6 beta functions with: 
                l(1) =   0
                l(2) =   0
                l(3) =   1
                l(4) =   1
                l(5) =   2
                l(6) =   2
     Q(r) pseudized with 0 coefficients 


     atomic species   valence    mass     pseudopotential
        Au            11.00   196.96600     Au( 1.00)

     48 Sym. Ops., with inversion, found



   Cartesian axes

     site n.     atom                  positions (alat units)
         1           Au  tau(   1) = (   0.0000000   0.0000000   0.0000000  )

     number of k points=     4  gaussian smearing, width (Ry)=  0.0100
                       cart. coord. in units 2pi/alat
        k(    1) = (   0.0000000   0.0000000   0.0000000), wk =   0.0740741
        k(    2) = (  -0.3333333   0.3333333  -0.3333333), wk =   0.5925926
        k(    3) = (   0.0000000   0.6666667   0.0000000), wk =   0.4444444
        k(    4) = (   0.6666667  -0.0000000   0.6666667), wk =   0.8888889

     Dense  grid:     1917 G-vectors     FFT dimensions: (  18,  18,  18)

     Estimated max dynamical RAM per process >       2.45 MB

     Estimated total dynamical RAM >      12.26 MB

     Initial potential from superposition of free atoms

     starting charge   10.99990, renormalised to   11.00000
     Starting wfcs are    9 randomized atomic wfcs +    1 random wfcs

     total cpu time spent up to now is        0.9 secs

     Self-consistent Calculation

     iteration #  1     ecut=    25.00 Ry     beta= 0.70
     Davidson diagonalization with overlap
     ethr =  1.00E-02,  avg # of iterations =  5.8

     Threshold (ethr) on eigenvalues was too large:
     Diagonalizing with lowered threshold

     Davidson diagonalization with overlap
     ethr =  5.64E-04,  avg # of iterations =  1.2

     total cpu time spent up to now is        1.0 secs

     total energy              =     -85.21305881 Ry
     Harris-Foulkes estimate   =     -85.25318546 Ry
     estimated scf accuracy    <       0.06193226 Ry

     iteration #  2     ecut=    25.00 Ry     beta= 0.70
     Davidson diagonalization with overlap
     ethr =  5.63E-04,  avg # of iterations =  2.0

     total cpu time spent up to now is        1.0 secs

     total energy              =     -85.22911723 Ry
     Harris-Foulkes estimate   =     -85.23594909 Ry
     estimated scf accuracy    <       0.01070291 Ry

     iteration #  3     ecut=    25.00 Ry     beta= 0.70
     Davidson diagonalization with overlap
     ethr =  9.73E-05,  avg # of iterations =  2.5

     total cpu time spent up to now is        1.0 secs

     total energy              =     -85.23592653 Ry
     Harris-Foulkes estimate   =     -85.23204346 Ry
     estimated scf accuracy    <       0.00061540 Ry

     iteration #  4     ecut=    25.00 Ry     beta= 0.70
     Davidson diagonalization with overlap
     ethr =  5.59E-06,  avg # of iterations =  5.5

     total cpu time spent up to now is        1.0 secs

     total energy              =     -78.43663072 Ry
     Harris-Foulkes estimate   =     -85.73773813 Ry
     estimated scf accuracy    <     820.26042019 Ry

     iteration #  5     ecut=    25.00 Ry     beta= 0.70
     Davidson diagonalization with overlap
     ethr =  5.59E-06,  avg # of iterations =  7.5

     total cpu time spent up to now is        1.1 secs

     total energy              =     -85.23251217 Ry
     Harris-Foulkes estimate   =     -85.23260628 Ry
     estimated scf accuracy    <       0.00134238 Ry

     iteration #  6     ecut=    25.00 Ry     beta= 0.70
     Davidson diagonalization with overlap
     ethr =  5.59E-06,  avg # of iterations =  1.2

     total cpu time spent up to now is        1.1 secs

     total energy              =     -85.23254329 Ry
     Harris-Foulkes estimate   =     -85.23251775 Ry
     estimated scf accuracy    <       0.00125065 Ry

     iteration #  7     ecut=    25.00 Ry     beta= 0.70
     Davidson diagonalization with overlap
     ethr =  5.59E-06,  avg # of iterations =  1.0

     total cpu time spent up to now is        1.1 secs

     total energy              =     -85.23253651 Ry
     Harris-Foulkes estimate   =     -85.23254382 Ry
     estimated scf accuracy    <       0.00125134 Ry

     iteration #  8     ecut=    25.00 Ry     beta= 0.70
     Davidson diagonalization with overlap
     ethr =  5.59E-06,  avg # of iterations =  1.0

     total cpu time spent up to now is        1.1 secs

     total energy              =     -85.23252395 Ry
     Harris-Foulkes estimate   =     -85.23253655 Ry
     estimated scf accuracy    <       0.00124725 Ry

     iteration #  9     ecut=    25.00 Ry     beta= 0.70
     Davidson diagonalization with overlap
     ethr =  5.59E-06,  avg # of iterations =  3.8

     total cpu time spent up to now is        1.2 secs

     total energy              =     -85.23251848 Ry
     Harris-Foulkes estimate   =     -85.23252401 Ry
     estimated scf accuracy    <       0.00123079 Ry

     iteration # 10     ecut=    25.00 Ry     beta= 0.70
     Davidson diagonalization with overlap
     ethr =  5.59E-06,  avg # of iterations =  1.0

     total cpu time spent up to now is        1.2 secs

     total energy              =     -85.23252167 Ry
     Harris-Foulkes estimate   =     -85.23251850 Ry
     estimated scf accuracy    <       0.00122519 Ry

     iteration # 11     ecut=    25.00 Ry     beta= 0.70
     Davidson diagonalization with overlap
     ethr =  5.59E-06,  avg # of iterations =  1.0

     total cpu time spent up to now is        1.2 secs

     total energy              =     -85.23253171 Ry
     Harris-Foulkes estimate   =     -85.23252167 Ry
     estimated scf accuracy    <       0.00122471 Ry

     iteration # 12     ecut=    25.00 Ry     beta= 0.70
     Davidson diagonalization with overlap
     ethr =  5.59E-06,  avg # of iterations =  1.0

     total cpu time spent up to now is        1.2 secs

     total energy              =     -85.23248997 Ry
     Harris-Foulkes estimate   =     -85.23253173 Ry
     estimated scf accuracy    <       0.00123691 Ry

     iteration # 13     ecut=    25.00 Ry     beta= 0.70
     Davidson diagonalization with overlap
     ethr =  5.59E-06,  avg # of iterations =  1.0

     total cpu time spent up to now is        1.2 secs

     total energy              =     -85.22916216 Ry
     Harris-Foulkes estimate   =     -85.23249047 Ry
     estimated scf accuracy    <       0.00118277 Ry

     iteration # 14     ecut=    25.00 Ry     beta= 0.70
     Davidson diagonalization with overlap
     ethr =  5.59E-06,  avg # of iterations =  3.8

     total cpu time spent up to now is        1.3 secs

     total energy              =     -85.23172891 Ry
     Harris-Foulkes estimate   =     -85.23233393 Ry
     estimated scf accuracy    <       0.00134265 Ry

     iteration # 15     ecut=    25.00 Ry     beta= 0.70
     Davidson diagonalization with overlap
     ethr =  5.59E-06,  avg # of iterations =  2.5

     total cpu time spent up to now is        1.3 secs

     total energy              =     -85.23147882 Ry
     Harris-Foulkes estimate   =     -85.23187818 Ry
     estimated scf accuracy    <       0.00040000 Ry

     iteration # 16     ecut=    25.00 Ry     beta= 0.70
     Davidson diagonalization with overlap
     ethr =  3.64E-06,  avg # of iterations =  3.0

     total cpu time spent up to now is        1.3 secs

     total energy              =     -85.23158559 Ry
     Harris-Foulkes estimate   =     -85.23165364 Ry
     estimated scf accuracy    <       0.00001490 Ry

     iteration # 17     ecut=    25.00 Ry     beta= 0.70
     Davidson diagonalization with overlap
     ethr =  1.35E-07,  avg # of iterations =  3.0

     total cpu time spent up to now is        1.3 secs

     total energy              =     -85.23170287 Ry
     Harris-Foulkes estimate   =     -85.23168696 Ry
     estimated scf accuracy    <       0.00006258 Ry

     iteration # 18     ecut=    25.00 Ry     beta= 0.70
     Davidson diagonalization with overlap
     ethr =  1.35E-07,  avg # of iterations =  2.0

     total cpu time spent up to now is        1.4 secs

     total energy              =     -85.23162345 Ry
     Harris-Foulkes estimate   =     -85.23170449 Ry
     estimated scf accuracy    <       0.00008689 Ry

     iteration # 19     ecut=    25.00 Ry     beta= 0.70
     Davidson diagonalization with overlap
     ethr =  1.35E-07,  avg # of iterations =  2.5

     total cpu time spent up to now is        1.4 secs

     total energy              =     -85.23162527 Ry
     Harris-Foulkes estimate   =     -85.23165203 Ry
     estimated scf accuracy    <       0.00001265 Ry

     iteration # 20     ecut=    25.00 Ry     beta= 0.70
     Davidson diagonalization with overlap
     ethr =  1.15E-07,  avg # of iterations =  2.5

     total cpu time spent up to now is        1.4 secs

     total energy              =     -85.23164667 Ry
     Harris-Foulkes estimate   =     -85.23164839 Ry
     estimated scf accuracy    <       0.00000690 Ry

     iteration # 21     ecut=    25.00 Ry     beta= 0.70
     Davidson diagonalization with overlap
     ethr =  6.27E-08,  avg # of iterations =  1.0

     total cpu time spent up to now is        1.4 secs

     total energy              =     -85.23164341 Ry
     Harris-Foulkes estimate   =     -85.23164684 Ry
     estimated scf accuracy    <       0.00000460 Ry

     iteration # 22     ecut=    25.00 Ry     beta= 0.70
     Davidson diagonalization with overlap
     ethr =  4.18E-08,  avg # of iterations =  2.2

     total cpu time spent up to now is        1.4 secs

     total energy              =     -85.23164392 Ry
     Harris-Foulkes estimate   =     -85.23164459 Ry
     estimated scf accuracy    <       0.00000066 Ry

     iteration # 23     ecut=    25.00 Ry     beta= 0.70
     Davidson diagonalization with overlap
     ethr =  6.02E-09,  avg # of iterations =  2.2

     total cpu time spent up to now is        1.5 secs

     total energy              =     -85.23164414 Ry
     Harris-Foulkes estimate   =     -85.23164420 Ry
     estimated scf accuracy    <       0.00000004 Ry

     iteration # 24     ecut=    25.00 Ry     beta= 0.70
     Davidson diagonalization with overlap
     ethr =  3.50E-10,  avg # of iterations =  3.5

     total cpu time spent up to now is        1.5 secs

     End of self-consistent calculation

          k = 0.0000 0.0000 0.0000 (   259 PWs)   bands (ev):

     5.8336  11.1070  11.1070  11.1070  12.6325  12.6325  31.1508  34.9948
    34.9948  34.9948

          k =-0.3333 0.3333-0.3333 (   238 PWs)   bands (ev):

     8.2740  11.2572  11.2572  11.7977  13.2597  13.2597  23.7759  31.3472
    34.9948  34.9948

          k = 0.0000 0.6667 0.0000 (   238 PWs)   bands (ev):

     8.8920   9.4871  12.7500  13.1583  13.1583  13.4924  28.0147  28.4279
    28.4279  32.4954

          k = 0.6667-0.0000 0.6667 (   236 PWs)   bands (ev):

     9.6178  10.4178  11.2966  12.5198  13.4139  18.2613  22.3215  22.9998
    30.2652  33.2957

     the Fermi energy is    13.5837 ev

!    total energy              =     -85.23164419 Ry
     Harris-Foulkes estimate   =     -85.23164418 Ry
     estimated scf accuracy    <          1.1E-09 Ry

     The total energy is the sum of the following terms:

     one-electron contribution =      11.01327069 Ry
     hartree contribution      =       7.51024104 Ry
     xc contribution           =     -31.79943094 Ry
     ewald contribution        =     -71.95438543 Ry
     smearing contrib. (-TS)   =      -0.00133954 Ry

     convergence has been achieved in  24 iterations

     Forces acting on atoms (cartesian axes, Ry/au):

     atom    1 type  1   force =     0.00000000    0.00000000    0.00000000

     Total force =     0.000000     Total SCF correction =     0.000000


     Computing stress (Cartesian axis) and pressure

          total   stress  (Ry/bohr**3)                   (kbar)     P=  -49.94
  -0.00033947   0.00000000   0.00000000        -49.94      0.00      0.00
   0.00000000  -0.00033947   0.00000000          0.00    -49.94      0.00
   0.00000000   0.00000000  -0.00033947          0.00      0.00    -49.94


     Writing output data file Au.save/

     init_run     :      0.11s CPU      0.11s WALL (       1 calls)
     electrons    :      0.53s CPU      0.58s WALL (       1 calls)
     forces       :      0.01s CPU      0.01s WALL (       1 calls)
     stress       :      0.02s CPU      0.02s WALL (       1 calls)

     Called by init_run:
     wfcinit      :      0.00s CPU      0.01s WALL (       1 calls)
     potinit      :      0.00s CPU      0.00s WALL (       1 calls)
     hinit0       :      0.10s CPU      0.10s WALL (       1 calls)

     Called by electrons:
     c_bands      :      0.34s CPU      0.38s WALL (      25 calls)
     sum_band     :      0.10s CPU      0.11s WALL (      25 calls)
     v_of_rho     :      0.03s CPU      0.03s WALL (      25 calls)
     newd         :      0.04s CPU      0.05s WALL (      25 calls)
     mix_rho      :      0.01s CPU      0.01s WALL (      25 calls)

     Called by c_bands:
     init_us_2    :      0.01s CPU      0.01s WALL (     212 calls)
     cegterg      :      0.33s CPU      0.36s WALL (     100 calls)

     Called by sum_band:
     sum_band:bec :      0.00s CPU      0.00s WALL (     100 calls)
     addusdens    :      0.04s CPU      0.04s WALL (      25 calls)

     Called by *egterg:
     h_psi        :      0.21s CPU      0.24s WALL (     359 calls)
     s_psi        :      0.01s CPU      0.01s WALL (     359 calls)
     g_psi        :      0.00s CPU      0.00s WALL (     255 calls)
     cdiaghg      :      0.07s CPU      0.07s WALL (     351 calls)

     Called by h_psi:
     h_psi:pot    :      0.21s CPU      0.24s WALL (     359 calls)
     h_psi:calbec :      0.01s CPU      0.01s WALL (     359 calls)
     vloc_psi     :      0.19s CPU      0.21s WALL (     359 calls)
     add_vuspsi   :      0.01s CPU      0.01s WALL (     359 calls)

     General routines
     calbec       :      0.01s CPU      0.02s WALL (     479 calls)
     fft          :      0.02s CPU      0.02s WALL (     302 calls)
     ffts         :      0.00s CPU      0.00s WALL (      25 calls)
     fftw         :      0.21s CPU      0.23s WALL (    6472 calls)

     Parallel routines
     fft_scatt_xy :      0.02s CPU      0.02s WALL (    6799 calls)
     fft_scatt_yz :      0.07s CPU      0.08s WALL (    6799 calls)

     PWSCF        :     1.47s CPU         1.57s WALL


   This run was terminated on:  11:21:52  26Mar2024            

=------------------------------------------------------------------------------=
   JOB DONE.
=------------------------------------------------------------------------------=
