
     Program PWSCF v.6.3MaX starts on 26Mar2024 at 12:10:27 

     This program is part of the open-source Quantum ESPRESSO suite
     for quantum simulation of materials; please cite
         "P. Giannozzi et al., J. Phys.:Condens. Matter 21 395502 (2009);
         "P. Giannozzi et al., J. Phys.:Condens. Matter 29 465901 (2017);
          URL http://www.quantum-espresso.org", 
     in publications or presentations arising from this work. More details at
     http://www.quantum-espresso.org/quote

     Parallel version (MPI), running on     5 processors

     MPI processes distributed on     1 nodes
     R & G space division:  proc/nbgrp/npool/nimage =       5
     Waiting for input...
     Reading input from standard input

     Current dimensions of program PWSCF are:
     Max number of different atomic species (ntypx) = 10
     Max number of k-points (npk) =  40000
     Max angular momentum in pseudopotentials (lmaxx) =  3

     Subspace diagonalization in iterative solution of the eigenvalue problem:
     a serial algorithm will be used


     Parallelization info
     --------------------
     sticks:   dense  smooth     PW     G-vecs:    dense   smooth      PW
     Min         122     122     39                 1997     1997     361
     Max         123     123     40                 1997     1997     363
     Sum         613     613    199                 9985     9985    1807



     bravais-lattice index     =            2
     lattice parameter (alat)  =       7.7100  a.u.
     unit-cell volume          =     114.5785 (a.u.)^3
     number of atoms/cell      =            1
     number of atomic types    =            1
     number of electrons       =        11.00
     number of Kohn-Sham states=           10
     kinetic-energy cutoff     =      75.0000  Ry
     charge density cutoff     =     300.0000  Ry
     convergence threshold     =      1.0E-08
     mixing beta               =       0.7000
     number of iterations used =            8  plain     mixing
     Exchange-correlation      = PBE ( 1  4  3  4 0 0)

     celldm(1)=   7.710000  celldm(2)=   0.000000  celldm(3)=   0.000000
     celldm(4)=   0.000000  celldm(5)=   0.000000  celldm(6)=   0.000000

     crystal axes: (cart. coord. in units of alat)
               a(1) = (  -0.500000   0.000000   0.500000 )  
               a(2) = (   0.000000   0.500000   0.500000 )  
               a(3) = (  -0.500000   0.500000   0.000000 )  

     reciprocal axes: (cart. coord. in units 2 pi/alat)
               b(1) = ( -1.000000 -1.000000  1.000000 )  
               b(2) = (  1.000000  1.000000  1.000000 )  
               b(3) = ( -1.000000  1.000000 -1.000000 )  


     PseudoPot. # 1 for Au read from file:
     /home/lorenzo/pseudos/Au/Au.pbe-n-rrkjus_psl.1.0.0.UPF
     MD5 check sum: d7e77ba19504afed2c9b41c931dde4f0
     Pseudo is Ultrasoft + core correction, Zval = 11.0
     Generated using "atomic" code by A. Dal Corso v.6.3
     Using radial grid of 1279 points,  6 beta functions with: 
                l(1) =   0
                l(2) =   0
                l(3) =   1
                l(4) =   1
                l(5) =   2
                l(6) =   2
     Q(r) pseudized with 0 coefficients 


     atomic species   valence    mass     pseudopotential
        Au            11.00   196.96600     Au( 1.00)

     48 Sym. Ops., with inversion, found



   Cartesian axes

     site n.     atom                  positions (alat units)
         1           Au  tau(   1) = (   0.0000000   0.0000000   0.0000000  )

     number of k points=    47  gaussian smearing, width (Ry)=  0.0100
                       cart. coord. in units 2pi/alat
        k(    1) = (   0.0000000   0.0000000   0.0000000), wk =   0.0020000
        k(    2) = (  -0.1000000   0.1000000  -0.1000000), wk =   0.0160000
        k(    3) = (  -0.2000000   0.2000000  -0.2000000), wk =   0.0160000
        k(    4) = (  -0.3000000   0.3000000  -0.3000000), wk =   0.0160000
        k(    5) = (  -0.4000000   0.4000000  -0.4000000), wk =   0.0160000
        k(    6) = (   0.5000000  -0.5000000   0.5000000), wk =   0.0080000
        k(    7) = (   0.0000000   0.2000000   0.0000000), wk =   0.0120000
        k(    8) = (  -0.1000000   0.3000000  -0.1000000), wk =   0.0480000
        k(    9) = (  -0.2000000   0.4000000  -0.2000000), wk =   0.0480000
        k(   10) = (  -0.3000000   0.5000000  -0.3000000), wk =   0.0480000
        k(   11) = (   0.6000000  -0.4000000   0.6000000), wk =   0.0480000
        k(   12) = (   0.5000000  -0.3000000   0.5000000), wk =   0.0480000
        k(   13) = (   0.4000000  -0.2000000   0.4000000), wk =   0.0480000
        k(   14) = (   0.3000000  -0.1000000   0.3000000), wk =   0.0480000
        k(   15) = (   0.2000000   0.0000000   0.2000000), wk =   0.0240000
        k(   16) = (   0.0000000   0.4000000   0.0000000), wk =   0.0120000
        k(   17) = (  -0.1000000   0.5000000  -0.1000000), wk =   0.0480000
        k(   18) = (  -0.2000000   0.6000000  -0.2000000), wk =   0.0480000
        k(   19) = (   0.7000000  -0.3000000   0.7000000), wk =   0.0480000
        k(   20) = (   0.6000000  -0.2000000   0.6000000), wk =   0.0480000
        k(   21) = (   0.5000000  -0.1000000   0.5000000), wk =   0.0480000
        k(   22) = (   0.4000000   0.0000000   0.4000000), wk =   0.0240000
        k(   23) = (   0.0000000   0.6000000   0.0000000), wk =   0.0120000
        k(   24) = (  -0.1000000   0.7000000  -0.1000000), wk =   0.0480000
        k(   25) = (   0.8000000  -0.2000000   0.8000000), wk =   0.0480000
        k(   26) = (   0.7000000  -0.1000000   0.7000000), wk =   0.0480000
        k(   27) = (   0.6000000  -0.0000000   0.6000000), wk =   0.0240000
        k(   28) = (   0.0000000   0.8000000   0.0000000), wk =   0.0120000
        k(   29) = (   0.9000000  -0.1000000   0.9000000), wk =   0.0480000
        k(   30) = (   0.8000000   0.0000000   0.8000000), wk =   0.0240000
        k(   31) = (   0.0000000  -1.0000000   0.0000000), wk =   0.0060000
        k(   32) = (  -0.2000000   0.4000000   0.0000000), wk =   0.0480000
        k(   33) = (  -0.3000000   0.5000000  -0.1000000), wk =   0.0960000
        k(   34) = (   0.6000000  -0.4000000   0.8000000), wk =   0.0960000
        k(   35) = (   0.5000000  -0.3000000   0.7000000), wk =   0.0480000
        k(   36) = (  -0.2000000   0.6000000   0.0000000), wk =   0.0480000
        k(   37) = (   0.7000000  -0.3000000   0.9000000), wk =   0.0960000
        k(   38) = (   0.6000000  -0.2000000   0.8000000), wk =   0.0960000
        k(   39) = (   0.5000000  -0.1000000   0.7000000), wk =   0.0960000
        k(   40) = (   0.4000000   0.0000000   0.6000000), wk =   0.0480000
        k(   41) = (   0.8000000  -0.2000000   1.0000000), wk =   0.0480000
        k(   42) = (   0.7000000  -0.1000000   0.9000000), wk =   0.0960000
        k(   43) = (   0.6000000   0.0000000   0.8000000), wk =   0.0480000
        k(   44) = (  -0.2000000  -1.0000000   0.0000000), wk =   0.0240000
        k(   45) = (   0.6000000  -0.2000000   1.0000000), wk =   0.0480000
        k(   46) = (   0.5000000  -0.1000000   0.9000000), wk =   0.0480000
        k(   47) = (  -0.4000000  -1.0000000   0.0000000), wk =   0.0240000

     Dense  grid:     9985 G-vectors     FFT dimensions: (  32,  32,  32)

     Estimated max dynamical RAM per process >      11.06 MB

     Estimated total dynamical RAM >      55.30 MB

     Initial potential from superposition of free atoms

     starting charge   10.99989, renormalised to   11.00000
     Starting wfcs are    9 randomized atomic wfcs +    1 random wfcs

     total cpu time spent up to now is        1.2 secs

     Self-consistent Calculation

     iteration #  1     ecut=    75.00 Ry     beta= 0.70
     Davidson diagonalization with overlap
     ethr =  1.00E-02,  avg # of iterations =  5.3

     Threshold (ethr) on eigenvalues was too large:
     Diagonalizing with lowered threshold

     Davidson diagonalization with overlap
     ethr =  4.80E-04,  avg # of iterations =  1.7

     total cpu time spent up to now is        2.6 secs

     total energy              =     -85.36892411 Ry
     Harris-Foulkes estimate   =     -85.40219093 Ry
     estimated scf accuracy    <       0.05280026 Ry

     iteration #  2     ecut=    75.00 Ry     beta= 0.70
     Davidson diagonalization with overlap
     ethr =  4.80E-04,  avg # of iterations =  2.6

     total cpu time spent up to now is        3.3 secs

     total energy              =     -85.38299642 Ry
     Harris-Foulkes estimate   =     -85.39019806 Ry
     estimated scf accuracy    <       0.01156314 Ry

     iteration #  3     ecut=    75.00 Ry     beta= 0.70
     Davidson diagonalization with overlap
     ethr =  1.05E-04,  avg # of iterations =  2.2

     total cpu time spent up to now is        4.2 secs

     total energy              =     -85.38570223 Ry
     Harris-Foulkes estimate   =     -85.38574885 Ry
     estimated scf accuracy    <       0.00017502 Ry

     iteration #  4     ecut=    75.00 Ry     beta= 0.70
     Davidson diagonalization with overlap
     ethr =  1.59E-06,  avg # of iterations =  3.8

     total cpu time spent up to now is        5.4 secs

     total energy              =     -85.38585176 Ry
     Harris-Foulkes estimate   =     -85.38590809 Ry
     estimated scf accuracy    <       0.00010993 Ry

     iteration #  5     ecut=    75.00 Ry     beta= 0.70
     Davidson diagonalization with overlap
     ethr =  9.99E-07,  avg # of iterations =  1.0

     total cpu time spent up to now is        5.8 secs

     total energy              =     -85.38585884 Ry
     Harris-Foulkes estimate   =     -85.38586324 Ry
     estimated scf accuracy    <       0.00000733 Ry

     iteration #  6     ecut=    75.00 Ry     beta= 0.70
     Davidson diagonalization with overlap
     ethr =  6.67E-08,  avg # of iterations =  3.0

     total cpu time spent up to now is        6.6 secs

     total energy              =     -85.38586399 Ry
     Harris-Foulkes estimate   =     -85.38586430 Ry
     estimated scf accuracy    <       0.00000103 Ry

     iteration #  7     ecut=    75.00 Ry     beta= 0.70
     Davidson diagonalization with overlap
     ethr =  9.34E-09,  avg # of iterations =  1.0

     total cpu time spent up to now is        7.1 secs

     total energy              =     -85.38586383 Ry
     Harris-Foulkes estimate   =     -85.38586403 Ry
     estimated scf accuracy    <       0.00000033 Ry

     iteration #  8     ecut=    75.00 Ry     beta= 0.70
     Davidson diagonalization with overlap
     ethr =  2.99E-09,  avg # of iterations =  2.4

     total cpu time spent up to now is        7.8 secs

     total energy              =     -85.38586394 Ry
     Harris-Foulkes estimate   =     -85.38586394 Ry
     estimated scf accuracy    <       0.00000002 Ry

     iteration #  9     ecut=    75.00 Ry     beta= 0.70
     Davidson diagonalization with overlap
     ethr =  1.75E-10,  avg # of iterations =  2.5

     total cpu time spent up to now is        8.5 secs

     End of self-consistent calculation

          k = 0.0000 0.0000 0.0000 (  1243 PWs)   bands (ev):

     6.0951  11.3121  11.3121  11.3121  12.8433  12.8433  31.3947  35.2603
    35.2603  35.2603

          k =-0.1000 0.1000-0.1000 (  1261 PWs)   bands (ev):

     6.4404  11.2062  11.4266  11.4266  12.7978  12.7978  31.6924  33.1687
    35.5913  35.5913

          k =-0.2000 0.2000-0.2000 (  1266 PWs)   bands (ev):

     7.3641  11.0705  11.6005  11.6005  12.8429  12.8429  29.2794  32.4862
    36.2108  36.2108

          k =-0.3000 0.3000-0.3000 (  1266 PWs)   bands (ev):

     8.3275  11.5264  11.5264  11.5665  13.2720  13.2720  25.2836  31.8978
    35.6556  35.6556

          k =-0.4000 0.4000-0.4000 (  1251 PWs)   bands (ev):

     8.6422  11.3504  11.3504  13.3635  13.8160  13.8160  21.4100  31.0212
    34.2364  34.2364

          k = 0.5000-0.5000 0.5000 (  1260 PWs)   bands (ev):

     8.6589  11.2733  11.2733  14.0563  14.0563  15.0229  19.1096  30.6831
    33.6217  33.6217

          k = 0.0000 0.2000 0.0000 (  1263 PWs)   bands (ev):

     6.5571  11.0774  11.5236  11.5236  12.5946  12.9468  31.8991  33.8956
    34.6753  34.6753

          k =-0.1000 0.3000-0.1000 (  1268 PWs)   bands (ev):

     7.3037  10.8510  11.7183  11.7528  12.4756  13.0726  30.7557  32.6033
    34.0953  35.6677

          k =-0.2000 0.4000-0.2000 (  1259 PWs)   bands (ev):

     8.3436  10.8995  11.5396  11.7889  13.0486  13.4334  26.8075  32.3471
    33.4327  35.5808

          k =-0.3000 0.5000-0.3000 (  1261 PWs)   bands (ev):

     8.8618  11.2552  11.6282  11.8428  13.9032  14.2578  22.7723  31.4293
    32.7709  33.9136

          k = 0.6000-0.4000 0.6000 (  1252 PWs)   bands (ev):

     8.9108  11.1160  11.4891  12.8594  14.0725  16.0712  19.4723  30.8070
    32.5311  32.7745

          k = 0.5000-0.3000 0.5000 (  1252 PWs)   bands (ev):

     8.9209  11.1688  11.4864  12.7778  13.7543  15.5551  20.4378  30.6839
    32.1738  33.9169

          k = 0.4000-0.2000 0.4000 (  1261 PWs)   bands (ev):

     8.7954  11.3132  11.6342  11.6412  13.1108  14.2654  24.1190  31.0300
    32.9665  36.1687

          k = 0.3000-0.1000 0.3000 (  1271 PWs)   bands (ev):

     8.0152  10.8879  11.6260  11.7951  12.5386  13.4528  28.1227  31.5775
    34.4865  36.5167

          k = 0.2000 0.0000 0.2000 (  1277 PWs)   bands (ev):

     6.9900  11.0139  11.5993  11.6111  12.5576  12.9872  31.5454  31.8868
    34.5275  37.0669

          k = 0.0000 0.4000 0.0000 (  1279 PWs)   bands (ev):

     7.8092  10.5063  12.0839  12.1324  12.1324  13.2250  32.4569  32.4569
    32.6936  33.1387

          k =-0.1000 0.5000-0.1000 (  1269 PWs)   bands (ev):

     8.6799  10.2690  11.6726  12.3708  13.0075  13.5232  28.6119  31.2481
    32.4156  33.6535

          k =-0.2000 0.6000-0.2000 (  1266 PWs)   bands (ev):

     9.3066  10.5146  11.3590  12.2757  13.9717  14.5733  24.4236  30.5925
    30.6035  33.2022

          k = 0.7000-0.3000 0.7000 (  1249 PWs)   bands (ev):

     9.4324  10.7747  11.6673  12.0956  14.1169  16.8749  20.6709  28.9852
    30.8163  32.6704

          k = 0.6000-0.2000 0.6000 (  1259 PWs)   bands (ev):

     9.5413  10.8039  11.9150  11.9949  13.7571  17.6017  19.9955  27.8579
    32.1370  32.4559

          k = 0.5000-0.1000 0.5000 (  1261 PWs)   bands (ev):

     9.6258  10.9475  11.3239  12.0392  13.0616  15.7313  23.4426  27.5749
    32.8228  34.3939

          k = 0.4000 0.0000 0.4000 (  1259 PWs)   bands (ev):

     9.0638  10.6783  11.4121  12.2041  12.3614  14.4486  26.6736  28.6255
    33.8039  36.6275

          k = 0.0000 0.6000 0.0000 (  1267 PWs)   bands (ev):

     9.0124   9.8704  12.3915  13.0344  13.0344  13.5849  29.5252  29.5252
    30.0468  32.6224

          k =-0.1000 0.7000-0.1000 (  1262 PWs)   bands (ev):

     9.2764   9.7323  12.4226  13.1432  13.9831  14.5918  25.9211  28.2337
    28.5476  33.5324

          k = 0.8000-0.2000 0.8000 (  1256 PWs)   bands (ev):

     9.4430  10.0223  12.1261  12.9508  14.1799  17.1439  22.2774  26.4000
    28.6360  33.6608

          k = 0.7000-0.1000 0.7000 (  1254 PWs)   bands (ev):

     9.6944  10.4835  11.7229  12.7297  13.8574  19.2498  20.3953  24.7437
    29.8918  33.3774

          k = 0.6000-0.0000 0.6000 (  1256 PWs)   bands (ev):

    10.0163  10.8830  11.1190  12.4733  13.3168  17.3218  23.4569  23.9785
    32.0060  33.0798

          k = 0.0000 0.8000 0.0000 (  1258 PWs)   bands (ev):

     9.0482   9.4009  13.8905  13.9567  13.9567  14.7753  24.8840  27.1629
    27.1629  32.9836

          k = 0.9000-0.1000 0.9000 (  1255 PWs)   bands (ev):

     9.0939   9.4124  13.5408  13.7403  14.2696  17.1386  22.5188  25.6304
    26.9087  33.8628

          k = 0.8000 0.0000 0.8000 (  1248 PWs)   bands (ev):

     9.3549   9.8353  12.6468  13.3907  14.0898  19.7037  20.6684  23.9230
    27.9425  34.0191

          k = 0.0000-1.0000 0.0000 (  1234 PWs)   bands (ev):

     8.9099   9.2305  14.0110  14.3822  14.3822  17.0301  21.8159  26.2310
    26.2310  33.2365

          k =-0.2000 0.4000 0.0000 (  1265 PWs)   bands (ev):

     8.1629  10.5930  11.6259  12.1380  12.4518  13.4920  29.3182  30.7922
    34.3526  34.7496

          k =-0.3000 0.5000-0.1000 (  1263 PWs)   bands (ev):

     9.1182  10.6777  11.2648  12.1575  13.0277  14.3939  25.7262  29.7157
    32.5007  35.4266

          k = 0.6000-0.4000 0.8000 (  1251 PWs)   bands (ev):

     9.3708  10.9495  11.5429  12.0034  13.7284  15.8653  21.8732  29.4506
    31.0556  34.1869

          k = 0.5000-0.3000 0.7000 (  1254 PWs)   bands (ev):

     9.3633  10.8284  11.8606  12.1470  13.9527  17.7885  19.0738  29.7689
    30.1424  33.5648

          k =-0.2000 0.6000 0.0000 (  1260 PWs)   bands (ev):

     9.3512  10.0529  11.5208  13.0265  13.1161  14.3909  26.9871  28.4699
    30.5562  35.5446

          k = 0.7000-0.3000 0.9000 (  1253 PWs)   bands (ev):

     9.7012  10.2906  11.3106  12.8335  13.8097  16.1067  23.5394  27.4878
    28.9458  35.0244

          k = 0.6000-0.2000 0.8000 (  1248 PWs)   bands (ev):

     9.8421  10.5119  11.4232  12.5451  13.9736  18.6238  20.2341  26.7299
    28.6431  34.7088

          k = 0.5000-0.1000 0.7000 (  1250 PWs)   bands (ev):

    10.0818  10.5576  11.2101  12.4836  13.6520  17.6284  21.7715  25.8201
    29.7784  35.0060

          k = 0.4000 0.0000 0.6000 (  1260 PWs)   bands (ev):

    10.0533  10.5442  10.8524  12.6095  13.0570  15.8110  24.6687  26.3273
    31.2045  36.0506

          k = 0.8000-0.2000 1.0000 (  1258 PWs)   bands (ev):

     9.3699   9.6419  12.4742  13.6601  13.9520  16.3343  24.0808  26.3513
    27.0679  35.0104

          k = 0.7000-0.1000 0.9000 (  1254 PWs)   bands (ev):

     9.5719   9.9591  12.0847  13.2216  14.1928  18.8881  21.6672  24.6226
    26.9433  35.4883

          k = 0.6000 0.0000 0.8000 (  1252 PWs)   bands (ev):

     9.9003  10.4602  11.4458  12.8073  13.9535  19.3489  21.9652  23.1721
    28.1850  35.3268

          k =-0.2000-1.0000 0.0000 (  1254 PWs)   bands (ev):

     9.2130   9.4911  13.1530  13.6487  14.3829  18.5742  21.4260  25.4816
    25.8711  35.1435

          k = 0.6000-0.2000 1.0000 (  1243 PWs)   bands (ev):

    10.1018  10.3483  11.0520  12.9696  13.9427  18.0344  23.1384  24.3795
    27.3978  37.4763

          k = 0.5000-0.1000 0.9000 (  1242 PWs)   bands (ev):

    10.1361  10.5883  10.9802  12.7146  14.1688  19.8826  21.3210  24.0900
    26.5646  37.4094

          k =-0.4000-1.0000 0.0000 (  1238 PWs)   bands (ev):

     9.8692  10.2652  11.5217  12.8716  14.3840  20.8919  21.0839  23.5627
    25.5198  38.1643

     the Fermi energy is    15.9985 ev

!    total energy              =     -85.38586394 Ry
     Harris-Foulkes estimate   =     -85.38586394 Ry
     estimated scf accuracy    <          2.5E-09 Ry

     The total energy is the sum of the following terms:

     one-electron contribution =      11.08097787 Ry
     hartree contribution      =       7.59304568 Ry
     xc contribution           =     -32.10512918 Ry
     ewald contribution        =     -71.95438534 Ry
     smearing contrib. (-TS)   =      -0.00037297 Ry

     convergence has been achieved in   9 iterations

     Forces acting on atoms (cartesian axes, Ry/au):

     atom    1 type  1   force =     0.00000000    0.00000000    0.00000000

     Total force =     0.000000     Total SCF correction =     0.000000


     Computing stress (Cartesian axis) and pressure

          total   stress  (Ry/bohr**3)                   (kbar)     P=  108.50
   0.00073757  -0.00000000  -0.00000000        108.50     -0.00     -0.00
  -0.00000000   0.00073757  -0.00000000         -0.00    108.50     -0.00
  -0.00000000  -0.00000000   0.00073757         -0.00     -0.00    108.50


     Writing output data file Au.save/

     init_run     :      0.38s CPU      0.40s WALL (       1 calls)
     electrons    :      6.78s CPU      7.29s WALL (       1 calls)
     forces       :      0.08s CPU      0.08s WALL (       1 calls)
     stress       :      0.23s CPU      0.23s WALL (       1 calls)

     Called by init_run:
     wfcinit      :      0.16s CPU      0.17s WALL (       1 calls)
     potinit      :      0.02s CPU      0.02s WALL (       1 calls)
     hinit0       :      0.19s CPU      0.19s WALL (       1 calls)

     Called by electrons:
     c_bands      :      5.52s CPU      5.96s WALL (      10 calls)
     sum_band     :      1.07s CPU      1.14s WALL (      10 calls)
     v_of_rho     :      0.10s CPU      0.10s WALL (      10 calls)
     newd         :      0.10s CPU      0.10s WALL (      10 calls)
     mix_rho      :      0.01s CPU      0.01s WALL (      10 calls)

     Called by c_bands:
     init_us_2    :      0.16s CPU      0.17s WALL (    1081 calls)
     cegterg      :      5.24s CPU      5.66s WALL (     470 calls)

     Called by sum_band:
     sum_band:bec :      0.00s CPU      0.01s WALL (     470 calls)
     addusdens    :      0.10s CPU      0.10s WALL (      10 calls)

     Called by *egterg:
     h_psi        :      4.07s CPU      4.43s WALL (    1716 calls)
     s_psi        :      0.12s CPU      0.13s WALL (    1716 calls)
     g_psi        :      0.01s CPU      0.01s WALL (    1199 calls)
     cdiaghg      :      0.43s CPU      0.45s WALL (    1622 calls)

     Called by h_psi:
     h_psi:pot    :      4.05s CPU      4.41s WALL (    1716 calls)
     h_psi:calbec :      0.22s CPU      0.24s WALL (    1716 calls)
     vloc_psi     :      3.70s CPU      4.03s WALL (    1716 calls)
     add_vuspsi   :      0.12s CPU      0.13s WALL (    1716 calls)

     General routines
     calbec       :      0.34s CPU      0.37s WALL (    2421 calls)
     fft          :      0.06s CPU      0.06s WALL (     137 calls)
     ffts         :      0.00s CPU      0.00s WALL (      10 calls)
     fftw         :      4.14s CPU      4.50s WALL (   29990 calls)

     Parallel routines
     fft_scatt_xy :      0.36s CPU      0.39s WALL (   30137 calls)
     fft_scatt_yz :      1.66s CPU      1.79s WALL (   30137 calls)

     PWSCF        :     8.34s CPU         8.95s WALL


   This run was terminated on:  12:10:36  26Mar2024            

=------------------------------------------------------------------------------=
   JOB DONE.
=------------------------------------------------------------------------------=
