
     Program PWSCF v.6.3MaX starts on 26Mar2024 at 12: 8: 8 

     This program is part of the open-source Quantum ESPRESSO suite
     for quantum simulation of materials; please cite
         "P. Giannozzi et al., J. Phys.:Condens. Matter 21 395502 (2009);
         "P. Giannozzi et al., J. Phys.:Condens. Matter 29 465901 (2017);
          URL http://www.quantum-espresso.org", 
     in publications or presentations arising from this work. More details at
     http://www.quantum-espresso.org/quote

     Parallel version (MPI), running on     5 processors

     MPI processes distributed on     1 nodes
     R & G space division:  proc/nbgrp/npool/nimage =       5
     Waiting for input...
     Reading input from standard input

     Current dimensions of program PWSCF are:
     Max number of different atomic species (ntypx) = 10
     Max number of k-points (npk) =  40000
     Max angular momentum in pseudopotentials (lmaxx) =  3

     Subspace diagonalization in iterative solution of the eigenvalue problem:
     a serial algorithm will be used


     Parallelization info
     --------------------
     sticks:   dense  smooth     PW     G-vecs:    dense   smooth      PW
     Min         116     116     37                 1836     1836     327
     Max         117     117     38                 1838     1838     329
     Sum         583     583    187                 9185     9185    1639



     bravais-lattice index     =            2
     lattice parameter (alat)  =       7.7100  a.u.
     unit-cell volume          =     114.5785 (a.u.)^3
     number of atoms/cell      =            1
     number of atomic types    =            1
     number of electrons       =        11.00
     number of Kohn-Sham states=           10
     kinetic-energy cutoff     =      70.0000  Ry
     charge density cutoff     =     280.0000  Ry
     convergence threshold     =      1.0E-08
     mixing beta               =       0.7000
     number of iterations used =            8  plain     mixing
     Exchange-correlation      = PBESOL ( 1  4 10  8 0 0)

     celldm(1)=   7.710000  celldm(2)=   0.000000  celldm(3)=   0.000000
     celldm(4)=   0.000000  celldm(5)=   0.000000  celldm(6)=   0.000000

     crystal axes: (cart. coord. in units of alat)
               a(1) = (  -0.500000   0.000000   0.500000 )  
               a(2) = (   0.000000   0.500000   0.500000 )  
               a(3) = (  -0.500000   0.500000   0.000000 )  

     reciprocal axes: (cart. coord. in units 2 pi/alat)
               b(1) = ( -1.000000 -1.000000  1.000000 )  
               b(2) = (  1.000000  1.000000  1.000000 )  
               b(3) = ( -1.000000  1.000000 -1.000000 )  


     PseudoPot. # 1 for Au read from file:
     /home/lorenzo/pseudos/Au/Au.pbesol-n-rrkjus_psl.1.0.0.UPF
     MD5 check sum: 09626e9411213730b9a56fcc59c03ca8
     Pseudo is Ultrasoft + core correction, Zval = 11.0
     Generated using "atomic" code by A. Dal Corso v.6.3
     Using radial grid of 1279 points,  6 beta functions with: 
                l(1) =   0
                l(2) =   0
                l(3) =   1
                l(4) =   1
                l(5) =   2
                l(6) =   2
     Q(r) pseudized with 0 coefficients 


     atomic species   valence    mass     pseudopotential
        Au            11.00   196.96600     Au( 1.00)

     48 Sym. Ops., with inversion, found



   Cartesian axes

     site n.     atom                  positions (alat units)
         1           Au  tau(   1) = (   0.0000000   0.0000000   0.0000000  )

     number of k points=    16  gaussian smearing, width (Ry)=  0.0100
                       cart. coord. in units 2pi/alat
        k(    1) = (   0.0000000   0.0000000   0.0000000), wk =   0.0092593
        k(    2) = (  -0.1666667   0.1666667  -0.1666667), wk =   0.0740741
        k(    3) = (  -0.3333333   0.3333333  -0.3333333), wk =   0.0740741
        k(    4) = (   0.5000000  -0.5000000   0.5000000), wk =   0.0370370
        k(    5) = (   0.0000000   0.3333333   0.0000000), wk =   0.0555556
        k(    6) = (  -0.1666667   0.5000000  -0.1666667), wk =   0.2222222
        k(    7) = (   0.6666667  -0.3333333   0.6666667), wk =   0.2222222
        k(    8) = (   0.5000000  -0.1666667   0.5000000), wk =   0.2222222
        k(    9) = (   0.3333333   0.0000000   0.3333333), wk =   0.1111111
        k(   10) = (   0.0000000   0.6666667   0.0000000), wk =   0.0555556
        k(   11) = (   0.8333333  -0.1666667   0.8333333), wk =   0.2222222
        k(   12) = (   0.6666667  -0.0000000   0.6666667), wk =   0.1111111
        k(   13) = (   0.0000000  -1.0000000   0.0000000), wk =   0.0277778
        k(   14) = (   0.6666667  -0.3333333   1.0000000), wk =   0.2222222
        k(   15) = (   0.5000000  -0.1666667   0.8333333), wk =   0.2222222
        k(   16) = (  -0.3333333  -1.0000000   0.0000000), wk =   0.1111111

     Dense  grid:     9185 G-vectors     FFT dimensions: (  30,  30,  30)

     Estimated max dynamical RAM per process >       9.07 MB

     Estimated total dynamical RAM >      45.34 MB

     Initial potential from superposition of free atoms

     starting charge   10.99990, renormalised to   11.00000
     Starting wfcs are    9 randomized atomic wfcs +    1 random wfcs

     total cpu time spent up to now is        1.3 secs

     Self-consistent Calculation

     iteration #  1     ecut=    70.00 Ry     beta= 0.70
     Davidson diagonalization with overlap
     ethr =  1.00E-02,  avg # of iterations =  5.7

     Threshold (ethr) on eigenvalues was too large:
     Diagonalizing with lowered threshold

     Davidson diagonalization with overlap
     ethr =  5.50E-04,  avg # of iterations =  1.6

     total cpu time spent up to now is        1.8 secs

     total energy              =     -85.18522570 Ry
     Harris-Foulkes estimate   =     -85.22334379 Ry
     estimated scf accuracy    <       0.06140720 Ry

     iteration #  2     ecut=    70.00 Ry     beta= 0.70
     Davidson diagonalization with overlap
     ethr =  5.58E-04,  avg # of iterations =  4.5

     total cpu time spent up to now is        2.3 secs

     total energy              =     -84.20115452 Ry
     Harris-Foulkes estimate   =     -85.37013239 Ry
     estimated scf accuracy    <     274.88202647 Ry

     iteration #  3     ecut=    70.00 Ry     beta= 0.70
     Davidson diagonalization with overlap
     ethr =  5.58E-04,  avg # of iterations =  5.6

     total cpu time spent up to now is        2.6 secs

     total energy              =     -85.20046953 Ry
     Harris-Foulkes estimate   =     -85.21125228 Ry
     estimated scf accuracy    <       0.05015110 Ry

     iteration #  4     ecut=    70.00 Ry     beta= 0.70
     Davidson diagonalization with overlap
     ethr =  4.56E-04,  avg # of iterations =  2.1

     total cpu time spent up to now is        2.7 secs

     total energy              =     -85.20358907 Ry
     Harris-Foulkes estimate   =     -85.20386166 Ry
     estimated scf accuracy    <       0.02394998 Ry

     iteration #  5     ecut=    70.00 Ry     beta= 0.70
     Davidson diagonalization with overlap
     ethr =  2.18E-04,  avg # of iterations =  1.2

     total cpu time spent up to now is        2.9 secs

     total energy              =     -85.20388834 Ry
     Harris-Foulkes estimate   =     -85.20391832 Ry
     estimated scf accuracy    <       0.01971493 Ry

     iteration #  6     ecut=    70.00 Ry     beta= 0.70
     Davidson diagonalization with overlap
     ethr =  1.79E-04,  avg # of iterations =  1.0

     total cpu time spent up to now is        3.1 secs

     total energy              =     -85.20396927 Ry
     Harris-Foulkes estimate   =     -85.20399836 Ry
     estimated scf accuracy    <       0.01704458 Ry

     iteration #  7     ecut=    70.00 Ry     beta= 0.70
     Davidson diagonalization with overlap
     ethr =  1.55E-04,  avg # of iterations =  1.0

     total cpu time spent up to now is        3.3 secs

     total energy              =     -85.20392833 Ry
     Harris-Foulkes estimate   =     -85.20401946 Ry
     estimated scf accuracy    <       0.01549204 Ry

     iteration #  8     ecut=    70.00 Ry     beta= 0.70
     Davidson diagonalization with overlap
     ethr =  1.41E-04,  avg # of iterations =  1.0

     total cpu time spent up to now is        3.5 secs

     total energy              =     -85.20391089 Ry
     Harris-Foulkes estimate   =     -85.20396230 Ry
     estimated scf accuracy    <       0.01298237 Ry

     iteration #  9     ecut=    70.00 Ry     beta= 0.70
     Davidson diagonalization with overlap
     ethr =  1.18E-04,  avg # of iterations =  1.0

     total cpu time spent up to now is        3.6 secs

     total energy              =     -85.20389193 Ry
     Harris-Foulkes estimate   =     -85.20392691 Ry
     estimated scf accuracy    <       0.01204283 Ry

     iteration # 10     ecut=    70.00 Ry     beta= 0.70
     Davidson diagonalization with overlap
     ethr =  1.09E-04,  avg # of iterations =  1.0

     total cpu time spent up to now is        3.8 secs

     total energy              =     -85.20392550 Ry
     Harris-Foulkes estimate   =     -85.20390175 Ry
     estimated scf accuracy    <       0.01095541 Ry

     iteration # 11     ecut=    70.00 Ry     beta= 0.70
     Davidson diagonalization with overlap
     ethr =  9.96E-05,  avg # of iterations =  1.0

     total cpu time spent up to now is        4.0 secs

     total energy              =     -85.20311133 Ry
     Harris-Foulkes estimate   =     -85.20393022 Ry
     estimated scf accuracy    <       0.01074540 Ry

     iteration # 12     ecut=    70.00 Ry     beta= 0.70
     Davidson diagonalization with overlap
     ethr =  9.77E-05,  avg # of iterations =  2.2

     total cpu time spent up to now is        4.2 secs

     total energy              =     -85.20343305 Ry
     Harris-Foulkes estimate   =     -85.20342403 Ry
     estimated scf accuracy    <       0.00097635 Ry

     iteration # 13     ecut=    70.00 Ry     beta= 0.70
     Davidson diagonalization with overlap
     ethr =  8.88E-06,  avg # of iterations =  1.4

     total cpu time spent up to now is        4.4 secs

     total energy              =     -85.20343814 Ry
     Harris-Foulkes estimate   =     -85.20344259 Ry
     estimated scf accuracy    <       0.00100121 Ry

     iteration # 14     ecut=    70.00 Ry     beta= 0.70
     Davidson diagonalization with overlap
     ethr =  8.88E-06,  avg # of iterations =  1.0

     total cpu time spent up to now is        4.5 secs

     total energy              =     -85.20341907 Ry
     Harris-Foulkes estimate   =     -85.20344096 Ry
     estimated scf accuracy    <       0.00094132 Ry

     iteration # 15     ecut=    70.00 Ry     beta= 0.70
     Davidson diagonalization with overlap
     ethr =  8.56E-06,  avg # of iterations =  1.0

     total cpu time spent up to now is        4.7 secs

     total energy              =     -85.20344261 Ry
     Harris-Foulkes estimate   =     -85.20342157 Ry
     estimated scf accuracy    <       0.00067924 Ry

     iteration # 16     ecut=    70.00 Ry     beta= 0.70
     Davidson diagonalization with overlap
     ethr =  6.17E-06,  avg # of iterations =  1.0

     total cpu time spent up to now is        4.9 secs

     total energy              =     -85.20342161 Ry
     Harris-Foulkes estimate   =     -85.20344405 Ry
     estimated scf accuracy    <       0.00081902 Ry

     iteration # 17     ecut=    70.00 Ry     beta= 0.70
     Davidson diagonalization with overlap
     ethr =  6.17E-06,  avg # of iterations =  1.0

     total cpu time spent up to now is        5.0 secs

     total energy              =     -85.20340319 Ry
     Harris-Foulkes estimate   =     -85.20342346 Ry
     estimated scf accuracy    <       0.00058194 Ry

     iteration # 18     ecut=    70.00 Ry     beta= 0.70
     Davidson diagonalization with overlap
     ethr =  5.29E-06,  avg # of iterations =  1.1

     total cpu time spent up to now is        5.2 secs

     total energy              =     -85.20340092 Ry
     Harris-Foulkes estimate   =     -85.20340577 Ry
     estimated scf accuracy    <       0.00038454 Ry

     iteration # 19     ecut=    70.00 Ry     beta= 0.70
     Davidson diagonalization with overlap
     ethr =  3.50E-06,  avg # of iterations =  1.0

     total cpu time spent up to now is        5.4 secs

     total energy              =     -85.20340976 Ry
     Harris-Foulkes estimate   =     -85.20340181 Ry
     estimated scf accuracy    <       0.00032702 Ry

     iteration # 20     ecut=    70.00 Ry     beta= 0.70
     Davidson diagonalization with overlap
     ethr =  2.97E-06,  avg # of iterations =  1.1

     total cpu time spent up to now is        5.6 secs

     total energy              =     -85.20341638 Ry
     Harris-Foulkes estimate   =     -85.20341277 Ry
     estimated scf accuracy    <       0.00041367 Ry

     iteration # 21     ecut=    70.00 Ry     beta= 0.70
     Davidson diagonalization with overlap
     ethr =  2.97E-06,  avg # of iterations =  1.0

     total cpu time spent up to now is        5.7 secs

     total energy              =     -85.20342011 Ry
     Harris-Foulkes estimate   =     -85.20341719 Ry
     estimated scf accuracy    <       0.00048392 Ry

     iteration # 22     ecut=    70.00 Ry     beta= 0.70
     Davidson diagonalization with overlap
     ethr =  2.97E-06,  avg # of iterations =  1.0

     total cpu time spent up to now is        6.0 secs

     total energy              =     -85.20340653 Ry
     Harris-Foulkes estimate   =     -85.20342056 Ry
     estimated scf accuracy    <       0.00054276 Ry

     iteration # 23     ecut=    70.00 Ry     beta= 0.70
     Davidson diagonalization with overlap
     ethr =  2.97E-06,  avg # of iterations =  1.1

     total cpu time spent up to now is        6.2 secs

     total energy              =     -85.20339331 Ry
     Harris-Foulkes estimate   =     -85.20340767 Ry
     estimated scf accuracy    <       0.00039204 Ry

     iteration # 24     ecut=    70.00 Ry     beta= 0.70
     Davidson diagonalization with overlap
     ethr =  2.97E-06,  avg # of iterations =  1.5

     total cpu time spent up to now is        6.4 secs

     total energy              =     -85.20339633 Ry
     Harris-Foulkes estimate   =     -85.20339613 Ry
     estimated scf accuracy    <       0.00019427 Ry

     iteration # 25     ecut=    70.00 Ry     beta= 0.70
     Davidson diagonalization with overlap
     ethr =  1.77E-06,  avg # of iterations =  1.1

     total cpu time spent up to now is        6.5 secs

     total energy              =     -85.20337589 Ry
     Harris-Foulkes estimate   =     -85.20339697 Ry
     estimated scf accuracy    <       0.00017591 Ry

     iteration # 26     ecut=    70.00 Ry     beta= 0.70
     Davidson diagonalization with overlap
     ethr =  1.60E-06,  avg # of iterations =  2.3

     total cpu time spent up to now is        6.8 secs

     total energy              =     -85.20338650 Ry
     Harris-Foulkes estimate   =     -85.20338895 Ry
     estimated scf accuracy    <       0.00000771 Ry

     iteration # 27     ecut=    70.00 Ry     beta= 0.70
     Davidson diagonalization with overlap
     ethr =  7.01E-08,  avg # of iterations =  2.4

     total cpu time spent up to now is        7.0 secs

     total energy              =     -85.20338735 Ry
     Harris-Foulkes estimate   =     -85.20338912 Ry
     estimated scf accuracy    <       0.00001780 Ry

     iteration # 28     ecut=    70.00 Ry     beta= 0.70
     Davidson diagonalization with overlap
     ethr =  7.01E-08,  avg # of iterations =  1.8

     total cpu time spent up to now is        7.2 secs

     total energy              =     -85.20338770 Ry
     Harris-Foulkes estimate   =     -85.20338795 Ry
     estimated scf accuracy    <       0.00000185 Ry

     iteration # 29     ecut=    70.00 Ry     beta= 0.70
     Davidson diagonalization with overlap
     ethr =  1.68E-08,  avg # of iterations =  2.3

     total cpu time spent up to now is        7.4 secs

     total energy              =     -85.20338788 Ry
     Harris-Foulkes estimate   =     -85.20338791 Ry
     estimated scf accuracy    <       0.00000013 Ry

     iteration # 30     ecut=    70.00 Ry     beta= 0.70
     Davidson diagonalization with overlap
     ethr =  1.19E-09,  avg # of iterations =  2.9

     total cpu time spent up to now is        7.6 secs

     total energy              =     -85.20338790 Ry
     Harris-Foulkes estimate   =     -85.20338792 Ry
     estimated scf accuracy    <       0.00000007 Ry

     iteration # 31     ecut=    70.00 Ry     beta= 0.70
     Davidson diagonalization with overlap
     ethr =  5.96E-10,  avg # of iterations =  2.2

     total cpu time spent up to now is        7.8 secs

     total energy              =     -85.20338791 Ry
     Harris-Foulkes estimate   =     -85.20338792 Ry
     estimated scf accuracy    <       0.00000003 Ry

     iteration # 32     ecut=    70.00 Ry     beta= 0.70
     Davidson diagonalization with overlap
     ethr =  3.05E-10,  avg # of iterations =  1.9

     total cpu time spent up to now is        8.0 secs

     total energy              =     -85.20338791 Ry
     Harris-Foulkes estimate   =     -85.20338792 Ry
     estimated scf accuracy    <       0.00000003 Ry

     iteration # 33     ecut=    70.00 Ry     beta= 0.70
     Davidson diagonalization with overlap
     ethr =  2.33E-10,  avg # of iterations =  1.0

     total cpu time spent up to now is        8.2 secs

     total energy              =     -85.20338791 Ry
     Harris-Foulkes estimate   =     -85.20338791 Ry
     estimated scf accuracy    <       0.00000002 Ry

     iteration # 34     ecut=    70.00 Ry     beta= 0.70
     Davidson diagonalization with overlap
     ethr =  1.66E-10,  avg # of iterations =  1.3

     total cpu time spent up to now is        8.3 secs

     End of self-consistent calculation

          k = 0.0000 0.0000 0.0000 (  1139 PWs)   bands (ev):

     5.8354  11.1299  11.1299  11.1299  12.6752  12.6752  31.1384  35.0030
    35.0030  35.0030

          k =-0.1667 0.1667-0.1667 (  1137 PWs)   bands (ev):

     6.7529  10.9043  11.3797  11.3797  12.6233  12.6233  30.3083  32.1839
    35.7902  35.7902

          k =-0.3333 0.3333-0.3333 (  1149 PWs)   bands (ev):

     8.2735  11.2861  11.2861  11.8097  13.2959  13.2959  23.7418  31.3264
    34.9435  34.9435

          k = 0.5000-0.5000 0.5000 (  1158 PWs)   bands (ev):

     8.4480  11.0933  11.0933  13.8920  13.8920  14.7573  18.9199  30.4219
    33.3596  33.3596

          k = 0.0000 0.3333 0.0000 (  1138 PWs)   bands (ev):

     7.0697  10.5321  11.7089  11.7089  12.0707  12.9500  32.4883  32.6705
    33.1583  33.1583

          k =-0.1667 0.5000-0.1667 (  1128 PWs)   bands (ev):

     8.6040  10.3173  11.2596  11.9505  13.2575  13.4940  26.3852  31.4554
    31.8784  33.5638

          k = 0.6667-0.3333 0.6667 (  1133 PWs)   bands (ev):

     9.0632  10.7173  11.6788  11.7655  13.9355  16.4659  19.9698  29.5445
    31.2503  32.1631

          k = 0.5000-0.1667 0.5000 (  1134 PWs)   bands (ev):

     9.1440  10.8502  11.5241  11.6571  13.1355  15.5094  22.1328  28.5533
    32.2086  33.9143

          k = 0.3333 0.0000 0.3333 (  1127 PWs)   bands (ev):

     8.0856  10.5471  11.4001  11.8902  12.1052  13.5955  28.0334  29.9410
    34.5281  35.3101

          k = 0.0000 0.6667 0.0000 (  1118 PWs)   bands (ev):

     8.8978   9.4972  12.7654  13.1888  13.1888  13.5333  27.9320  28.3974
    28.3974  32.3367

          k = 0.8333-0.1667 0.8333 (  1127 PWs)   bands (ev):

     9.1304   9.5744  12.3749  13.0739  14.0419  16.9492  22.4013  25.5015
    27.7099  33.6328

          k = 0.6667-0.0000 0.6667 (  1141 PWs)   bands (ev):

     9.6298  10.4353  11.3138  12.5603  13.4455  18.2651  22.2835  22.9225
    30.1676  33.1069

          k = 0.0000-1.0000 0.0000 (  1138 PWs)   bands (ev):

     8.6999   9.0399  13.8443  14.2229  14.2229  16.7656  21.5463  25.9676
    25.9676  32.7970

          k = 0.6667-0.3333 1.0000 (  1124 PWs)   bands (ev):

     9.7784  10.0532  10.8054  12.8250  13.1785  15.7335  24.4011  26.1702
    29.2814  37.0370

          k = 0.5000-0.1667 0.8333 (  1138 PWs)   bands (ev):

    10.0247  10.1300  11.0404  12.4153  13.8027  19.1661  19.9278  25.6503
    27.4729  35.6595

          k =-0.3333-1.0000 0.0000 (  1138 PWs)   bands (ev):

     9.4536   9.7584  11.8414  12.9487  14.2244  20.0031  20.7712  24.0681
    25.2633  37.3980

     the Fermi energy is    15.7651 ev

!    total energy              =     -85.20338792 Ry
     Harris-Foulkes estimate   =     -85.20338791 Ry
     estimated scf accuracy    <          1.0E-09 Ry

     The total energy is the sum of the following terms:

     one-electron contribution =      11.01953465 Ry
     hartree contribution      =       7.53833022 Ry
     xc contribution           =     -31.80625527 Ry
     ewald contribution        =     -71.95438534 Ry
     smearing contrib. (-TS)   =      -0.00061218 Ry

     convergence has been achieved in  34 iterations

     Forces acting on atoms (cartesian axes, Ry/au):

     atom    1 type  1   force =     0.00000000    0.00000000    0.00000000

     Total force =     0.000000     Total SCF correction =     0.000000


     Computing stress (Cartesian axis) and pressure

          total   stress  (Ry/bohr**3)                   (kbar)     P=   27.61
   0.00018768  -0.00000000  -0.00000000         27.61     -0.00     -0.00
  -0.00000000   0.00018768   0.00000000         -0.00     27.61      0.00
   0.00000000   0.00000000   0.00018768          0.00      0.00     27.61


     Writing output data file Au.save/

     init_run     :      0.31s CPU      0.32s WALL (       1 calls)
     electrons    :      6.81s CPU      7.08s WALL (       1 calls)
     forces       :      0.04s CPU      0.04s WALL (       1 calls)
     stress       :      0.13s CPU      0.13s WALL (       1 calls)

     Called by init_run:
     wfcinit      :      0.08s CPU      0.09s WALL (       1 calls)
     potinit      :      0.01s CPU      0.01s WALL (       1 calls)
     hinit0       :      0.19s CPU      0.19s WALL (       1 calls)

     Called by electrons:
     c_bands      :      4.91s CPU      5.13s WALL (      35 calls)
     sum_band     :      1.36s CPU      1.40s WALL (      35 calls)
     v_of_rho     :      0.18s CPU      0.19s WALL (      35 calls)
     newd         :      0.33s CPU      0.33s WALL (      35 calls)
     mix_rho      :      0.03s CPU      0.03s WALL (      35 calls)

     Called by c_bands:
     init_us_2    :      0.18s CPU      0.18s WALL (    1168 calls)
     cegterg      :      4.66s CPU      4.87s WALL (     560 calls)

     Called by sum_band:
     sum_band:bec :      0.01s CPU      0.01s WALL (     560 calls)
     addusdens    :      0.31s CPU      0.31s WALL (      35 calls)

     Called by *egterg:
     h_psi        :      3.70s CPU      3.86s WALL (    1556 calls)
     s_psi        :      0.11s CPU      0.12s WALL (    1556 calls)
     g_psi        :      0.01s CPU      0.01s WALL (     980 calls)
     cdiaghg      :      0.32s CPU      0.34s WALL (    1524 calls)

     Called by h_psi:
     h_psi:pot    :      3.69s CPU      3.85s WALL (    1556 calls)
     h_psi:calbec :      0.17s CPU      0.18s WALL (    1556 calls)
     vloc_psi     :      3.39s CPU      3.54s WALL (    1556 calls)
     add_vuspsi   :      0.11s CPU      0.12s WALL (    1556 calls)

     General routines
     calbec       :      0.26s CPU      0.27s WALL (    2196 calls)
     fft          :      0.10s CPU      0.10s WALL (     412 calls)
     ffts         :      0.01s CPU      0.01s WALL (      35 calls)
     fftw         :      3.93s CPU      4.09s WALL (   31028 calls)

     Parallel routines
     fft_scatt_xy :      0.33s CPU      0.34s WALL (   31475 calls)
     fft_scatt_yz :      1.17s CPU      1.21s WALL (   31475 calls)

     PWSCF        :     8.25s CPU         8.60s WALL


   This run was terminated on:  12: 8:17  26Mar2024            

=------------------------------------------------------------------------------=
   JOB DONE.
=------------------------------------------------------------------------------=
