
     Program PWSCF v.6.3MaX starts on 26Mar2024 at 12: 0:13 

     This program is part of the open-source Quantum ESPRESSO suite
     for quantum simulation of materials; please cite
         "P. Giannozzi et al., J. Phys.:Condens. Matter 21 395502 (2009);
         "P. Giannozzi et al., J. Phys.:Condens. Matter 29 465901 (2017);
          URL http://www.quantum-espresso.org", 
     in publications or presentations arising from this work. More details at
     http://www.quantum-espresso.org/quote

     Parallel version (MPI), running on     5 processors

     MPI processes distributed on     1 nodes
     R & G space division:  proc/nbgrp/npool/nimage =       5
     Waiting for input...
     Reading input from standard input

     Current dimensions of program PWSCF are:
     Max number of different atomic species (ntypx) = 10
     Max number of k-points (npk) =  40000
     Max angular momentum in pseudopotentials (lmaxx) =  3
               file Au.pbe-n-kjpaw_psl.1.0.0.UPF: wavefunction(s)  6S 5D renormalized

     Subspace diagonalization in iterative solution of the eigenvalue problem:
     a serial algorithm will be used


     Parallelization info
     --------------------
     sticks:   dense  smooth     PW     G-vecs:    dense   smooth      PW
     Min         103     103     32                 1597     1597     280
     Max         104     104     33                 1600     1600     283
     Sum         517     517    163                 7991     7991    1411



     bravais-lattice index     =            2
     lattice parameter (alat)  =       7.7100  a.u.
     unit-cell volume          =     114.5785 (a.u.)^3
     number of atoms/cell      =            1
     number of atomic types    =            1
     number of electrons       =        11.00
     number of Kohn-Sham states=           10
     kinetic-energy cutoff     =      65.0000  Ry
     charge density cutoff     =     260.0000  Ry
     convergence threshold     =      1.0E-08
     mixing beta               =       0.7000
     number of iterations used =            8  plain     mixing
     Exchange-correlation      = SLA PW PBX PBC ( 1  4  3  4 0 0)

     celldm(1)=   7.710000  celldm(2)=   0.000000  celldm(3)=   0.000000
     celldm(4)=   0.000000  celldm(5)=   0.000000  celldm(6)=   0.000000

     crystal axes: (cart. coord. in units of alat)
               a(1) = (  -0.500000   0.000000   0.500000 )  
               a(2) = (   0.000000   0.500000   0.500000 )  
               a(3) = (  -0.500000   0.500000   0.000000 )  

     reciprocal axes: (cart. coord. in units 2 pi/alat)
               b(1) = ( -1.000000 -1.000000  1.000000 )  
               b(2) = (  1.000000  1.000000  1.000000 )  
               b(3) = ( -1.000000  1.000000 -1.000000 )  


     PseudoPot. # 1 for Au read from file:
     /home/lorenzo/pseudos/Au/Au.pbe-n-kjpaw_psl.1.0.0.UPF
     MD5 check sum: 4db85c736373c707a97ce4c36c2a9d23
     Pseudo is Projector augmented-wave + core cor, Zval = 11.0
     Generated using "atomic" code by A. Dal Corso v.6.3
     Shape of augmentation charge: PSQ
     Using radial grid of 1279 points,  6 beta functions with: 
                l(1) =   0
                l(2) =   0
                l(3) =   1
                l(4) =   1
                l(5) =   2
                l(6) =   2
     Q(r) pseudized with 0 coefficients 


     atomic species   valence    mass     pseudopotential
        Au            11.00   196.96600     Au( 1.00)

     48 Sym. Ops., with inversion, found



   Cartesian axes

     site n.     atom                  positions (alat units)
         1           Au  tau(   1) = (   0.0000000   0.0000000   0.0000000  )

     number of k points=    10  gaussian smearing, width (Ry)=  0.0100
                       cart. coord. in units 2pi/alat
        k(    1) = (   0.0000000   0.0000000   0.0000000), wk =   0.0160000
        k(    2) = (  -0.2000000   0.2000000  -0.2000000), wk =   0.1280000
        k(    3) = (  -0.4000000   0.4000000  -0.4000000), wk =   0.1280000
        k(    4) = (   0.0000000   0.4000000   0.0000000), wk =   0.0960000
        k(    5) = (  -0.2000000   0.6000000  -0.2000000), wk =   0.3840000
        k(    6) = (   0.6000000  -0.2000000   0.6000000), wk =   0.3840000
        k(    7) = (   0.4000000   0.0000000   0.4000000), wk =   0.1920000
        k(    8) = (   0.0000000   0.8000000   0.0000000), wk =   0.0960000
        k(    9) = (   0.8000000   0.0000000   0.8000000), wk =   0.1920000
        k(   10) = (   0.6000000  -0.2000000   1.0000000), wk =   0.3840000

     Dense  grid:     7991 G-vectors     FFT dimensions: (  27,  27,  27)

     Estimated max dynamical RAM per process >       7.86 MB

     Estimated total dynamical RAM >      39.28 MB

     Initial potential from superposition of free atoms

     starting charge   10.99989, renormalised to   11.00000
     Starting wfcs are    9 randomized atomic wfcs +    1 random wfcs
     Checking if some PAW data can be deallocated... 

     total cpu time spent up to now is        1.5 secs

     Self-consistent Calculation

     iteration #  1     ecut=    65.00 Ry     beta= 0.70
     Davidson diagonalization with overlap
     ethr =  1.00E-02,  avg # of iterations =  5.6

     Threshold (ethr) on eigenvalues was too large:
     Diagonalizing with lowered threshold

     Davidson diagonalization with overlap
     ethr =  4.63E-04,  avg # of iterations =  1.6

     total cpu time spent up to now is        2.1 secs

     total energy              =    -775.12542617 Ry
     Harris-Foulkes estimate   =    -775.16106836 Ry
     estimated scf accuracy    <       0.05264903 Ry

     iteration #  2     ecut=    65.00 Ry     beta= 0.70
     Davidson diagonalization with overlap
     ethr =  4.79E-04,  avg # of iterations =  2.6

     total cpu time spent up to now is        2.5 secs

     total energy              =    -775.14138474 Ry
     Harris-Foulkes estimate   =    -775.15119203 Ry
     estimated scf accuracy    <       0.01620798 Ry

     iteration #  3     ecut=    65.00 Ry     beta= 0.70
     Davidson diagonalization with overlap
     ethr =  1.47E-04,  avg # of iterations =  1.9

     total cpu time spent up to now is        2.7 secs

     total energy              =    -775.14488699 Ry
     Harris-Foulkes estimate   =    -775.14493296 Ry
     estimated scf accuracy    <       0.00024911 Ry

     iteration #  4     ecut=    65.00 Ry     beta= 0.70
     Davidson diagonalization with overlap
     ethr =  2.26E-06,  avg # of iterations =  4.3

     total cpu time spent up to now is        3.1 secs

     total energy              =    -775.14516557 Ry
     Harris-Foulkes estimate   =    -775.14530048 Ry
     estimated scf accuracy    <       0.00029058 Ry

     iteration #  5     ecut=    65.00 Ry     beta= 0.70
     Davidson diagonalization with overlap
     ethr =  2.26E-06,  avg # of iterations =  1.1

     total cpu time spent up to now is        3.3 secs

     total energy              =    -775.14517837 Ry
     Harris-Foulkes estimate   =    -775.14519328 Ry
     estimated scf accuracy    <       0.00002959 Ry

     iteration #  6     ecut=    65.00 Ry     beta= 0.70
     Davidson diagonalization with overlap
     ethr =  2.69E-07,  avg # of iterations =  2.5

     total cpu time spent up to now is        3.7 secs

     total energy              =    -775.14518967 Ry
     Harris-Foulkes estimate   =    -775.14518974 Ry
     estimated scf accuracy    <       0.00000020 Ry

     iteration #  7     ecut=    65.00 Ry     beta= 0.70
     Davidson diagonalization with overlap
     ethr =  1.79E-09,  avg # of iterations =  4.3

     total cpu time spent up to now is        4.1 secs

     total energy              =    -775.14519000 Ry
     Harris-Foulkes estimate   =    -775.14519031 Ry
     estimated scf accuracy    <       0.00000082 Ry

     iteration #  8     ecut=    65.00 Ry     beta= 0.70
     Davidson diagonalization with overlap
     ethr =  1.79E-09,  avg # of iterations =  2.0

     total cpu time spent up to now is        4.4 secs

     total energy              =    -775.14518995 Ry
     Harris-Foulkes estimate   =    -775.14519005 Ry
     estimated scf accuracy    <       0.00000017 Ry

     iteration #  9     ecut=    65.00 Ry     beta= 0.70
     Davidson diagonalization with overlap
     ethr =  1.54E-09,  avg # of iterations =  2.2

     total cpu time spent up to now is        4.7 secs

     End of self-consistent calculation

          k = 0.0000 0.0000 0.0000 (   965 PWs)   bands (ev):

     6.0752  11.2850  11.2850  11.2850  12.8102  12.8102  31.3891  35.2422
    35.2422  35.2422

          k =-0.2000 0.2000-0.2000 (   995 PWs)   bands (ev):

     7.3439  11.0446  11.5725  11.5725  12.8103  12.8103  29.2537  32.4771
    36.1865  36.1865

          k =-0.4000 0.4000-0.4000 (  1017 PWs)   bands (ev):

     8.6215  11.3220  11.3220  13.3394  13.7817  13.7817  21.3798  31.0097
    34.2132  34.2132

          k = 0.0000 0.4000 0.0000 (   998 PWs)   bands (ev):

     7.7887  10.4815  12.0535  12.1036  12.1036  13.1910  32.4307  32.4307
    32.6737  33.1282

          k =-0.2000 0.6000-0.2000 (  1011 PWs)   bands (ev):

     9.2846  10.4896  11.3323  12.2455  13.9367  14.5422  24.3960  30.5669
    30.5797  33.1822

          k = 0.6000-0.2000 0.6000 (  1012 PWs)   bands (ev):

     9.5191  10.7768  11.8880  11.9648  13.7233  17.5721  19.9655  27.8312
    32.1118  32.4398

          k = 0.4000 0.0000 0.4000 (  1007 PWs)   bands (ev):

     9.0430  10.6533  11.3839  12.1728  12.3320  14.4147  26.6468  28.5973
    33.7889  36.6168

          k = 0.0000 0.8000 0.0000 (  1014 PWs)   bands (ev):

     9.0242   9.3785  13.8547  13.9232  13.9232  14.7518  24.8552  27.1391
    27.1391  32.9579

          k = 0.8000 0.0000 0.8000 (  1015 PWs)   bands (ev):

     9.3309   9.8113  12.6184  13.3564  14.0558  19.6762  20.6429  23.8922
    27.9181  33.9972

          k = 0.6000-0.2000 1.0000 (  1031 PWs)   bands (ev):

    10.0758  10.3242  11.0269  12.9369  13.9092  18.0048  23.1123  24.3516
    27.3687  37.4566

     the Fermi energy is    14.7790 ev

!    total energy              =    -775.14519000 Ry
     Harris-Foulkes estimate   =    -775.14519000 Ry
     estimated scf accuracy    <          4.0E-09 Ry

     total all-electron energy =    -38023.991281 Ry

     The total energy is the sum of the following terms:

     one-electron contribution =      13.81529120 Ry
     hartree contribution      =       7.64377885 Ry
     xc contribution           =     -32.12535212 Ry
     ewald contribution        =     -71.95438534 Ry
     one-center paw contrib.   =    -692.52420954 Ry
     smearing contrib. (-TS)   =      -0.00031305 Ry

     convergence has been achieved in   9 iterations

     Forces acting on atoms (cartesian axes, Ry/au):

     atom    1 type  1   force =     0.00000000    0.00000000    0.00000000

     Total force =     0.000000     Total SCF correction =     0.000000


     Computing stress (Cartesian axis) and pressure

          total   stress  (Ry/bohr**3)                   (kbar)     P=   95.04
   0.00064605   0.00000000  -0.00000000         95.04      0.00     -0.00
   0.00000000   0.00064605  -0.00000000          0.00     95.04     -0.00
  -0.00000000   0.00000000   0.00064605         -0.00      0.00     95.04


     Writing output data file Au.save/

     init_run     :      0.41s CPU      0.45s WALL (       1 calls)
     electrons    :      2.98s CPU      3.21s WALL (       1 calls)
     forces       :      0.04s CPU      0.04s WALL (       1 calls)
     stress       :      0.11s CPU      0.11s WALL (       1 calls)

     Called by init_run:
     wfcinit      :      0.03s CPU      0.04s WALL (       1 calls)
     potinit      :      0.14s CPU      0.16s WALL (       1 calls)
     hinit0       :      0.21s CPU      0.21s WALL (       1 calls)

     Called by electrons:
     c_bands      :      1.39s CPU      1.45s WALL (      10 calls)
     sum_band     :      0.27s CPU      0.29s WALL (      10 calls)
     v_of_rho     :      0.06s CPU      0.06s WALL (      10 calls)
     newd         :      0.13s CPU      0.15s WALL (      10 calls)
     PAW_pot      :      1.25s CPU      1.41s WALL (      10 calls)
     mix_rho      :      0.01s CPU      0.01s WALL (      10 calls)

     Called by c_bands:
     init_us_2    :      0.04s CPU      0.04s WALL (     230 calls)
     cegterg      :      1.33s CPU      1.38s WALL (     100 calls)

     Called by sum_band:
     sum_band:bec :      0.00s CPU      0.00s WALL (     100 calls)
     addusdens    :      0.08s CPU      0.08s WALL (      10 calls)

     Called by *egterg:
     h_psi        :      0.97s CPU      1.01s WALL (     391 calls)
     s_psi        :      0.03s CPU      0.03s WALL (     391 calls)
     g_psi        :      0.00s CPU      0.00s WALL (     281 calls)
     cdiaghg      :      0.14s CPU      0.14s WALL (     371 calls)

     Called by h_psi:
     h_psi:pot    :      0.96s CPU      1.00s WALL (     391 calls)
     h_psi:calbec :      0.06s CPU      0.06s WALL (     391 calls)
     vloc_psi     :      0.87s CPU      0.91s WALL (     391 calls)
     add_vuspsi   :      0.03s CPU      0.03s WALL (     391 calls)

     General routines
     calbec       :      0.08s CPU      0.09s WALL (     541 calls)
     fft          :      0.05s CPU      0.05s WALL (     137 calls)
     ffts         :      0.00s CPU      0.00s WALL (      10 calls)
     fftw         :      0.95s CPU      0.99s WALL (    6576 calls)

     Parallel routines
     fft_scatt_xy :      0.07s CPU      0.07s WALL (    6723 calls)
     fft_scatt_yz :      0.42s CPU      0.42s WALL (    6723 calls)

     PWSCF        :     4.63s CPU         4.97s WALL


   This run was terminated on:  12: 0:18  26Mar2024            

=------------------------------------------------------------------------------=
   JOB DONE.
=------------------------------------------------------------------------------=
