
     Program PWSCF v.6.3MaX starts on 26Mar2024 at 12:20:24 

     This program is part of the open-source Quantum ESPRESSO suite
     for quantum simulation of materials; please cite
         "P. Giannozzi et al., J. Phys.:Condens. Matter 21 395502 (2009);
         "P. Giannozzi et al., J. Phys.:Condens. Matter 29 465901 (2017);
          URL http://www.quantum-espresso.org", 
     in publications or presentations arising from this work. More details at
     http://www.quantum-espresso.org/quote

     Parallel version (MPI), running on     5 processors

     MPI processes distributed on     1 nodes
     R & G space division:  proc/nbgrp/npool/nimage =       5
     Waiting for input...
     Reading input from standard input

     Current dimensions of program PWSCF are:
     Max number of different atomic species (ntypx) = 10
     Max number of k-points (npk) =  40000
     Max angular momentum in pseudopotentials (lmaxx) =  3
               file Au.pbe-n-kjpaw_psl.1.0.0.UPF: wavefunction(s)  6S 5D renormalized

     Subspace diagonalization in iterative solution of the eigenvalue problem:
     a serial algorithm will be used


     Parallelization info
     --------------------
     sticks:   dense  smooth     PW     G-vecs:    dense   smooth      PW
     Min         129     129     39                 2201     2201     361
     Max         130     130     40                 2204     2204     363
     Sum         649     649    199                11017    11017    1807



     bravais-lattice index     =            2
     lattice parameter (alat)  =       7.7100  a.u.
     unit-cell volume          =     114.5785 (a.u.)^3
     number of atoms/cell      =            1
     number of atomic types    =            1
     number of electrons       =        11.00
     number of Kohn-Sham states=           10
     kinetic-energy cutoff     =      80.0000  Ry
     charge density cutoff     =     320.0000  Ry
     convergence threshold     =      1.0E-08
     mixing beta               =       0.7000
     number of iterations used =            8  plain     mixing
     Exchange-correlation      = SLA PW PBX PBC ( 1  4  3  4 0 0)

     celldm(1)=   7.710000  celldm(2)=   0.000000  celldm(3)=   0.000000
     celldm(4)=   0.000000  celldm(5)=   0.000000  celldm(6)=   0.000000

     crystal axes: (cart. coord. in units of alat)
               a(1) = (  -0.500000   0.000000   0.500000 )  
               a(2) = (   0.000000   0.500000   0.500000 )  
               a(3) = (  -0.500000   0.500000   0.000000 )  

     reciprocal axes: (cart. coord. in units 2 pi/alat)
               b(1) = ( -1.000000 -1.000000  1.000000 )  
               b(2) = (  1.000000  1.000000  1.000000 )  
               b(3) = ( -1.000000  1.000000 -1.000000 )  


     PseudoPot. # 1 for Au read from file:
     /home/lorenzo/pseudos/Au/Au.pbe-n-kjpaw_psl.1.0.0.UPF
     MD5 check sum: 4db85c736373c707a97ce4c36c2a9d23
     Pseudo is Projector augmented-wave + core cor, Zval = 11.0
     Generated using "atomic" code by A. Dal Corso v.6.3
     Shape of augmentation charge: PSQ
     Using radial grid of 1279 points,  6 beta functions with: 
                l(1) =   0
                l(2) =   0
                l(3) =   1
                l(4) =   1
                l(5) =   2
                l(6) =   2
     Q(r) pseudized with 0 coefficients 


     atomic species   valence    mass     pseudopotential
        Au            11.00   196.96600     Au( 1.00)

     48 Sym. Ops., with inversion, found



   Cartesian axes

     site n.     atom                  positions (alat units)
         1           Au  tau(   1) = (   0.0000000   0.0000000   0.0000000  )

     number of k points=     4  gaussian smearing, width (Ry)=  0.0100
                       cart. coord. in units 2pi/alat
        k(    1) = (   0.0000000   0.0000000   0.0000000), wk =   0.0740741
        k(    2) = (  -0.3333333   0.3333333  -0.3333333), wk =   0.5925926
        k(    3) = (   0.0000000   0.6666667   0.0000000), wk =   0.4444444
        k(    4) = (   0.6666667  -0.0000000   0.6666667), wk =   0.8888889

     Dense  grid:    11017 G-vectors     FFT dimensions: (  32,  32,  32)

     Estimated max dynamical RAM per process >      10.21 MB

     Estimated total dynamical RAM >      51.03 MB

     Initial potential from superposition of free atoms

     starting charge   10.99989, renormalised to   11.00000
     Starting wfcs are    9 randomized atomic wfcs +    1 random wfcs
     Checking if some PAW data can be deallocated... 

     total cpu time spent up to now is        1.4 secs

     Self-consistent Calculation

     iteration #  1     ecut=    80.00 Ry     beta= 0.70
     Davidson diagonalization with overlap
     ethr =  1.00E-02,  avg # of iterations =  5.8

     Threshold (ethr) on eigenvalues was too large:
     Diagonalizing with lowered threshold

     Davidson diagonalization with overlap
     ethr =  5.19E-04,  avg # of iterations =  2.5

     total cpu time spent up to now is        1.7 secs

     total energy              =    -775.14607249 Ry
     Harris-Foulkes estimate   =    -775.18451225 Ry
     estimated scf accuracy    <       0.05650589 Ry

     iteration #  2     ecut=    80.00 Ry     beta= 0.70
     Davidson diagonalization with overlap
     ethr =  5.14E-04,  avg # of iterations =  2.8

     total cpu time spent up to now is        1.9 secs

     total energy              =    -775.16289692 Ry
     Harris-Foulkes estimate   =    -775.17110295 Ry
     estimated scf accuracy    <       0.01303786 Ry

     iteration #  3     ecut=    80.00 Ry     beta= 0.70
     Davidson diagonalization with overlap
     ethr =  1.19E-04,  avg # of iterations =  2.0

     total cpu time spent up to now is        2.1 secs

     total energy              =    -775.16600483 Ry
     Harris-Foulkes estimate   =    -775.16600417 Ry
     estimated scf accuracy    <       0.00022638 Ry

     iteration #  4     ecut=    80.00 Ry     beta= 0.70
     Davidson diagonalization with overlap
     ethr =  2.06E-06,  avg # of iterations =  3.5

     total cpu time spent up to now is        2.4 secs

     total energy              =    -775.16616831 Ry
     Harris-Foulkes estimate   =    -775.16621345 Ry
     estimated scf accuracy    <       0.00011040 Ry

     iteration #  5     ecut=    80.00 Ry     beta= 0.70
     Davidson diagonalization with overlap
     ethr =  1.00E-06,  avg # of iterations =  1.0

     total cpu time spent up to now is        2.6 secs

     total energy              =    -775.16616215 Ry
     Harris-Foulkes estimate   =    -775.16617524 Ry
     estimated scf accuracy    <       0.00001901 Ry

     iteration #  6     ecut=    80.00 Ry     beta= 0.70
     Davidson diagonalization with overlap
     ethr =  1.73E-07,  avg # of iterations =  3.0

     total cpu time spent up to now is        2.8 secs

     total energy              =    -775.16617018 Ry
     Harris-Foulkes estimate   =    -775.16617149 Ry
     estimated scf accuracy    <       0.00000277 Ry

     iteration #  7     ecut=    80.00 Ry     beta= 0.70
     Davidson diagonalization with overlap
     ethr =  2.52E-08,  avg # of iterations =  1.5

     total cpu time spent up to now is        3.0 secs

     total energy              =    -775.16617035 Ry
     Harris-Foulkes estimate   =    -775.16617049 Ry
     estimated scf accuracy    <       0.00000033 Ry

     iteration #  8     ecut=    80.00 Ry     beta= 0.70
     Davidson diagonalization with overlap
     ethr =  3.03E-09,  avg # of iterations =  3.0

     total cpu time spent up to now is        3.3 secs

     End of self-consistent calculation

          k = 0.0000 0.0000 0.0000 (  1411 PWs)   bands (ev):

     6.0648  11.2041  11.2041  11.2041  12.7117  12.7117  31.3959  35.2329
    35.2329  35.2329

          k =-0.3333 0.3333-0.3333 (  1399 PWs)   bands (ev):

     8.4486  11.3527  11.3527  11.9644  13.3331  13.3331  23.8756  31.5640
    35.1126  35.1126

          k = 0.0000 0.6667 0.0000 (  1379 PWs)   bands (ev):

     9.0528   9.5955  12.9226  13.2372  13.2372  13.5609  28.1779  28.5794
    28.5794  32.6581

          k = 0.6667-0.0000 0.6667 (  1382 PWs)   bands (ev):

     9.7362  10.5475  11.4140  12.6054  13.4854  18.4220  22.4124  23.1374
    30.4341  33.3023

     the Fermi energy is    13.6534 ev

!    total energy              =    -775.16617046 Ry
     Harris-Foulkes estimate   =    -775.16617047 Ry
     estimated scf accuracy    <          5.5E-09 Ry

     total all-electron energy =    -38024.012262 Ry

     The total energy is the sum of the following terms:

     one-electron contribution =      13.82905704 Ry
     hartree contribution      =       7.58705010 Ry
     xc contribution           =     -32.10464306 Ry
     ewald contribution        =     -71.95438534 Ry
     one-center paw contrib.   =    -692.52190075 Ry
     smearing contrib. (-TS)   =      -0.00134845 Ry

     convergence has been achieved in   8 iterations

     Forces acting on atoms (cartesian axes, Ry/au):

     atom    1 type  1   force =     0.00000000    0.00000000    0.00000000

     Total force =     0.000000     Total SCF correction =     0.000000


     Computing stress (Cartesian axis) and pressure

          total   stress  (Ry/bohr**3)                   (kbar)     P=   43.62
   0.00029654   0.00000000   0.00000000         43.62      0.00      0.00
   0.00000000   0.00029654  -0.00000000          0.00     43.62     -0.00
   0.00000000  -0.00000000   0.00029654          0.00     -0.00     43.62


     Writing output data file Au.save/

     init_run     :      0.38s CPU      0.40s WALL (       1 calls)
     electrons    :      1.80s CPU      1.88s WALL (       1 calls)
     forces       :      0.05s CPU      0.05s WALL (       1 calls)
     stress       :      0.13s CPU      0.13s WALL (       1 calls)

     Called by init_run:
     wfcinit      :      0.01s CPU      0.02s WALL (       1 calls)
     potinit      :      0.12s CPU      0.14s WALL (       1 calls)
     hinit0       :      0.22s CPU      0.22s WALL (       1 calls)

     Called by electrons:
     c_bands      :      0.45s CPU      0.48s WALL (       9 calls)
     sum_band     :      0.21s CPU      0.22s WALL (       9 calls)
     v_of_rho     :      0.07s CPU      0.08s WALL (       9 calls)
     newd         :      0.10s CPU      0.11s WALL (       9 calls)
     PAW_pot      :      1.07s CPU      1.12s WALL (       9 calls)
     mix_rho      :      0.01s CPU      0.01s WALL (       9 calls)

     Called by c_bands:
     init_us_2    :      0.02s CPU      0.02s WALL (      84 calls)
     cegterg      :      0.42s CPU      0.45s WALL (      36 calls)

     Called by sum_band:
     sum_band:bec :      0.00s CPU      0.00s WALL (      36 calls)
     addusdens    :      0.10s CPU      0.10s WALL (       9 calls)

     Called by *egterg:
     h_psi        :      0.33s CPU      0.36s WALL (     140 calls)
     s_psi        :      0.01s CPU      0.01s WALL (     140 calls)
     g_psi        :      0.00s CPU      0.00s WALL (     100 calls)
     cdiaghg      :      0.03s CPU      0.03s WALL (     132 calls)

     Called by h_psi:
     h_psi:pot    :      0.33s CPU      0.36s WALL (     140 calls)
     h_psi:calbec :      0.02s CPU      0.02s WALL (     140 calls)
     vloc_psi     :      0.30s CPU      0.32s WALL (     140 calls)
     add_vuspsi   :      0.01s CPU      0.02s WALL (     140 calls)

     General routines
     calbec       :      0.03s CPU      0.04s WALL (     196 calls)
     fft          :      0.04s CPU      0.04s WALL (     126 calls)
     ffts         :      0.00s CPU      0.00s WALL (       9 calls)
     fftw         :      0.33s CPU      0.36s WALL (    2348 calls)

     Parallel routines
     fft_scatt_xy :      0.03s CPU      0.03s WALL (    2483 calls)
     fft_scatt_yz :      0.16s CPU      0.17s WALL (    2483 calls)

     PWSCF        :     3.34s CPU         3.49s WALL


   This run was terminated on:  12:20:27  26Mar2024            

=------------------------------------------------------------------------------=
   JOB DONE.
=------------------------------------------------------------------------------=
