
     Program PWSCF v.6.3MaX starts on 26Mar2024 at 12:43:26 

     This program is part of the open-source Quantum ESPRESSO suite
     for quantum simulation of materials; please cite
         "P. Giannozzi et al., J. Phys.:Condens. Matter 21 395502 (2009);
         "P. Giannozzi et al., J. Phys.:Condens. Matter 29 465901 (2017);
          URL http://www.quantum-espresso.org", 
     in publications or presentations arising from this work. More details at
     http://www.quantum-espresso.org/quote

     Parallel version (MPI), running on     5 processors

     MPI processes distributed on     1 nodes
     R & G space division:  proc/nbgrp/npool/nimage =       5
     Waiting for input...
     Reading input from standard input

     Current dimensions of program PWSCF are:
     Max number of different atomic species (ntypx) = 10
     Max number of k-points (npk) =  40000
     Max angular momentum in pseudopotentials (lmaxx) =  3
               file Au.pbesol-n-kjpaw_psl.1.0.0.UPF: wavefunction(s)  6S 5D renormalized

     Subspace diagonalization in iterative solution of the eigenvalue problem:
     a serial algorithm will be used


     Parallelization info
     --------------------
     sticks:   dense  smooth     PW     G-vecs:    dense   smooth      PW
     Min         153     153     43                 2864     2864     445
     Max         154     154     45                 2867     2867     446
     Sum         769     769    223                14331    14331    2229



     bravais-lattice index     =            2
     lattice parameter (alat)  =       7.7100  a.u.
     unit-cell volume          =     114.5785 (a.u.)^3
     number of atoms/cell      =            1
     number of atomic types    =            1
     number of electrons       =        11.00
     number of Kohn-Sham states=           10
     kinetic-energy cutoff     =      95.0000  Ry
     charge density cutoff     =     380.0000  Ry
     convergence threshold     =      1.0E-08
     mixing beta               =       0.7000
     number of iterations used =            8  plain     mixing
     Exchange-correlation      = SLA PW PSX PSC ( 1  4 10  8 0 0)

     celldm(1)=   7.710000  celldm(2)=   0.000000  celldm(3)=   0.000000
     celldm(4)=   0.000000  celldm(5)=   0.000000  celldm(6)=   0.000000

     crystal axes: (cart. coord. in units of alat)
               a(1) = (  -0.500000   0.000000   0.500000 )  
               a(2) = (   0.000000   0.500000   0.500000 )  
               a(3) = (  -0.500000   0.500000   0.000000 )  

     reciprocal axes: (cart. coord. in units 2 pi/alat)
               b(1) = ( -1.000000 -1.000000  1.000000 )  
               b(2) = (  1.000000  1.000000  1.000000 )  
               b(3) = ( -1.000000  1.000000 -1.000000 )  


     PseudoPot. # 1 for Au read from file:
     /home/lorenzo/pseudos/Au/Au.pbesol-n-kjpaw_psl.1.0.0.UPF
     MD5 check sum: abc371be705c47a6b6a6b4088b452d3e
     Pseudo is Projector augmented-wave + core cor, Zval = 11.0
     Generated using "atomic" code by A. Dal Corso v.6.3
     Shape of augmentation charge: PSQ
     Using radial grid of 1279 points,  6 beta functions with: 
                l(1) =   0
                l(2) =   0
                l(3) =   1
                l(4) =   1
                l(5) =   2
                l(6) =   2
     Q(r) pseudized with 0 coefficients 


     atomic species   valence    mass     pseudopotential
        Au            11.00   196.96600     Au( 1.00)

     48 Sym. Ops., with inversion, found



   Cartesian axes

     site n.     atom                  positions (alat units)
         1           Au  tau(   1) = (   0.0000000   0.0000000   0.0000000  )

     number of k points=     4  gaussian smearing, width (Ry)=  0.0100
                       cart. coord. in units 2pi/alat
        k(    1) = (   0.0000000   0.0000000   0.0000000), wk =   0.0740741
        k(    2) = (  -0.3333333   0.3333333  -0.3333333), wk =   0.5925926
        k(    3) = (   0.0000000   0.6666667   0.0000000), wk =   0.4444444
        k(    4) = (   0.6666667  -0.0000000   0.6666667), wk =   0.8888889

     Dense  grid:    14331 G-vectors     FFT dimensions: (  36,  36,  36)

     Estimated max dynamical RAM per process >      12.98 MB

     Estimated total dynamical RAM >      64.92 MB

     Initial potential from superposition of free atoms

     starting charge   10.99990, renormalised to   11.00000
     Starting wfcs are    9 randomized atomic wfcs +    1 random wfcs
     Checking if some PAW data can be deallocated... 

     total cpu time spent up to now is        1.3 secs

     Self-consistent Calculation

     iteration #  1     ecut=    95.00 Ry     beta= 0.70
     Davidson diagonalization with overlap
     ethr =  1.00E-02,  avg # of iterations =  7.2

     Threshold (ethr) on eigenvalues was too large:
     Diagonalizing with lowered threshold

     Davidson diagonalization with overlap
     ethr =  6.00E-04,  avg # of iterations =  1.5

     total cpu time spent up to now is        1.6 secs

     total energy              =    -764.68773683 Ry
     Harris-Foulkes estimate   =    -764.73424162 Ry
     estimated scf accuracy    <       0.06592374 Ry

     iteration #  2     ecut=    95.00 Ry     beta= 0.70
     Davidson diagonalization with overlap
     ethr =  5.99E-04,  avg # of iterations =  2.8

     total cpu time spent up to now is        1.8 secs

     total energy              =    -764.70772368 Ry
     Harris-Foulkes estimate   =    -764.71801329 Ry
     estimated scf accuracy    <       0.01650309 Ry

     iteration #  3     ecut=    95.00 Ry     beta= 0.70
     Davidson diagonalization with overlap
     ethr =  1.50E-04,  avg # of iterations =  2.0

     total cpu time spent up to now is        2.0 secs

     total energy              =    -764.71147676 Ry
     Harris-Foulkes estimate   =    -764.71151382 Ry
     estimated scf accuracy    <       0.00032709 Ry

     iteration #  4     ecut=    95.00 Ry     beta= 0.70
     Davidson diagonalization with overlap
     ethr =  2.97E-06,  avg # of iterations =  3.2

     total cpu time spent up to now is        2.3 secs

     total energy              =    -764.71169717 Ry
     Harris-Foulkes estimate   =    -764.71179440 Ry
     estimated scf accuracy    <       0.00020308 Ry

     iteration #  5     ecut=    95.00 Ry     beta= 0.70
     Davidson diagonalization with overlap
     ethr =  1.85E-06,  avg # of iterations =  1.2

     total cpu time spent up to now is        2.5 secs

     total energy              =    -764.71171548 Ry
     Harris-Foulkes estimate   =    -764.71171784 Ry
     estimated scf accuracy    <       0.00001186 Ry

     iteration #  6     ecut=    95.00 Ry     beta= 0.70
     Davidson diagonalization with overlap
     ethr =  1.08E-07,  avg # of iterations =  3.2

     total cpu time spent up to now is        2.7 secs

     total energy              =    -764.71171994 Ry
     Harris-Foulkes estimate   =    -764.71172041 Ry
     estimated scf accuracy    <       0.00000475 Ry

     iteration #  7     ecut=    95.00 Ry     beta= 0.70
     Davidson diagonalization with overlap
     ethr =  4.32E-08,  avg # of iterations =  1.2

     total cpu time spent up to now is        2.9 secs

     total energy              =    -764.71171985 Ry
     Harris-Foulkes estimate   =    -764.71172004 Ry
     estimated scf accuracy    <       0.00000410 Ry

     iteration #  8     ecut=    95.00 Ry     beta= 0.70
     Davidson diagonalization with overlap
     ethr =  3.72E-08,  avg # of iterations =  1.0

     total cpu time spent up to now is        3.1 secs

     total energy              =    -764.71171984 Ry
     Harris-Foulkes estimate   =    -764.71171993 Ry
     estimated scf accuracy    <       0.00000062 Ry

     iteration #  9     ecut=    95.00 Ry     beta= 0.70
     Davidson diagonalization with overlap
     ethr =  5.63E-09,  avg # of iterations =  1.8

     total cpu time spent up to now is        3.3 secs

     total energy              =    -764.71171986 Ry
     Harris-Foulkes estimate   =    -764.71171987 Ry
     estimated scf accuracy    <       0.00000033 Ry

     iteration # 10     ecut=    95.00 Ry     beta= 0.70
     Davidson diagonalization with overlap
     ethr =  3.01E-09,  avg # of iterations =  1.0

     total cpu time spent up to now is        3.5 secs

     total energy              =    -764.71171988 Ry
     Harris-Foulkes estimate   =    -764.71171987 Ry
     estimated scf accuracy    <       0.00000028 Ry

     iteration # 11     ecut=    95.00 Ry     beta= 0.70
     Davidson diagonalization with overlap
     ethr =  2.55E-09,  avg # of iterations =  1.0

     total cpu time spent up to now is        3.7 secs

     total energy              =    -764.71171979 Ry
     Harris-Foulkes estimate   =    -764.71171988 Ry
     estimated scf accuracy    <       0.00000029 Ry

     iteration # 12     ecut=    95.00 Ry     beta= 0.70
     Davidson diagonalization with overlap
     ethr =  2.55E-09,  avg # of iterations =  1.0

     total cpu time spent up to now is        3.9 secs

     total energy              =    -764.71171987 Ry
     Harris-Foulkes estimate   =    -764.71171980 Ry
     estimated scf accuracy    <       0.00000009 Ry

     iteration # 13     ecut=    95.00 Ry     beta= 0.70
     Davidson diagonalization with overlap
     ethr =  8.13E-10,  avg # of iterations =  1.0

     total cpu time spent up to now is        4.1 secs

     total energy              =    -764.71171975 Ry
     Harris-Foulkes estimate   =    -764.71171988 Ry
     estimated scf accuracy    <       0.00000027 Ry

     iteration # 14     ecut=    95.00 Ry     beta= 0.70
     Davidson diagonalization with overlap
     ethr =  8.13E-10,  avg # of iterations =  2.5

     total cpu time spent up to now is        4.4 secs

     End of self-consistent calculation

          k = 0.0000 0.0000 0.0000 (  1807 PWs)   bands (ev):

     5.8067  11.0233  11.0233  11.0233  12.5439  12.5439  31.1467  34.9743
    34.9743  34.9743

          k =-0.3333 0.3333-0.3333 (  1820 PWs)   bands (ev):

     8.2183  11.1738  11.1738  11.7423  13.1656  13.1656  23.6369  31.3066
    34.8561  34.8561

          k = 0.0000 0.6667 0.0000 (  1752 PWs)   bands (ev):

     8.8339   9.4048  12.6979  13.0652  13.0652  13.3978  27.9405  28.3242
    28.3242  32.4136

          k = 0.6667-0.0000 0.6667 (  1790 PWs)   bands (ev):

     9.5410  10.3473  11.2214  12.4336  13.3167  18.1887  22.1790  22.9073
    30.1867  33.0569

     the Fermi energy is    13.4881 ev

!    total energy              =    -764.71171977 Ry
     Harris-Foulkes estimate   =    -764.71171977 Ry
     estimated scf accuracy    <          1.3E-09 Ry

     total all-electron energy =    -38013.546182 Ry

     The total energy is the sum of the following terms:

     one-electron contribution =      13.85938578 Ry
     hartree contribution      =       7.53387247 Ry
     xc contribution           =     -31.80722169 Ry
     ewald contribution        =     -71.95438534 Ry
     one-center paw contrib.   =    -682.34203819 Ry
     smearing contrib. (-TS)   =      -0.00133281 Ry

     convergence has been achieved in  14 iterations

     Forces acting on atoms (cartesian axes, Ry/au):

     atom    1 type  1   force =     0.00000000    0.00000000    0.00000000

     Total force =     0.000000     Total SCF correction =     0.000000


     Computing stress (Cartesian axis) and pressure

          total   stress  (Ry/bohr**3)                   (kbar)     P=  -46.47
  -0.00031587  -0.00000000  -0.00000000        -46.47     -0.00     -0.00
  -0.00000000  -0.00031587   0.00000000         -0.00    -46.47      0.00
  -0.00000000   0.00000000  -0.00031587         -0.00      0.00    -46.47


     Writing output data file Au.save/

     init_run     :      0.39s CPU      0.41s WALL (       1 calls)
     electrons    :      2.97s CPU      3.07s WALL (       1 calls)
     forces       :      0.05s CPU      0.05s WALL (       1 calls)
     stress       :      0.14s CPU      0.14s WALL (       1 calls)

     Called by init_run:
     wfcinit      :      0.02s CPU      0.02s WALL (       1 calls)
     potinit      :      0.12s CPU      0.13s WALL (       1 calls)
     hinit0       :      0.21s CPU      0.21s WALL (       1 calls)

     Called by electrons:
     c_bands      :      0.89s CPU      0.95s WALL (      15 calls)
     sum_band     :      0.38s CPU      0.40s WALL (      15 calls)
     v_of_rho     :      0.14s CPU      0.14s WALL (      15 calls)
     newd         :      0.20s CPU      0.21s WALL (      15 calls)
     PAW_pot      :      1.45s CPU      1.49s WALL (      15 calls)
     mix_rho      :      0.02s CPU      0.02s WALL (      15 calls)

     Called by c_bands:
     init_us_2    :      0.03s CPU      0.03s WALL (     132 calls)
     cegterg      :      0.85s CPU      0.91s WALL (      60 calls)

     Called by sum_band:
     sum_band:bec :      0.00s CPU      0.00s WALL (      60 calls)
     addusdens    :      0.19s CPU      0.20s WALL (      15 calls)

     Called by *egterg:
     h_psi        :      0.70s CPU      0.76s WALL (     191 calls)
     s_psi        :      0.02s CPU      0.02s WALL (     191 calls)
     g_psi        :      0.00s CPU      0.00s WALL (     127 calls)
     cdiaghg      :      0.04s CPU      0.04s WALL (     183 calls)

     Called by h_psi:
     h_psi:pot    :      0.70s CPU      0.76s WALL (     191 calls)
     h_psi:calbec :      0.05s CPU      0.05s WALL (     191 calls)
     vloc_psi     :      0.63s CPU      0.68s WALL (     191 calls)
     add_vuspsi   :      0.02s CPU      0.02s WALL (     191 calls)

     General routines
     calbec       :      0.07s CPU      0.07s WALL (     271 calls)
     fft          :      0.07s CPU      0.07s WALL (     192 calls)
     ffts         :      0.00s CPU      0.00s WALL (      15 calls)
     fftw         :      0.71s CPU      0.76s WALL (    3554 calls)

     Parallel routines
     fft_scatt_xy :      0.06s CPU      0.06s WALL (    3761 calls)
     fft_scatt_yz :      0.23s CPU      0.24s WALL (    3761 calls)

     PWSCF        :     4.44s CPU         4.60s WALL


   This run was terminated on:  12:43:31  26Mar2024            

=------------------------------------------------------------------------------=
   JOB DONE.
=------------------------------------------------------------------------------=
