
     Program PWSCF v.6.3MaX starts on 26Mar2024 at 11:38:23 

     This program is part of the open-source Quantum ESPRESSO suite
     for quantum simulation of materials; please cite
         "P. Giannozzi et al., J. Phys.:Condens. Matter 21 395502 (2009);
         "P. Giannozzi et al., J. Phys.:Condens. Matter 29 465901 (2017);
          URL http://www.quantum-espresso.org", 
     in publications or presentations arising from this work. More details at
     http://www.quantum-espresso.org/quote

     Parallel version (MPI), running on     5 processors

     MPI processes distributed on     1 nodes
     R & G space division:  proc/nbgrp/npool/nimage =       5
     Waiting for input...
     Reading input from standard input

     Current dimensions of program PWSCF are:
     Max number of different atomic species (ntypx) = 10
     Max number of k-points (npk) =  40000
     Max angular momentum in pseudopotentials (lmaxx) =  3
               file Au.pbe-n-kjpaw_psl.1.0.0.UPF: wavefunction(s)  6S 5D renormalized

     Subspace diagonalization in iterative solution of the eigenvalue problem:
     a serial algorithm will be used


     Parallelization info
     --------------------
     sticks:   dense  smooth     PW     G-vecs:    dense   smooth      PW
     Min          73      73     24                  928      928     178
     Max          74      74     25                  930      930     181
     Sum         367     367    121                 4645     4645     893



     bravais-lattice index     =            2
     lattice parameter (alat)  =       7.7100  a.u.
     unit-cell volume          =     114.5785 (a.u.)^3
     number of atoms/cell      =            1
     number of atomic types    =            1
     number of electrons       =        11.00
     number of Kohn-Sham states=           10
     kinetic-energy cutoff     =      45.0000  Ry
     charge density cutoff     =     180.0000  Ry
     convergence threshold     =      1.0E-08
     mixing beta               =       0.7000
     number of iterations used =            8  plain     mixing
     Exchange-correlation      = SLA PW PBX PBC ( 1  4  3  4 0 0)

     celldm(1)=   7.710000  celldm(2)=   0.000000  celldm(3)=   0.000000
     celldm(4)=   0.000000  celldm(5)=   0.000000  celldm(6)=   0.000000

     crystal axes: (cart. coord. in units of alat)
               a(1) = (  -0.500000   0.000000   0.500000 )  
               a(2) = (   0.000000   0.500000   0.500000 )  
               a(3) = (  -0.500000   0.500000   0.000000 )  

     reciprocal axes: (cart. coord. in units 2 pi/alat)
               b(1) = ( -1.000000 -1.000000  1.000000 )  
               b(2) = (  1.000000  1.000000  1.000000 )  
               b(3) = ( -1.000000  1.000000 -1.000000 )  


     PseudoPot. # 1 for Au read from file:
     /home/lorenzo/pseudos/Au/Au.pbe-n-kjpaw_psl.1.0.0.UPF
     MD5 check sum: 4db85c736373c707a97ce4c36c2a9d23
     Pseudo is Projector augmented-wave + core cor, Zval = 11.0
     Generated using "atomic" code by A. Dal Corso v.6.3
     Shape of augmentation charge: PSQ
     Using radial grid of 1279 points,  6 beta functions with: 
                l(1) =   0
                l(2) =   0
                l(3) =   1
                l(4) =   1
                l(5) =   2
                l(6) =   2
     Q(r) pseudized with 0 coefficients 


     atomic species   valence    mass     pseudopotential
        Au            11.00   196.96600     Au( 1.00)

     48 Sym. Ops., with inversion, found



   Cartesian axes

     site n.     atom                  positions (alat units)
         1           Au  tau(   1) = (   0.0000000   0.0000000   0.0000000  )

     number of k points=    16  gaussian smearing, width (Ry)=  0.0100
                       cart. coord. in units 2pi/alat
        k(    1) = (   0.0000000   0.0000000   0.0000000), wk =   0.0092593
        k(    2) = (  -0.1666667   0.1666667  -0.1666667), wk =   0.0740741
        k(    3) = (  -0.3333333   0.3333333  -0.3333333), wk =   0.0740741
        k(    4) = (   0.5000000  -0.5000000   0.5000000), wk =   0.0370370
        k(    5) = (   0.0000000   0.3333333   0.0000000), wk =   0.0555556
        k(    6) = (  -0.1666667   0.5000000  -0.1666667), wk =   0.2222222
        k(    7) = (   0.6666667  -0.3333333   0.6666667), wk =   0.2222222
        k(    8) = (   0.5000000  -0.1666667   0.5000000), wk =   0.2222222
        k(    9) = (   0.3333333   0.0000000   0.3333333), wk =   0.1111111
        k(   10) = (   0.0000000   0.6666667   0.0000000), wk =   0.0555556
        k(   11) = (   0.8333333  -0.1666667   0.8333333), wk =   0.2222222
        k(   12) = (   0.6666667  -0.0000000   0.6666667), wk =   0.1111111
        k(   13) = (   0.0000000  -1.0000000   0.0000000), wk =   0.0277778
        k(   14) = (   0.6666667  -0.3333333   1.0000000), wk =   0.2222222
        k(   15) = (   0.5000000  -0.1666667   0.8333333), wk =   0.2222222
        k(   16) = (  -0.3333333  -1.0000000   0.0000000), wk =   0.1111111

     Dense  grid:     4645 G-vectors     FFT dimensions: (  24,  24,  24)

     Estimated max dynamical RAM per process >       5.09 MB

     Estimated total dynamical RAM >      25.46 MB

     Initial potential from superposition of free atoms

     starting charge   10.99989, renormalised to   11.00000
     Starting wfcs are    9 randomized atomic wfcs +    1 random wfcs
     Checking if some PAW data can be deallocated... 

     total cpu time spent up to now is        1.3 secs

     Self-consistent Calculation

     iteration #  1     ecut=    45.00 Ry     beta= 0.70
     Davidson diagonalization with overlap
     ethr =  1.00E-02,  avg # of iterations =  5.6

     Threshold (ethr) on eigenvalues was too large:
     Diagonalizing with lowered threshold

     Davidson diagonalization with overlap
     ethr =  4.58E-04,  avg # of iterations =  1.9

     total cpu time spent up to now is        1.6 secs

     total energy              =    -775.11366101 Ry
     Harris-Foulkes estimate   =    -775.14735039 Ry
     estimated scf accuracy    <       0.04997508 Ry

     iteration #  2     ecut=    45.00 Ry     beta= 0.70
     Davidson diagonalization with overlap
     ethr =  4.54E-04,  avg # of iterations =  2.6

     total cpu time spent up to now is        1.9 secs

     total energy              =    -775.12831061 Ry
     Harris-Foulkes estimate   =    -775.13630749 Ry
     estimated scf accuracy    <       0.01306979 Ry

     iteration #  3     ecut=    45.00 Ry     beta= 0.70
     Davidson diagonalization with overlap
     ethr =  1.19E-04,  avg # of iterations =  1.9

     total cpu time spent up to now is        2.1 secs

     total energy              =    -775.13137093 Ry
     Harris-Foulkes estimate   =    -775.13137776 Ry
     estimated scf accuracy    <       0.00021176 Ry

     iteration #  4     ecut=    45.00 Ry     beta= 0.70
     Davidson diagonalization with overlap
     ethr =  1.93E-06,  avg # of iterations =  3.6

     total cpu time spent up to now is        2.4 secs

     total energy              =    -775.13155021 Ry
     Harris-Foulkes estimate   =    -775.13161705 Ry
     estimated scf accuracy    <       0.00014566 Ry

     iteration #  5     ecut=    45.00 Ry     beta= 0.70
     Davidson diagonalization with overlap
     ethr =  1.32E-06,  avg # of iterations =  1.1

     total cpu time spent up to now is        2.6 secs

     total energy              =    -775.13155414 Ry
     Harris-Foulkes estimate   =    -775.13156317 Ry
     estimated scf accuracy    <       0.00001351 Ry

     iteration #  6     ecut=    45.00 Ry     beta= 0.70
     Davidson diagonalization with overlap
     ethr =  1.23E-07,  avg # of iterations =  2.9

     total cpu time spent up to now is        2.9 secs

     total energy              =    -775.13156170 Ry
     Harris-Foulkes estimate   =    -775.13156251 Ry
     estimated scf accuracy    <       0.00000206 Ry

     iteration #  7     ecut=    45.00 Ry     beta= 0.70
     Davidson diagonalization with overlap
     ethr =  1.87E-08,  avg # of iterations =  1.3

     total cpu time spent up to now is        3.1 secs

     total energy              =    -775.13156168 Ry
     Harris-Foulkes estimate   =    -775.13156188 Ry
     estimated scf accuracy    <       0.00000039 Ry

     iteration #  8     ecut=    45.00 Ry     beta= 0.70
     Davidson diagonalization with overlap
     ethr =  3.51E-09,  avg # of iterations =  2.6

     total cpu time spent up to now is        3.3 secs

     End of self-consistent calculation

          k = 0.0000 0.0000 0.0000 (   561 PWs)   bands (ev):

     6.0732  11.2705  11.2705  11.2705  12.7957  12.7957  31.3887  35.2430
    35.2430  35.2430

          k =-0.1667 0.1667-0.1667 (   576 PWs)   bands (ev):

     6.9893  11.0513  11.5182  11.5182  12.7455  12.7455  30.4866  32.4171
    36.0162  36.0162

          k =-0.3333 0.3333-0.3333 (   589 PWs)   bands (ev):

     8.4766  11.4235  11.4235  12.0007  13.4147  13.4147  23.9088  31.5623
    35.1351  35.1351

          k = 0.5000-0.5000 0.5000 (   580 PWs)   bands (ev):

     8.6296  11.2321  11.2321  14.0045  14.0045  15.0002  19.0663  30.6731
    33.5958  33.5958

          k = 0.0000 0.3333 0.0000 (   572 PWs)   bands (ev):

     7.3067  10.6788  11.8462  11.8462  12.2002  13.0689  32.6696  32.9612
    33.3310  33.3310

          k =-0.1667 0.5000-0.1667 (   591 PWs)   bands (ev):

     8.8217  10.4756  11.4014  12.0838  13.3973  13.6106  26.5663  31.6459
    32.1925  33.7305

          k = 0.6667-0.3333 0.6667 (   588 PWs)   bands (ev):

     9.2411  10.8653  11.8131  11.9286  14.0475  16.6428  20.1476  29.8195
    31.5046  32.3582

          k = 0.5000-0.1667 0.5000 (   583 PWs)   bands (ev):

     9.3297  10.9949  11.6969  11.7908  13.2564  15.6596  22.3187  28.7491
    32.4608  34.2335

          k = 0.3333 0.0000 0.3333 (   580 PWs)   bands (ev):

     8.3161  10.6977  11.5411  12.0246  12.2325  13.7191  28.2467  30.0582
    34.7942  35.5518

          k = 0.0000 0.6667 0.0000 (   576 PWs)   bands (ev):

     9.0931   9.6517  12.9595  13.3120  13.3120  13.6494  28.2091  28.6002
    28.6002  32.6795

          k = 0.8333-0.1667 0.8333 (   588 PWs)   bands (ev):

     9.3017   9.7355  12.5309  13.1958  14.1522  17.1282  22.6207  25.7617
    27.9523  33.8544

          k = 0.6667-0.0000 0.6667 (   578 PWs)   bands (ev):

     9.7915  10.6016  11.4703  12.6859  13.5629  18.4560  22.4475  23.1756
    30.4591  33.3232

          k = 0.0000-1.0000 0.0000 (   588 PWs)   bands (ev):

     8.8784   9.1969  13.9592  14.3291  14.3291  17.0072  21.7760  26.2065
    26.2065  33.2100

          k = 0.6667-0.3333 1.0000 (   583 PWs)   bands (ev):

     9.9666  10.2089  10.9614  12.9551  13.3010  15.8860  24.6359  26.3273
    29.5958  37.1542

          k = 0.5000-0.1667 0.8333 (   584 PWs)   bands (ev):

    10.1913  10.2881  11.1992  12.5442  13.9167  19.3495  20.1292  25.8590
    27.7658  35.8719

          k =-0.3333-1.0000 0.0000 (   584 PWs)   bands (ev):

     9.6226   9.9161  11.9941  13.0738  14.3306  20.1925  20.9939  24.2638
    25.5656  37.4379

     the Fermi energy is    15.9176 ev

!    total energy              =    -775.13156179 Ry
     Harris-Foulkes estimate   =    -775.13156179 Ry
     estimated scf accuracy    <          1.4E-09 Ry

     total all-electron energy =    -38023.977653 Ry

     The total energy is the sum of the following terms:

     one-electron contribution =      13.83709429 Ry
     hartree contribution      =       7.63320376 Ry
     xc contribution           =     -32.12191673 Ry
     ewald contribution        =     -71.95438543 Ry
     one-center paw contrib.   =    -692.52494648 Ry
     smearing contrib. (-TS)   =      -0.00061121 Ry

     convergence has been achieved in   8 iterations

     Forces acting on atoms (cartesian axes, Ry/au):

     atom    1 type  1   force =     0.00000000    0.00000000    0.00000000

     Total force =     0.000000     Total SCF correction =     0.000000


     Computing stress (Cartesian axis) and pressure

          total   stress  (Ry/bohr**3)                   (kbar)     P=  114.79
   0.00078034  -0.00000000  -0.00000000        114.79     -0.00     -0.00
  -0.00000000   0.00078034   0.00000000         -0.00    114.79      0.00
  -0.00000000   0.00000000   0.00078034         -0.00      0.00    114.79


     Writing output data file Au.save/

     init_run     :      0.30s CPU      0.32s WALL (       1 calls)
     electrons    :      1.87s CPU      2.06s WALL (       1 calls)
     forces       :      0.02s CPU      0.02s WALL (       1 calls)
     stress       :      0.08s CPU      0.08s WALL (       1 calls)

     Called by init_run:
     wfcinit      :      0.03s CPU      0.03s WALL (       1 calls)
     potinit      :      0.11s CPU      0.12s WALL (       1 calls)
     hinit0       :      0.14s CPU      0.14s WALL (       1 calls)

     Called by electrons:
     c_bands      :      0.82s CPU      0.88s WALL (       9 calls)
     sum_band     :      0.18s CPU      0.20s WALL (       9 calls)
     v_of_rho     :      0.03s CPU      0.03s WALL (       9 calls)
     newd         :      0.04s CPU      0.05s WALL (       9 calls)
     PAW_pot      :      0.91s CPU      1.02s WALL (       9 calls)
     mix_rho      :      0.00s CPU      0.00s WALL (       9 calls)

     Called by c_bands:
     init_us_2    :      0.03s CPU      0.03s WALL (     336 calls)
     cegterg      :      0.78s CPU      0.84s WALL (     144 calls)

     Called by sum_band:
     sum_band:bec :      0.00s CPU      0.00s WALL (     144 calls)
     addusdens    :      0.04s CPU      0.04s WALL (       9 calls)

     Called by *egterg:
     h_psi        :      0.56s CPU      0.61s WALL (     538 calls)
     s_psi        :      0.02s CPU      0.02s WALL (     538 calls)
     g_psi        :      0.00s CPU      0.00s WALL (     378 calls)
     cdiaghg      :      0.11s CPU      0.12s WALL (     506 calls)

     Called by h_psi:
     h_psi:pot    :      0.56s CPU      0.60s WALL (     538 calls)
     h_psi:calbec :      0.03s CPU      0.03s WALL (     538 calls)
     vloc_psi     :      0.50s CPU      0.55s WALL (     538 calls)
     add_vuspsi   :      0.02s CPU      0.02s WALL (     538 calls)

     General routines
     calbec       :      0.05s CPU      0.05s WALL (     762 calls)
     fft          :      0.02s CPU      0.02s WALL (     126 calls)
     ffts         :      0.00s CPU      0.00s WALL (       9 calls)
     fftw         :      0.56s CPU      0.61s WALL (    9208 calls)

     Parallel routines
     fft_scatt_xy :      0.05s CPU      0.05s WALL (    9343 calls)
     fft_scatt_yz :      0.18s CPU      0.20s WALL (    9343 calls)

     PWSCF        :     3.22s CPU         3.49s WALL


   This run was terminated on:  11:38:27  26Mar2024            

=------------------------------------------------------------------------------=
   JOB DONE.
=------------------------------------------------------------------------------=
