
     Program PWSCF v.6.3MaX starts on 26Mar2024 at 12:44:34 

     This program is part of the open-source Quantum ESPRESSO suite
     for quantum simulation of materials; please cite
         "P. Giannozzi et al., J. Phys.:Condens. Matter 21 395502 (2009);
         "P. Giannozzi et al., J. Phys.:Condens. Matter 29 465901 (2017);
          URL http://www.quantum-espresso.org", 
     in publications or presentations arising from this work. More details at
     http://www.quantum-espresso.org/quote

     Parallel version (MPI), running on     5 processors

     MPI processes distributed on     1 nodes
     R & G space division:  proc/nbgrp/npool/nimage =       5
     Waiting for input...
     Reading input from standard input

     Current dimensions of program PWSCF are:
     Max number of different atomic species (ntypx) = 10
     Max number of k-points (npk) =  40000
     Max angular momentum in pseudopotentials (lmaxx) =  3
               file Au.pbesol-n-kjpaw_psl.1.0.0.UPF: wavefunction(s)  6S 5D renormalized

     Subspace diagonalization in iterative solution of the eigenvalue problem:
     a serial algorithm will be used


     Parallelization info
     --------------------
     sticks:   dense  smooth     PW     G-vecs:    dense   smooth      PW
     Min         153     153     48                 2863     2863     484
     Max         154     154     49                 2867     2867     485
     Sum         769     769    241                14331    14331    2421



     bravais-lattice index     =            2
     lattice parameter (alat)  =       7.7100  a.u.
     unit-cell volume          =     114.5785 (a.u.)^3
     number of atoms/cell      =            1
     number of atomic types    =            1
     number of electrons       =        11.00
     number of Kohn-Sham states=           10
     kinetic-energy cutoff     =      95.0000  Ry
     charge density cutoff     =     380.0000  Ry
     convergence threshold     =      1.0E-08
     mixing beta               =       0.7000
     number of iterations used =            8  plain     mixing
     Exchange-correlation      = SLA PW PSX PSC ( 1  4 10  8 0 0)

     celldm(1)=   7.710000  celldm(2)=   0.000000  celldm(3)=   0.000000
     celldm(4)=   0.000000  celldm(5)=   0.000000  celldm(6)=   0.000000

     crystal axes: (cart. coord. in units of alat)
               a(1) = (  -0.500000   0.000000   0.500000 )  
               a(2) = (   0.000000   0.500000   0.500000 )  
               a(3) = (  -0.500000   0.500000   0.000000 )  

     reciprocal axes: (cart. coord. in units 2 pi/alat)
               b(1) = ( -1.000000 -1.000000  1.000000 )  
               b(2) = (  1.000000  1.000000  1.000000 )  
               b(3) = ( -1.000000  1.000000 -1.000000 )  


     PseudoPot. # 1 for Au read from file:
     /home/lorenzo/pseudos/Au/Au.pbesol-n-kjpaw_psl.1.0.0.UPF
     MD5 check sum: abc371be705c47a6b6a6b4088b452d3e
     Pseudo is Projector augmented-wave + core cor, Zval = 11.0
     Generated using "atomic" code by A. Dal Corso v.6.3
     Shape of augmentation charge: PSQ
     Using radial grid of 1279 points,  6 beta functions with: 
                l(1) =   0
                l(2) =   0
                l(3) =   1
                l(4) =   1
                l(5) =   2
                l(6) =   2
     Q(r) pseudized with 0 coefficients 


     atomic species   valence    mass     pseudopotential
        Au            11.00   196.96600     Au( 1.00)

     48 Sym. Ops., with inversion, found



   Cartesian axes

     site n.     atom                  positions (alat units)
         1           Au  tau(   1) = (   0.0000000   0.0000000   0.0000000  )

     number of k points=    16  gaussian smearing, width (Ry)=  0.0100
                       cart. coord. in units 2pi/alat
        k(    1) = (   0.0000000   0.0000000   0.0000000), wk =   0.0092593
        k(    2) = (  -0.1666667   0.1666667  -0.1666667), wk =   0.0740741
        k(    3) = (  -0.3333333   0.3333333  -0.3333333), wk =   0.0740741
        k(    4) = (   0.5000000  -0.5000000   0.5000000), wk =   0.0370370
        k(    5) = (   0.0000000   0.3333333   0.0000000), wk =   0.0555556
        k(    6) = (  -0.1666667   0.5000000  -0.1666667), wk =   0.2222222
        k(    7) = (   0.6666667  -0.3333333   0.6666667), wk =   0.2222222
        k(    8) = (   0.5000000  -0.1666667   0.5000000), wk =   0.2222222
        k(    9) = (   0.3333333   0.0000000   0.3333333), wk =   0.1111111
        k(   10) = (   0.0000000   0.6666667   0.0000000), wk =   0.0555556
        k(   11) = (   0.8333333  -0.1666667   0.8333333), wk =   0.2222222
        k(   12) = (   0.6666667  -0.0000000   0.6666667), wk =   0.1111111
        k(   13) = (   0.0000000  -1.0000000   0.0000000), wk =   0.0277778
        k(   14) = (   0.6666667  -0.3333333   1.0000000), wk =   0.2222222
        k(   15) = (   0.5000000  -0.1666667   0.8333333), wk =   0.2222222
        k(   16) = (  -0.3333333  -1.0000000   0.0000000), wk =   0.1111111

     Dense  grid:    14331 G-vectors     FFT dimensions: (  36,  36,  36)

     Estimated max dynamical RAM per process >      13.64 MB

     Estimated total dynamical RAM >      68.22 MB

     Initial potential from superposition of free atoms

     starting charge   10.99990, renormalised to   11.00000
     Starting wfcs are    9 randomized atomic wfcs +    1 random wfcs
     Checking if some PAW data can be deallocated... 

     total cpu time spent up to now is        1.4 secs

     Self-consistent Calculation

     iteration #  1     ecut=    95.00 Ry     beta= 0.70
     Davidson diagonalization with overlap
     ethr =  1.00E-02,  avg # of iterations =  5.8

     Threshold (ethr) on eigenvalues was too large:
     Diagonalizing with lowered threshold

     Davidson diagonalization with overlap
     ethr =  5.47E-04,  avg # of iterations =  1.6

     total cpu time spent up to now is        2.3 secs

     total energy              =    -764.65458154 Ry
     Harris-Foulkes estimate   =    -764.69698200 Ry
     estimated scf accuracy    <       0.06155654 Ry

     iteration #  2     ecut=    95.00 Ry     beta= 0.70
     Davidson diagonalization with overlap
     ethr =  5.60E-04,  avg # of iterations =  2.7

     negative rho (up, down):  1.181E-03 0.000E+00

     total cpu time spent up to now is        2.7 secs

     total energy              =    -764.67299244 Ry
     Harris-Foulkes estimate   =    -764.68365016 Ry
     estimated scf accuracy    <       0.01797489 Ry

     iteration #  3     ecut=    95.00 Ry     beta= 0.70
     Davidson diagonalization with overlap
     ethr =  1.63E-04,  avg # of iterations =  1.9

     negative rho (up, down):  5.081E-03 0.000E+00

     total cpu time spent up to now is        3.1 secs

     total energy              =    -764.67697409 Ry
     Harris-Foulkes estimate   =    -764.67701280 Ry
     estimated scf accuracy    <       0.00041334 Ry

     iteration #  4     ecut=    95.00 Ry     beta= 0.70
     Davidson diagonalization with overlap
     ethr =  3.76E-06,  avg # of iterations =  3.8

     negative rho (up, down):  5.043E-03 0.000E+00

     total cpu time spent up to now is        3.7 secs

     total energy              =    -764.67727029 Ry
     Harris-Foulkes estimate   =    -764.67732647 Ry
     estimated scf accuracy    <       0.00021669 Ry

     iteration #  5     ecut=    95.00 Ry     beta= 0.70
     Davidson diagonalization with overlap
     ethr =  1.97E-06,  avg # of iterations =  1.0

     negative rho (up, down):  5.598E-03 0.000E+00

     total cpu time spent up to now is        4.1 secs

     total energy              =    -764.67721510 Ry
     Harris-Foulkes estimate   =    -764.67727511 Ry
     estimated scf accuracy    <       0.00009986 Ry

     iteration #  6     ecut=    95.00 Ry     beta= 0.70
     Davidson diagonalization with overlap
     ethr =  9.08E-07,  avg # of iterations =  2.1

     negative rho (up, down):  5.716E-03 0.000E+00

     total cpu time spent up to now is        4.5 secs

     total energy              =    -764.67723992 Ry
     Harris-Foulkes estimate   =    -764.67724020 Ry
     estimated scf accuracy    <       0.00000122 Ry

     iteration #  7     ecut=    95.00 Ry     beta= 0.70
     Davidson diagonalization with overlap
     ethr =  1.11E-08,  avg # of iterations =  3.2

     negative rho (up, down):  5.851E-03 0.000E+00

     total cpu time spent up to now is        4.9 secs

     total energy              =    -764.67724036 Ry
     Harris-Foulkes estimate   =    -764.67724061 Ry
     estimated scf accuracy    <       0.00000061 Ry

     iteration #  8     ecut=    95.00 Ry     beta= 0.70
     Davidson diagonalization with overlap
     ethr =  5.55E-09,  avg # of iterations =  1.1

     negative rho (up, down):  5.819E-03 0.000E+00

     total cpu time spent up to now is        5.3 secs

     total energy              =    -764.67724033 Ry
     Harris-Foulkes estimate   =    -764.67724039 Ry
     estimated scf accuracy    <       0.00000012 Ry

     iteration #  9     ecut=    95.00 Ry     beta= 0.70
     Davidson diagonalization with overlap
     ethr =  1.06E-09,  avg # of iterations =  2.9

     negative rho (up, down):  5.834E-03 0.000E+00

     total cpu time spent up to now is        5.7 secs

     End of self-consistent calculation

          k = 0.0000 0.0000 0.0000 (  1807 PWs)   bands (ev):

     5.8131  11.0829  11.0829  11.0829  12.6240  12.6240  31.1317  34.9853
    34.9853  34.9853

          k =-0.1667 0.1667-0.1667 (  1808 PWs)   bands (ev):

     6.7299  10.8590  11.3321  11.3321  12.5723  12.5723  30.2197  32.1562
    35.7576  35.7576

          k =-0.3333 0.3333-0.3333 (  1820 PWs)   bands (ev):

     8.2407  11.2392  11.2392  11.7747  13.2420  13.2420  23.6575  31.2991
    34.8642  34.8642

          k = 0.5000-0.5000 0.5000 (  1802 PWs)   bands (ev):

     8.4092  11.0474  11.0474  13.8348  13.8348  14.7350  18.8425  30.4116
    33.3328  33.3328

          k = 0.0000 0.3333 0.0000 (  1800 PWs)   bands (ev):

     7.0475  10.4867  11.6605  11.6605  12.0217  12.8989  32.3994  32.7195
    33.0592  33.0592

          k =-0.1667 0.5000-0.1667 (  1804 PWs)   bands (ev):

     8.5774  10.2750  11.2142  11.9013  13.2077  13.4409  26.3084  31.3796
    31.9618  33.4641

          k = 0.6667-0.3333 0.6667 (  1787 PWs)   bands (ev):

     9.0249  10.6750  11.6308  11.7239  13.8779  16.4225  19.9081  29.5839
    31.2533  32.0899

          k = 0.5000-0.1667 0.5000 (  1788 PWs)   bands (ev):

     9.1074  10.8061  11.4854  11.6092  13.0810  15.4590  22.0752  28.4931
    32.2037  34.0038

          k = 0.3333 0.0000 0.3333 (  1803 PWs)   bands (ev):

     8.0609  10.5028  11.3539  11.8408  12.0557  13.5433  27.9919  29.7835
    34.5405  35.2935

          k = 0.0000 0.6667 0.0000 (  1752 PWs)   bands (ev):

     8.8722   9.4529  12.7317  13.1328  13.1328  13.4835  27.9831  28.3351
    28.3351  32.4646

          k = 0.8333-0.1667 0.8333 (  1785 PWs)   bands (ev):

     9.0976   9.5343  12.3305  13.0223  13.9820  16.9028  22.3664  25.5397
    27.6965  33.6025

          k = 0.6667-0.0000 0.6667 (  1790 PWs)   bands (ev):

     9.5906  10.3976  11.2709  12.5104  13.3867  18.2174  22.1985  22.9568
    30.2235  33.0666

          k = 0.0000-1.0000 0.0000 (  1772 PWs)   bands (ev):

     8.6747   8.9954  13.7956  14.1565  14.1565  16.7428  21.5605  25.9428
    25.9428  33.0220

          k = 0.6667-0.3333 1.0000 (  1795 PWs)   bands (ev):

     9.7474  10.0099  10.7636  12.7765  13.1223  15.6822  24.3884  26.0654
    29.3800  36.3734

          k = 0.5000-0.1667 0.8333 (  1792 PWs)   bands (ev):

     9.9844  10.0926  10.9983  12.3658  13.7422  19.1134  19.8936  25.6098
    27.5473  35.6024

          k =-0.3333-1.0000 0.0000 (  1786 PWs)   bands (ev):

     9.4223   9.7154  11.7970  12.8993  14.1580  19.9450  20.7585  24.0045
    25.3583  37.1220

     the Fermi energy is    15.7139 ev

!    total energy              =    -764.67724037 Ry
     Harris-Foulkes estimate   =    -764.67724037 Ry
     estimated scf accuracy    <          5.1E-09 Ry

     total all-electron energy =    -38013.511703 Ry

     The total energy is the sum of the following terms:

     one-electron contribution =      13.86826514 Ry
     hartree contribution      =       7.57910478 Ry
     xc contribution           =     -31.82726078 Ry
     ewald contribution        =     -71.95438534 Ry
     one-center paw contrib.   =    -682.34235159 Ry
     smearing contrib. (-TS)   =      -0.00061258 Ry

     convergence has been achieved in   9 iterations

     negative rho (up, down):  5.834E-03 0.000E+00

     Forces acting on atoms (cartesian axes, Ry/au):

     atom    1 type  1   force =     0.00000000    0.00000000    0.00000000

     Total force =     0.000000     Total SCF correction =     0.000000


     Computing stress (Cartesian axis) and pressure


     negative rho (up, down):  5.834E-03 0.000E+00
          total   stress  (Ry/bohr**3)                   (kbar)     P=   24.97
   0.00016975  -0.00000000  -0.00000000         24.97     -0.00     -0.00
  -0.00000000   0.00016975   0.00000000         -0.00     24.97      0.00
  -0.00000000   0.00000000   0.00016975         -0.00      0.00     24.97


     Writing output data file Au.save/

     init_run     :      0.47s CPU      0.50s WALL (       1 calls)
     electrons    :      4.09s CPU      4.27s WALL (       1 calls)
     forces       :      0.06s CPU      0.06s WALL (       1 calls)
     stress       :      0.19s CPU      0.19s WALL (       1 calls)

     Called by init_run:
     wfcinit      :      0.10s CPU      0.11s WALL (       1 calls)
     potinit      :      0.11s CPU      0.13s WALL (       1 calls)
     hinit0       :      0.21s CPU      0.22s WALL (       1 calls)

     Called by electrons:
     c_bands      :      2.42s CPU      2.54s WALL (      10 calls)
     sum_band     :      0.57s CPU      0.60s WALL (      10 calls)
     v_of_rho     :      0.09s CPU      0.09s WALL (      10 calls)
     newd         :      0.14s CPU      0.14s WALL (      10 calls)
     PAW_pot      :      0.98s CPU      1.03s WALL (      10 calls)
     mix_rho      :      0.01s CPU      0.01s WALL (      10 calls)

     Called by c_bands:
     init_us_2    :      0.08s CPU      0.08s WALL (     368 calls)
     cegterg      :      2.30s CPU      2.42s WALL (     160 calls)

     Called by sum_band:
     sum_band:bec :      0.00s CPU      0.00s WALL (     160 calls)
     addusdens    :      0.14s CPU      0.14s WALL (      10 calls)

     Called by *egterg:
     h_psi        :      1.90s CPU      2.02s WALL (     591 calls)
     s_psi        :      0.06s CPU      0.06s WALL (     591 calls)
     g_psi        :      0.01s CPU      0.01s WALL (     415 calls)
     cdiaghg      :      0.14s CPU      0.14s WALL (     559 calls)

     Called by h_psi:
     h_psi:pot    :      1.90s CPU      2.01s WALL (     591 calls)
     h_psi:calbec :      0.09s CPU      0.09s WALL (     591 calls)
     vloc_psi     :      1.75s CPU      1.85s WALL (     591 calls)
     add_vuspsi   :      0.06s CPU      0.06s WALL (     591 calls)

     General routines
     calbec       :      0.13s CPU      0.13s WALL (     831 calls)
     fft          :      0.05s CPU      0.05s WALL (     137 calls)
     ffts         :      0.00s CPU      0.00s WALL (      10 calls)
     fftw         :      1.95s CPU      2.06s WALL (   10160 calls)

     Parallel routines
     fft_scatt_xy :      0.16s CPU      0.17s WALL (   10307 calls)
     fft_scatt_yz :      0.47s CPU      0.49s WALL (   10307 calls)

     PWSCF        :     5.73s CPU         6.01s WALL


   This run was terminated on:  12:44:40  26Mar2024            

=------------------------------------------------------------------------------=
   JOB DONE.
=------------------------------------------------------------------------------=
