
     Program PWSCF v.6.3MaX starts on 25Mar2024 at 19:55:50 

     This program is part of the open-source Quantum ESPRESSO suite
     for quantum simulation of materials; please cite
         "P. Giannozzi et al., J. Phys.:Condens. Matter 21 395502 (2009);
         "P. Giannozzi et al., J. Phys.:Condens. Matter 29 465901 (2017);
          URL http://www.quantum-espresso.org", 
     in publications or presentations arising from this work. More details at
     http://www.quantum-espresso.org/quote

     Parallel version (MPI), running on     5 processors

     MPI processes distributed on     1 nodes
     R & G space division:  proc/nbgrp/npool/nimage =       5
     Waiting for input...
     Reading input from standard input

     Current dimensions of program PWSCF are:
     Max number of different atomic species (ntypx) = 10
     Max number of k-points (npk) =  40000
     Max angular momentum in pseudopotentials (lmaxx) =  3
               file Al.pbe-n-kjpaw_psl.1.0.0.UPF: wavefunction(s)  3S 3P renormalized

     Subspace diagonalization in iterative solution of the eigenvalue problem:
     a serial algorithm will be used


     Parallelization info
     --------------------
     sticks:   dense  smooth     PW     G-vecs:    dense   smooth      PW
     Min          32      32     12                  272      272      66
     Max          33      33     13                  273      273      67
     Sum         163     163     61                 1363     1363     331



     bravais-lattice index     =            2
     lattice parameter (alat)  =       7.6500  a.u.
     unit-cell volume          =     111.9243 (a.u.)^3
     number of atoms/cell      =            1
     number of atomic types    =            1
     number of electrons       =         3.00
     number of Kohn-Sham states=            6
     kinetic-energy cutoff     =      20.0000  Ry
     charge density cutoff     =      80.0000  Ry
     convergence threshold     =      1.0E-08
     mixing beta               =       0.7000
     number of iterations used =            8  plain     mixing
     Exchange-correlation      = SLA PW PBX PBC ( 1  4  3  4 0 0)

     celldm(1)=   7.650000  celldm(2)=   0.000000  celldm(3)=   0.000000
     celldm(4)=   0.000000  celldm(5)=   0.000000  celldm(6)=   0.000000

     crystal axes: (cart. coord. in units of alat)
               a(1) = (  -0.500000   0.000000   0.500000 )  
               a(2) = (   0.000000   0.500000   0.500000 )  
               a(3) = (  -0.500000   0.500000   0.000000 )  

     reciprocal axes: (cart. coord. in units 2 pi/alat)
               b(1) = ( -1.000000 -1.000000  1.000000 )  
               b(2) = (  1.000000  1.000000  1.000000 )  
               b(3) = ( -1.000000  1.000000 -1.000000 )  


     PseudoPot. # 1 for Al read from file:
     /home/lorenzo/pseudos/Al/Al.pbe-n-kjpaw_psl.1.0.0.UPF
     MD5 check sum: 502b6b27b9c6270cab5dd1084b96fa6d
     Pseudo is Projector augmented-wave + core cor, Zval =  3.0
     Generated using "atomic" code by A. Dal Corso v.6.3
     Shape of augmentation charge: PSQ
     Using radial grid of 1135 points,  6 beta functions with: 
                l(1) =   0
                l(2) =   0
                l(3) =   1
                l(4) =   1
                l(5) =   2
                l(6) =   2
     Q(r) pseudized with 0 coefficients 


     atomic species   valence    mass     pseudopotential
        Al             3.00    26.98150     Al( 1.00)

     48 Sym. Ops., with inversion, found



   Cartesian axes

     site n.     atom                  positions (alat units)
         1           Al  tau(   1) = (   0.0000000   0.0000000   0.0000000  )

     number of k points=    16  gaussian smearing, width (Ry)=  0.0100
                       cart. coord. in units 2pi/alat
        k(    1) = (   0.0000000   0.0000000   0.0000000), wk =   0.0092593
        k(    2) = (  -0.1666667   0.1666667  -0.1666667), wk =   0.0740741
        k(    3) = (  -0.3333333   0.3333333  -0.3333333), wk =   0.0740741
        k(    4) = (   0.5000000  -0.5000000   0.5000000), wk =   0.0370370
        k(    5) = (   0.0000000   0.3333333   0.0000000), wk =   0.0555556
        k(    6) = (  -0.1666667   0.5000000  -0.1666667), wk =   0.2222222
        k(    7) = (   0.6666667  -0.3333333   0.6666667), wk =   0.2222222
        k(    8) = (   0.5000000  -0.1666667   0.5000000), wk =   0.2222222
        k(    9) = (   0.3333333   0.0000000   0.3333333), wk =   0.1111111
        k(   10) = (   0.0000000   0.6666667   0.0000000), wk =   0.0555556
        k(   11) = (   0.8333333  -0.1666667   0.8333333), wk =   0.2222222
        k(   12) = (   0.6666667  -0.0000000   0.6666667), wk =   0.1111111
        k(   13) = (   0.0000000  -1.0000000   0.0000000), wk =   0.0277778
        k(   14) = (   0.6666667  -0.3333333   1.0000000), wk =   0.2222222
        k(   15) = (   0.5000000  -0.1666667   0.8333333), wk =   0.2222222
        k(   16) = (  -0.3333333  -1.0000000   0.0000000), wk =   0.1111111

     Dense  grid:     1363 G-vectors     FFT dimensions: (  15,  15,  15)

     Estimated max dynamical RAM per process >       1.93 MB

     Estimated total dynamical RAM >       9.64 MB

     Initial potential from superposition of free atoms

     starting charge    2.99771, renormalised to    3.00000
     Starting wfcs are    4 randomized atomic wfcs +    2 random wfcs
     Checking if some PAW data can be deallocated... 

     total cpu time spent up to now is        0.9 secs

     Self-consistent Calculation

     iteration #  1     ecut=    20.00 Ry     beta= 0.70
     Davidson diagonalization with overlap
     ethr =  1.00E-02,  avg # of iterations =  4.2

     Threshold (ethr) on eigenvalues was too large:
     Diagonalizing with lowered threshold

     Davidson diagonalization with overlap
     ethr =  1.72E-04,  avg # of iterations =  1.5

     total cpu time spent up to now is        1.1 secs

     total energy              =     -39.50746540 Ry
     Harris-Foulkes estimate   =     -39.50863719 Ry
     estimated scf accuracy    <       0.00514239 Ry

     iteration #  2     ecut=    20.00 Ry     beta= 0.70
     Davidson diagonalization with overlap
     ethr =  1.71E-04,  avg # of iterations =  1.0

     total cpu time spent up to now is        1.2 secs

     total energy              =     -39.50742221 Ry
     Harris-Foulkes estimate   =     -39.50751080 Ry
     estimated scf accuracy    <       0.00037017 Ry

     iteration #  3     ecut=    20.00 Ry     beta= 0.70
     Davidson diagonalization with overlap
     ethr =  1.23E-05,  avg # of iterations =  2.1

     total cpu time spent up to now is        1.3 secs

     total energy              =     -39.50743066 Ry
     Harris-Foulkes estimate   =     -39.50743075 Ry
     estimated scf accuracy    <       0.00000042 Ry

     iteration #  4     ecut=    20.00 Ry     beta= 0.70
     Davidson diagonalization with overlap
     ethr =  1.41E-08,  avg # of iterations =  2.8

     total cpu time spent up to now is        1.5 secs

     total energy              =     -39.50743216 Ry
     Harris-Foulkes estimate   =     -39.50743219 Ry
     estimated scf accuracy    <       0.00000003 Ry

     iteration #  5     ecut=    20.00 Ry     beta= 0.70
     Davidson diagonalization with overlap
     ethr =  1.09E-09,  avg # of iterations =  1.1

     total cpu time spent up to now is        1.6 secs

     End of self-consistent calculation

          k = 0.0000 0.0000 0.0000 (   169 PWs)   bands (ev):

    -3.2495  20.4523  20.4523  21.8946  21.8946  21.8946

          k =-0.1667 0.1667-0.1667 (   171 PWs)   bands (ev):

    -2.4984  14.4831  19.1715  19.1715  22.4106  23.8118

          k =-0.3333 0.3333-0.3333 (   165 PWs)   bands (ev):

    -0.2677   8.3499  18.5912  18.5912  21.1791  21.1791

          k = 0.5000-0.5000 0.5000 (   168 PWs)   bands (ev):

     3.2784   3.4805  19.2113  19.2113  19.3033  19.3033

          k = 0.0000 0.3333 0.0000 (   169 PWs)   bands (ev):

    -2.2487  16.8402  16.8402  17.0195  20.0712  20.3217

          k =-0.1667 0.5000-0.1667 (   169 PWs)   bands (ev):

    -0.5144  10.8503  15.7841  16.5208  17.4323  22.3132

          k = 0.6667-0.3333 0.6667 (   168 PWs)   bands (ev):

     2.6492   5.5262  14.0579  16.0114  17.7944  23.7903

          k = 0.5000-0.1667 0.5000 (   166 PWs)   bands (ev):

     1.4427   7.1537  12.9478  17.5228  19.4543  22.7264

          k = 0.3333 0.0000 0.3333 (   164 PWs)   bands (ev):

    -1.2548  12.3345  13.7347  20.2752  22.3006  22.4011

          k = 0.0000 0.6667 0.0000 (   170 PWs)   bands (ev):

     0.7098  12.2240  14.1102  14.2833  14.2833  17.7682

          k = 0.8333-0.1667 0.8333 (   172 PWs)   bands (ev):

     3.3505   8.8888   9.3516  14.0732  15.5824  20.7386

          k = 0.6667-0.0000 0.6667 (   172 PWs)   bands (ev):

     4.5576   6.7828   8.2421  15.1509  16.9176  26.4751

          k = 0.0000-1.0000 0.0000 (   174 PWs)   bands (ev):

     4.9400   6.2549  13.1190  13.4301  13.4301  16.8712

          k = 0.6667-0.3333 1.0000 (   171 PWs)   bands (ev):

     1.6829   9.5585  11.0111  13.2107  20.6531  22.2622

          k = 0.5000-0.1667 0.8333 (   172 PWs)   bands (ev):

     5.1288   5.3883  10.8567  11.4117  21.8410  22.3313

          k =-0.3333-1.0000 0.0000 (   172 PWs)   bands (ev):

     5.8607   7.2053   8.6326  10.1916  19.7672  21.5745

     the Fermi energy is     8.2098 ev

!    total energy              =     -39.50743217 Ry
     Harris-Foulkes estimate   =     -39.50743217 Ry
     estimated scf accuracy    <          1.4E-10 Ry

     total all-electron energy =      -485.650212 Ry

     The total energy is the sum of the following terms:

     one-electron contribution =       3.14926293 Ry
     hartree contribution      =       0.00529966 Ry
     xc contribution           =      -2.58791739 Ry
     ewald contribution        =      -5.39395546 Ry
     one-center paw contrib.   =     -34.67975336 Ry
     smearing contrib. (-TS)   =      -0.00036855 Ry

     convergence has been achieved in   5 iterations

     Forces acting on atoms (cartesian axes, Ry/au):

     atom    1 type  1   force =     0.00000000    0.00000000    0.00000000

     Total force =     0.000000     Total SCF correction =     0.000000


     Computing stress (Cartesian axis) and pressure

          total   stress  (Ry/bohr**3)                   (kbar)     P=   -0.96
  -0.00000654   0.00000000   0.00000000         -0.96      0.00      0.00
   0.00000000  -0.00000654   0.00000000          0.00     -0.96      0.00
   0.00000000   0.00000000  -0.00000654          0.00      0.00     -0.96


     Writing output data file Al.save/

     init_run     :      0.20s CPU      0.21s WALL (       1 calls)
     electrons    :      0.58s CPU      0.68s WALL (       1 calls)
     forces       :      0.01s CPU      0.01s WALL (       1 calls)
     stress       :      0.03s CPU      0.03s WALL (       1 calls)

     Called by init_run:
     wfcinit      :      0.01s CPU      0.01s WALL (       1 calls)
     potinit      :      0.09s CPU      0.11s WALL (       1 calls)
     hinit0       :      0.08s CPU      0.08s WALL (       1 calls)

     Called by electrons:
     c_bands      :      0.11s CPU      0.14s WALL (       6 calls)
     sum_band     :      0.03s CPU      0.03s WALL (       6 calls)
     v_of_rho     :      0.00s CPU      0.00s WALL (       6 calls)
     newd         :      0.01s CPU      0.01s WALL (       6 calls)
     PAW_pot      :      0.52s CPU      0.58s WALL (       6 calls)
     mix_rho      :      0.00s CPU      0.00s WALL (       6 calls)

     Called by c_bands:
     init_us_2    :      0.01s CPU      0.01s WALL (     240 calls)
     cegterg      :      0.11s CPU      0.13s WALL (      96 calls)

     Called by sum_band:
     sum_band:bec :      0.00s CPU      0.00s WALL (      96 calls)
     addusdens    :      0.01s CPU      0.01s WALL (       6 calls)

     Called by *egterg:
     h_psi        :      0.07s CPU      0.09s WALL (     314 calls)
     s_psi        :      0.00s CPU      0.00s WALL (     314 calls)
     g_psi        :      0.00s CPU      0.00s WALL (     202 calls)
     cdiaghg      :      0.02s CPU      0.02s WALL (     282 calls)

     Called by h_psi:
     h_psi:pot    :      0.07s CPU      0.09s WALL (     314 calls)
     h_psi:calbec :      0.01s CPU      0.01s WALL (     314 calls)
     vloc_psi     :      0.06s CPU      0.08s WALL (     314 calls)
     add_vuspsi   :      0.00s CPU      0.00s WALL (     314 calls)

     General routines
     calbec       :      0.01s CPU      0.01s WALL (     490 calls)
     fft          :      0.00s CPU      0.00s WALL (      93 calls)
     ffts         :      0.00s CPU      0.00s WALL (       6 calls)
     fftw         :      0.07s CPU      0.08s WALL (    3570 calls)

     Parallel routines
     fft_scatt_xy :      0.01s CPU      0.01s WALL (    3669 calls)
     fft_scatt_yz :      0.03s CPU      0.03s WALL (    3669 calls)

     PWSCF        :     1.51s CPU         1.67s WALL


   This run was terminated on:  19:55:51  25Mar2024            

=------------------------------------------------------------------------------=
   JOB DONE.
=------------------------------------------------------------------------------=
