
     Program PWSCF v.6.3MaX starts on 25Mar2024 at 19:56: 6 

     This program is part of the open-source Quantum ESPRESSO suite
     for quantum simulation of materials; please cite
         "P. Giannozzi et al., J. Phys.:Condens. Matter 21 395502 (2009);
         "P. Giannozzi et al., J. Phys.:Condens. Matter 29 465901 (2017);
          URL http://www.quantum-espresso.org", 
     in publications or presentations arising from this work. More details at
     http://www.quantum-espresso.org/quote

     Parallel version (MPI), running on     5 processors

     MPI processes distributed on     1 nodes
     R & G space division:  proc/nbgrp/npool/nimage =       5
     Waiting for input...
     Reading input from standard input

     Current dimensions of program PWSCF are:
     Max number of different atomic species (ntypx) = 10
     Max number of k-points (npk) =  40000
     Max angular momentum in pseudopotentials (lmaxx) =  3
               file Al.pbe-nl-kjpaw_psl.1.0.0.UPF: wavefunction(s)  3S 3P renormalized

     Subspace diagonalization in iterative solution of the eigenvalue problem:
     a serial algorithm will be used


     Parallelization info
     --------------------
     sticks:   dense  smooth     PW     G-vecs:    dense   smooth      PW
     Min          32      32     12                  272      272      66
     Max          33      33     13                  273      273      67
     Sum         163     163     61                 1363     1363     331



     bravais-lattice index     =            2
     lattice parameter (alat)  =       7.6500  a.u.
     unit-cell volume          =     111.9243 (a.u.)^3
     number of atoms/cell      =            1
     number of atomic types    =            1
     number of electrons       =         3.00
     number of Kohn-Sham states=            6
     kinetic-energy cutoff     =      20.0000  Ry
     charge density cutoff     =      80.0000  Ry
     convergence threshold     =      1.0E-08
     mixing beta               =       0.7000
     number of iterations used =            8  plain     mixing
     Exchange-correlation      = SLA PW PBX PBC ( 1  4  3  4 0 0)

     celldm(1)=   7.650000  celldm(2)=   0.000000  celldm(3)=   0.000000
     celldm(4)=   0.000000  celldm(5)=   0.000000  celldm(6)=   0.000000

     crystal axes: (cart. coord. in units of alat)
               a(1) = (  -0.500000   0.000000   0.500000 )  
               a(2) = (   0.000000   0.500000   0.500000 )  
               a(3) = (  -0.500000   0.500000   0.000000 )  

     reciprocal axes: (cart. coord. in units 2 pi/alat)
               b(1) = ( -1.000000 -1.000000  1.000000 )  
               b(2) = (  1.000000  1.000000  1.000000 )  
               b(3) = ( -1.000000  1.000000 -1.000000 )  


     PseudoPot. # 1 for Al read from file:
     /home/lorenzo/pseudos/Al/Al.pbe-nl-kjpaw_psl.1.0.0.UPF
     MD5 check sum: 8cf6d98cc7ef3f4b729b574060f3a10f
     Pseudo is Projector augmented-wave + core cor, Zval =  3.0
     Generated using "atomic" code by A. Dal Corso v.6.3
     Shape of augmentation charge: PSQ
     Using radial grid of 1135 points,  4 beta functions with: 
                l(1) =   0
                l(2) =   0
                l(3) =   1
                l(4) =   1
     Q(r) pseudized with 0 coefficients 


     atomic species   valence    mass     pseudopotential
        Al             3.00    26.98150     Al( 1.00)

     48 Sym. Ops., with inversion, found



   Cartesian axes

     site n.     atom                  positions (alat units)
         1           Al  tau(   1) = (   0.0000000   0.0000000   0.0000000  )

     number of k points=    35  gaussian smearing, width (Ry)=  0.0100
                       cart. coord. in units 2pi/alat
        k(    1) = (   0.0000000   0.0000000   0.0000000), wk =   0.0027435
        k(    2) = (  -0.1111111   0.1111111  -0.1111111), wk =   0.0219479
        k(    3) = (  -0.2222222   0.2222222  -0.2222222), wk =   0.0219479
        k(    4) = (  -0.3333333   0.3333333  -0.3333333), wk =   0.0219479
        k(    5) = (  -0.4444444   0.4444444  -0.4444444), wk =   0.0219479
        k(    6) = (   0.0000000   0.2222222   0.0000000), wk =   0.0164609
        k(    7) = (  -0.1111111   0.3333333  -0.1111111), wk =   0.0658436
        k(    8) = (  -0.2222222   0.4444444  -0.2222222), wk =   0.0658436
        k(    9) = (  -0.3333333   0.5555556  -0.3333333), wk =   0.0658436
        k(   10) = (   0.5555556  -0.3333333   0.5555556), wk =   0.0658436
        k(   11) = (   0.4444444  -0.2222222   0.4444444), wk =   0.0658436
        k(   12) = (   0.3333333  -0.1111111   0.3333333), wk =   0.0658436
        k(   13) = (   0.2222222  -0.0000000   0.2222222), wk =   0.0329218
        k(   14) = (   0.0000000   0.4444444   0.0000000), wk =   0.0164609
        k(   15) = (  -0.1111111   0.5555556  -0.1111111), wk =   0.0658436
        k(   16) = (  -0.2222222   0.6666667  -0.2222222), wk =   0.0658436
        k(   17) = (   0.6666667  -0.2222222   0.6666667), wk =   0.0658436
        k(   18) = (   0.5555556  -0.1111111   0.5555556), wk =   0.0658436
        k(   19) = (   0.4444444   0.0000000   0.4444444), wk =   0.0329218
        k(   20) = (   0.0000000   0.6666667   0.0000000), wk =   0.0164609
        k(   21) = (  -0.1111111   0.7777778  -0.1111111), wk =   0.0658436
        k(   22) = (   0.7777778  -0.1111111   0.7777778), wk =   0.0658436
        k(   23) = (   0.6666667  -0.0000000   0.6666667), wk =   0.0329218
        k(   24) = (   0.0000000   0.8888889   0.0000000), wk =   0.0164609
        k(   25) = (   0.8888889   0.0000000   0.8888889), wk =   0.0329218
        k(   26) = (  -0.2222222   0.4444444   0.0000000), wk =   0.0658436
        k(   27) = (  -0.3333333   0.5555556  -0.1111111), wk =   0.1316872
        k(   28) = (   0.5555556  -0.3333333   0.7777778), wk =   0.1316872
        k(   29) = (  -0.2222222   0.6666667   0.0000000), wk =   0.0658436
        k(   30) = (   0.6666667  -0.2222222   0.8888889), wk =   0.1316872
        k(   31) = (   0.5555556  -0.1111111   0.7777778), wk =   0.1316872
        k(   32) = (   0.4444444   0.0000000   0.6666667), wk =   0.0658436
        k(   33) = (   0.7777778  -0.1111111   1.0000000), wk =   0.0658436
        k(   34) = (   0.6666667  -0.0000000   0.8888889), wk =   0.0658436
        k(   35) = (   0.5555556  -0.1111111   1.0000000), wk =   0.0658436

     Dense  grid:     1363 G-vectors     FFT dimensions: (  15,  15,  15)

     Estimated max dynamical RAM per process >       0.73 MB

     Estimated total dynamical RAM >       3.65 MB

     Initial potential from superposition of free atoms

     starting charge    2.99771, renormalised to    3.00000
     Starting wfcs are    4 randomized atomic wfcs +    2 random wfcs
     Checking if some PAW data can be deallocated... 

     total cpu time spent up to now is        0.5 secs

     Self-consistent Calculation

     iteration #  1     ecut=    20.00 Ry     beta= 0.70
     Davidson diagonalization with overlap
     ethr =  1.00E-02,  avg # of iterations =  4.6

     Threshold (ethr) on eigenvalues was too large:
     Diagonalizing with lowered threshold

     Davidson diagonalization with overlap
     ethr =  1.91E-04,  avg # of iterations =  2.0

     total cpu time spent up to now is        0.8 secs

     total energy              =     -39.49969927 Ry
     Harris-Foulkes estimate   =     -39.50117215 Ry
     estimated scf accuracy    <       0.00564794 Ry

     iteration #  2     ecut=    20.00 Ry     beta= 0.70
     Davidson diagonalization with overlap
     ethr =  1.88E-04,  avg # of iterations =  1.0

     total cpu time spent up to now is        0.8 secs

     total energy              =     -39.49968235 Ry
     Harris-Foulkes estimate   =     -39.49978020 Ry
     estimated scf accuracy    <       0.00039582 Ry

     iteration #  3     ecut=    20.00 Ry     beta= 0.70
     Davidson diagonalization with overlap
     ethr =  1.32E-05,  avg # of iterations =  1.6

     total cpu time spent up to now is        0.9 secs

     total energy              =     -39.49970198 Ry
     Harris-Foulkes estimate   =     -39.49970253 Ry
     estimated scf accuracy    <       0.00000153 Ry

     iteration #  4     ecut=    20.00 Ry     beta= 0.70
     Davidson diagonalization with overlap
     ethr =  5.11E-08,  avg # of iterations =  3.1

     total cpu time spent up to now is        1.1 secs

     total energy              =     -39.49970392 Ry
     Harris-Foulkes estimate   =     -39.49970391 Ry
     estimated scf accuracy    <       0.00000011 Ry

     iteration #  5     ecut=    20.00 Ry     beta= 0.70
     Davidson diagonalization with overlap
     ethr =  3.77E-09,  avg # of iterations =  1.0

     total cpu time spent up to now is        1.2 secs

     total energy              =     -39.49970391 Ry
     Harris-Foulkes estimate   =     -39.49970392 Ry
     estimated scf accuracy    <       0.00000002 Ry

     iteration #  6     ecut=    20.00 Ry     beta= 0.70
     Davidson diagonalization with overlap
     ethr =  7.92E-10,  avg # of iterations =  1.0

     total cpu time spent up to now is        1.3 secs

     End of self-consistent calculation

          k = 0.0000 0.0000 0.0000 (   169 PWs)   bands (ev):

    -3.2500  20.5420  20.5420  21.8791  21.8791  21.8791

          k =-0.1111 0.1111-0.1111 (   169 PWs)   bands (ev):

    -2.9158  16.7451  19.6658  19.6658  22.5687  23.2454

          k =-0.2222 0.2222-0.2222 (   168 PWs)   bands (ev):

    -1.9173  12.3445  18.8744  18.8744  22.2530  23.1201

          k =-0.3333 0.3333-0.3333 (   165 PWs)   bands (ev):

    -0.2676   8.3596  18.6162  18.6162  21.2294  21.2295

          k =-0.4444 0.4444-0.4444 (   168 PWs)   bands (ev):

     2.0099   4.9020  18.9163  18.9163  19.8079  19.8079

          k = 0.0000 0.2222 0.0000 (   169 PWs)   bands (ev):

    -2.8045  18.0880  18.0880  18.4067  20.9382  23.2337

          k =-0.1111 0.3333-0.1111 (   166 PWs)   bands (ev):

    -2.0278  13.9906  17.0544  18.5424  20.4389  21.9389

          k =-0.2222 0.4444-0.2222 (   163 PWs)   bands (ev):

    -0.5965   9.8931  16.5902  18.1656  18.3178  24.3842

          k =-0.3333 0.5556-0.3333 (   169 PWs)   bands (ev):

     1.4705   6.2678  16.5388  16.6954  18.4268  22.7843

          k = 0.5556-0.3333 0.5556 (   166 PWs)   bands (ev):

     3.1814   4.1652  15.4423  17.3765  19.1689  21.7477

          k = 0.4444-0.2222 0.4444 (   165 PWs)   bands (ev):

     0.7128   7.4125  14.9454  18.6225  20.4920  21.2596

          k = 0.3333-0.1111 0.3333 (   161 PWs)   bands (ev):

    -1.1452  11.1876  15.0692  20.3813  21.3519  22.3377

          k = 0.2222-0.0000 0.2222 (   164 PWs)   bands (ev):

    -2.3600  15.0253  16.1582  21.4114  22.1322  23.4246

          k = 0.0000 0.4444 0.0000 (   165 PWs)   bands (ev):

    -1.4756  15.8116  15.8116  15.9046  17.4940  19.2283

          k =-0.1111 0.5556-0.1111 (   167 PWs)   bands (ev):

    -0.2686  11.9525  14.9884  15.1445  16.6224  20.2531

          k =-0.2222 0.6667-0.2222 (   167 PWs)   bands (ev):

     1.5763   8.2295  13.0704  15.0546  16.7575  23.2857

          k = 0.6667-0.2222 0.6667 (   174 PWs)   bands (ev):

     4.0185   5.0122  11.7547  15.5388  17.3455  25.1055

          k = 0.5556-0.1111 0.5556 (   170 PWs)   bands (ev):

     2.3315   7.0460  11.0929  16.6014  18.5218  24.4462

          k = 0.4444 0.0000 0.4444 (   166 PWs)   bands (ev):

     0.2778  10.0887  11.5692  18.2366  20.2471  23.9877

          k = 0.0000 0.6667 0.0000 (   170 PWs)   bands (ev):

     0.7102  12.2390  14.1649  14.2824  14.2824  17.7798

          k =-0.1111 0.7778-0.1111 (   170 PWs)   bands (ev):

     2.3216  10.0495  10.7632  13.9971  15.3729  19.1556

          k = 0.7778-0.1111 0.7778 (   175 PWs)   bands (ev):

     4.5150   7.3686   8.6210  14.2873  15.9303  22.6016

          k = 0.6667-0.0000 0.6667 (   172 PWs)   bands (ev):

     4.5613   6.7893   8.2484  15.1543  16.9492  26.5388

          k = 0.0000 0.8889 0.0000 (   170 PWs)   bands (ev):

     3.6723   7.7282  13.2868  13.5184  13.5184  16.9927

          k = 0.8889 0.0000 0.8889 (   178 PWs)   bands (ev):

     5.1456   6.4776  10.3218  13.6150  14.9464  18.7713

          k =-0.2222 0.4444 0.0000 (   166 PWs)   bands (ev):

    -1.0354  12.5648  13.8902  17.8736  19.9177  21.6564

          k =-0.3333 0.5556-0.1111 (   166 PWs)   bands (ev):

     0.6036   9.1244  13.0953  15.7984  20.3428  23.0334

          k = 0.5556-0.3333 0.7778 (   170 PWs)   bands (ev):

     2.8649   5.7336  13.3308  14.3171  20.7113  21.7394

          k =-0.2222 0.6667 0.0000 (   172 PWs)   bands (ev):

     1.1436  10.9155  12.1655  12.8191  18.3461  20.3508

          k = 0.6667-0.2222 0.8889 (   168 PWs)   bands (ev):

     3.1772   7.8715  10.8827  11.9682  19.2284  23.0514

          k = 0.5556-0.1111 0.7778 (   174 PWs)   bands (ev):

     4.8617   5.8013   9.8396  12.5946  20.0400  24.2769

          k = 0.4444 0.0000 0.6667 (   169 PWs)   bands (ev):

     2.4369   8.4378   9.9165  13.8970  21.3251  23.2178

          k = 0.7778-0.1111 1.0000 (   171 PWs)   bands (ev):

     4.0948   8.1390  10.0905  11.5455  17.5393  19.6316

          k = 0.6667-0.0000 0.8889 (   173 PWs)   bands (ev):

     5.9669   7.1687   7.6481  11.5191  18.8359  22.7342

          k = 0.5556-0.1111 1.0000 (   166 PWs)   bands (ev):

     5.3547   7.6143   8.8756   9.6790  22.4615  23.4367

     the Fermi energy is     7.8317 ev

!    total energy              =     -39.49970391 Ry
     Harris-Foulkes estimate   =     -39.49970391 Ry
     estimated scf accuracy    <          1.7E-10 Ry

     total all-electron energy =      -485.642484 Ry

     The total energy is the sum of the following terms:

     one-electron contribution =       3.15459020 Ry
     hartree contribution      =       0.00627895 Ry
     xc contribution           =      -2.58827880 Ry
     ewald contribution        =      -5.39395546 Ry
     one-center paw contrib.   =     -34.67792600 Ry
     smearing contrib. (-TS)   =      -0.00041280 Ry

     convergence has been achieved in   6 iterations

     Forces acting on atoms (cartesian axes, Ry/au):

     atom    1 type  1   force =     0.00000000    0.00000000    0.00000000

     Total force =     0.000000     Total SCF correction =     0.000000


     Computing stress (Cartesian axis) and pressure

          total   stress  (Ry/bohr**3)                   (kbar)     P=   -1.80
  -0.00001224   0.00000000   0.00000000         -1.80      0.00      0.00
   0.00000000  -0.00001224  -0.00000000          0.00     -1.80     -0.00
   0.00000000  -0.00000000  -0.00001224          0.00     -0.00     -1.80


     Writing output data file Al.save/

     init_run     :      0.09s CPU      0.11s WALL (       1 calls)
     electrons    :      0.62s CPU      0.74s WALL (       1 calls)
     forces       :      0.01s CPU      0.01s WALL (       1 calls)
     stress       :      0.02s CPU      0.02s WALL (       1 calls)

     Called by init_run:
     wfcinit      :      0.02s CPU      0.03s WALL (       1 calls)
     potinit      :      0.03s CPU      0.04s WALL (       1 calls)
     hinit0       :      0.04s CPU      0.04s WALL (       1 calls)

     Called by electrons:
     c_bands      :      0.39s CPU      0.45s WALL (       7 calls)
     sum_band     :      0.06s CPU      0.07s WALL (       7 calls)
     v_of_rho     :      0.01s CPU      0.01s WALL (       7 calls)
     newd         :      0.00s CPU      0.00s WALL (       7 calls)
     PAW_pot      :      0.18s CPU      0.22s WALL (       7 calls)
     mix_rho      :      0.00s CPU      0.00s WALL (       7 calls)

     Called by c_bands:
     init_us_2    :      0.01s CPU      0.01s WALL (     595 calls)
     cegterg      :      0.37s CPU      0.43s WALL (     245 calls)

     Called by sum_band:
     sum_band:bec :      0.00s CPU      0.00s WALL (     245 calls)
     addusdens    :      0.00s CPU      0.00s WALL (       7 calls)

     Called by *egterg:
     h_psi        :      0.26s CPU      0.31s WALL (     779 calls)
     s_psi        :      0.00s CPU      0.01s WALL (     779 calls)
     g_psi        :      0.00s CPU      0.00s WALL (     499 calls)
     cdiaghg      :      0.06s CPU      0.07s WALL (     709 calls)

     Called by h_psi:
     h_psi:pot    :      0.26s CPU      0.30s WALL (     779 calls)
     h_psi:calbec :      0.02s CPU      0.02s WALL (     779 calls)
     vloc_psi     :      0.23s CPU      0.27s WALL (     779 calls)
     add_vuspsi   :      0.00s CPU      0.01s WALL (     779 calls)

     General routines
     calbec       :      0.02s CPU      0.03s WALL (    1199 calls)
     fft          :      0.01s CPU      0.01s WALL (     104 calls)
     ffts         :      0.00s CPU      0.00s WALL (       7 calls)
     fftw         :      0.26s CPU      0.30s WALL (    8996 calls)

     Parallel routines
     fft_scatt_xy :      0.02s CPU      0.03s WALL (    9107 calls)
     fft_scatt_yz :      0.13s CPU      0.15s WALL (    9107 calls)

     PWSCF        :     1.18s CPU         1.37s WALL


   This run was terminated on:  19:56: 7  25Mar2024            

=------------------------------------------------------------------------------=
   JOB DONE.
=------------------------------------------------------------------------------=
