
     Program PWSCF v.6.3MaX starts on 25Mar2024 at 20: 5: 3 

     This program is part of the open-source Quantum ESPRESSO suite
     for quantum simulation of materials; please cite
         "P. Giannozzi et al., J. Phys.:Condens. Matter 21 395502 (2009);
         "P. Giannozzi et al., J. Phys.:Condens. Matter 29 465901 (2017);
          URL http://www.quantum-espresso.org", 
     in publications or presentations arising from this work. More details at
     http://www.quantum-espresso.org/quote

     Parallel version (MPI), running on     5 processors

     MPI processes distributed on     1 nodes
     R & G space division:  proc/nbgrp/npool/nimage =       5
     Waiting for input...
     Reading input from standard input

     Current dimensions of program PWSCF are:
     Max number of different atomic species (ntypx) = 10
     Max number of k-points (npk) =  40000
     Max angular momentum in pseudopotentials (lmaxx) =  3
               file Al.pbe-nl-kjpaw_psl.1.0.0.UPF: wavefunction(s)  3S 3P renormalized

     Subspace diagonalization in iterative solution of the eigenvalue problem:
     a serial algorithm will be used


     Parallelization info
     --------------------
     sticks:   dense  smooth     PW     G-vecs:    dense   smooth      PW
     Min          99      99     30                 1395     1395     248
     Max         101     101     31                 1395     1395     251
     Sum         499     499    151                 6975     6975    1243



     bravais-lattice index     =            2
     lattice parameter (alat)  =       7.6500  a.u.
     unit-cell volume          =     111.9243 (a.u.)^3
     number of atoms/cell      =            1
     number of atomic types    =            1
     number of electrons       =         3.00
     number of Kohn-Sham states=            6
     kinetic-energy cutoff     =      60.0000  Ry
     charge density cutoff     =     240.0000  Ry
     convergence threshold     =      1.0E-08
     mixing beta               =       0.7000
     number of iterations used =            8  plain     mixing
     Exchange-correlation      = SLA PW PBX PBC ( 1  4  3  4 0 0)

     celldm(1)=   7.650000  celldm(2)=   0.000000  celldm(3)=   0.000000
     celldm(4)=   0.000000  celldm(5)=   0.000000  celldm(6)=   0.000000

     crystal axes: (cart. coord. in units of alat)
               a(1) = (  -0.500000   0.000000   0.500000 )  
               a(2) = (   0.000000   0.500000   0.500000 )  
               a(3) = (  -0.500000   0.500000   0.000000 )  

     reciprocal axes: (cart. coord. in units 2 pi/alat)
               b(1) = ( -1.000000 -1.000000  1.000000 )  
               b(2) = (  1.000000  1.000000  1.000000 )  
               b(3) = ( -1.000000  1.000000 -1.000000 )  


     PseudoPot. # 1 for Al read from file:
     /home/lorenzo/pseudos/Al/Al.pbe-nl-kjpaw_psl.1.0.0.UPF
     MD5 check sum: 8cf6d98cc7ef3f4b729b574060f3a10f
     Pseudo is Projector augmented-wave + core cor, Zval =  3.0
     Generated using "atomic" code by A. Dal Corso v.6.3
     Shape of augmentation charge: PSQ
     Using radial grid of 1135 points,  4 beta functions with: 
                l(1) =   0
                l(2) =   0
                l(3) =   1
                l(4) =   1
     Q(r) pseudized with 0 coefficients 


     atomic species   valence    mass     pseudopotential
        Al             3.00    26.98150     Al( 1.00)

     48 Sym. Ops., with inversion, found



   Cartesian axes

     site n.     atom                  positions (alat units)
         1           Al  tau(   1) = (   0.0000000   0.0000000   0.0000000  )

     number of k points=    29  gaussian smearing, width (Ry)=  0.0100
                       cart. coord. in units 2pi/alat
        k(    1) = (   0.0000000   0.0000000   0.0000000), wk =   0.0039062
        k(    2) = (  -0.1250000   0.1250000  -0.1250000), wk =   0.0312500
        k(    3) = (  -0.2500000   0.2500000  -0.2500000), wk =   0.0312500
        k(    4) = (  -0.3750000   0.3750000  -0.3750000), wk =   0.0312500
        k(    5) = (   0.5000000  -0.5000000   0.5000000), wk =   0.0156250
        k(    6) = (   0.0000000   0.2500000   0.0000000), wk =   0.0234375
        k(    7) = (  -0.1250000   0.3750000  -0.1250000), wk =   0.0937500
        k(    8) = (  -0.2500000   0.5000000  -0.2500000), wk =   0.0937500
        k(    9) = (   0.6250000  -0.3750000   0.6250000), wk =   0.0937500
        k(   10) = (   0.5000000  -0.2500000   0.5000000), wk =   0.0937500
        k(   11) = (   0.3750000  -0.1250000   0.3750000), wk =   0.0937500
        k(   12) = (   0.2500000   0.0000000   0.2500000), wk =   0.0468750
        k(   13) = (   0.0000000   0.5000000   0.0000000), wk =   0.0234375
        k(   14) = (  -0.1250000   0.6250000  -0.1250000), wk =   0.0937500
        k(   15) = (   0.7500000  -0.2500000   0.7500000), wk =   0.0937500
        k(   16) = (   0.6250000  -0.1250000   0.6250000), wk =   0.0937500
        k(   17) = (   0.5000000   0.0000000   0.5000000), wk =   0.0468750
        k(   18) = (   0.0000000   0.7500000   0.0000000), wk =   0.0234375
        k(   19) = (   0.8750000  -0.1250000   0.8750000), wk =   0.0937500
        k(   20) = (   0.7500000   0.0000000   0.7500000), wk =   0.0468750
        k(   21) = (   0.0000000  -1.0000000   0.0000000), wk =   0.0117188
        k(   22) = (  -0.2500000   0.5000000   0.0000000), wk =   0.0937500
        k(   23) = (   0.6250000  -0.3750000   0.8750000), wk =   0.1875000
        k(   24) = (   0.5000000  -0.2500000   0.7500000), wk =   0.0937500
        k(   25) = (   0.7500000  -0.2500000   1.0000000), wk =   0.0937500
        k(   26) = (   0.6250000  -0.1250000   0.8750000), wk =   0.1875000
        k(   27) = (   0.5000000   0.0000000   0.7500000), wk =   0.0937500
        k(   28) = (  -0.2500000  -1.0000000   0.0000000), wk =   0.0468750
        k(   29) = (  -0.5000000  -1.0000000   0.0000000), wk =   0.0234375

     Dense  grid:     6975 G-vectors     FFT dimensions: (  27,  27,  27)

     Estimated max dynamical RAM per process >       2.88 MB

     Estimated total dynamical RAM >      14.40 MB

     Initial potential from superposition of free atoms

     starting charge    2.99771, renormalised to    3.00000
     Starting wfcs are    4 randomized atomic wfcs +    2 random wfcs
     Checking if some PAW data can be deallocated... 

     total cpu time spent up to now is        0.6 secs

     Self-consistent Calculation

     iteration #  1     ecut=    60.00 Ry     beta= 0.70
     Davidson diagonalization with overlap
     ethr =  1.00E-02,  avg # of iterations =  4.8

     Threshold (ethr) on eigenvalues was too large:
     Diagonalizing with lowered threshold

     Davidson diagonalization with overlap
     ethr =  1.95E-04,  avg # of iterations =  2.2

     total cpu time spent up to now is        1.0 secs

     total energy              =     -39.50242173 Ry
     Harris-Foulkes estimate   =     -39.50387745 Ry
     estimated scf accuracy    <       0.00571439 Ry

     iteration #  2     ecut=    60.00 Ry     beta= 0.70
     Davidson diagonalization with overlap
     ethr =  1.90E-04,  avg # of iterations =  1.0

     total cpu time spent up to now is        1.2 secs

     total energy              =     -39.50241763 Ry
     Harris-Foulkes estimate   =     -39.50251204 Ry
     estimated scf accuracy    <       0.00040285 Ry

     iteration #  3     ecut=    60.00 Ry     beta= 0.70
     Davidson diagonalization with overlap
     ethr =  1.34E-05,  avg # of iterations =  1.7

     total cpu time spent up to now is        1.4 secs

     total energy              =     -39.50243806 Ry
     Harris-Foulkes estimate   =     -39.50243865 Ry
     estimated scf accuracy    <       0.00000149 Ry

     iteration #  4     ecut=    60.00 Ry     beta= 0.70
     Davidson diagonalization with overlap
     ethr =  4.96E-08,  avg # of iterations =  3.3

     total cpu time spent up to now is        1.6 secs

     total energy              =     -39.50244036 Ry
     Harris-Foulkes estimate   =     -39.50244036 Ry
     estimated scf accuracy    <       0.00000011 Ry

     iteration #  5     ecut=    60.00 Ry     beta= 0.70
     Davidson diagonalization with overlap
     ethr =  3.76E-09,  avg # of iterations =  1.0

     total cpu time spent up to now is        1.8 secs

     total energy              =     -39.50244038 Ry
     Harris-Foulkes estimate   =     -39.50244037 Ry
     estimated scf accuracy    <       0.00000003 Ry

     iteration #  6     ecut=    60.00 Ry     beta= 0.70
     Davidson diagonalization with overlap
     ethr =  1.03E-09,  avg # of iterations =  1.0

     total cpu time spent up to now is        2.0 secs

     End of self-consistent calculation

          k = 0.0000 0.0000 0.0000 (   893 PWs)   bands (ev):

    -3.2510  20.4402  20.4402  21.8773  21.8773  21.8773

          k =-0.1250 0.1250-0.1250 (   893 PWs)   bands (ev):

    -2.8281  16.1438  19.4852  19.4852  22.5079  23.4217

          k =-0.2500 0.2500-0.2500 (   890 PWs)   bands (ev):

    -1.5666  11.2832  18.7182  18.7182  22.1536  22.5468

          k =-0.3750 0.3750-0.3750 (   878 PWs)   bands (ev):

     0.5119   6.9888  18.6261  18.6261  20.5678  20.5678

          k = 0.5000-0.5000 0.5000 (   886 PWs)   bands (ev):

     3.2765   3.4804  19.1969  19.1969  19.2886  19.2886

          k = 0.0000 0.2500 0.0000 (   889 PWs)   bands (ev):

    -2.6874  17.7286  17.7286  17.9919  20.7290  22.4403

          k =-0.1250 0.3750-0.1250 (   885 PWs)   bands (ev):

    -1.7062  13.1406  16.6655  18.1845  19.4128  21.9350

          k =-0.2500 0.5000-0.2500 (   876 PWs)   bands (ev):

     0.0983   8.6850  16.3177  17.0443  18.0197  24.0268

          k = 0.6250-0.3750 0.6250 (   883 PWs)   bands (ev):

     2.6936   4.8614  15.4206  16.6894  18.4571  22.5186

          k = 0.5000-0.2500 0.5000 (   873 PWs)   bands (ev):

     1.7444   6.0539  14.5409  17.7809  19.6378  21.6785

          k = 0.3750-0.1250 0.3750 (   877 PWs)   bands (ev):

    -0.5930  10.0838  14.4413  19.5725  21.5193  21.5272

          k = 0.2500 0.0000 0.2500 (   887 PWs)   bands (ev):

    -2.1259  14.2868  15.5166  21.5337  21.8243  23.1611

          k = 0.0000 0.5000 0.0000 (   881 PWs)   bands (ev):

    -1.0096  15.3281  15.3415  15.3415  16.0864  18.8002

          k =-0.1250 0.6250-0.1250 (   876 PWs)   bands (ev):

     0.5103  11.0692  13.4198  14.7442  16.2136  20.2167

          k = 0.7500-0.2500 0.7500 (   875 PWs)   bands (ev):

     2.8234   7.1002  11.4972  14.8706  16.5544  23.8800

          k = 0.6250-0.1250 0.6250 (   871 PWs)   bands (ev):

     3.7702   5.8818  10.3757  15.7209  17.5425  25.4296

          k = 0.5000 0.0000 0.5000 (   883 PWs)   bands (ev):

     1.1976   9.0936  10.5894  17.2947  19.2543  24.7739

          k = 0.0000 0.7500 0.0000 (   870 PWs)   bands (ev):

     1.7374  10.4323  13.6738  13.9010  13.9010  17.3727

          k = 0.8750-0.1250 0.8750 (   877 PWs)   bands (ev):

     3.7355   8.2247  10.0586  13.7829  15.1513  19.2806

          k = 0.7500 0.0000 0.7500 (   874 PWs)   bands (ev):

     5.9756   6.5015   7.4460  14.3887  16.0303  23.4659

          k = 0.0000-1.0000 0.0000 (   846 PWs)   bands (ev):

     4.9391   6.2537  13.1180  13.4211  13.4211  16.8635

          k =-0.2500 0.5000 0.0000 (   880 PWs)   bands (ev):

    -0.4547  11.6964  13.0878  16.6015  19.9576  21.7092

          k = 0.6250-0.3750 0.8750 (   876 PWs)   bands (ev):

     1.6067   7.9889  12.4158  14.4695  20.5764  22.6564

          k = 0.5000-0.2500 0.7500 (   882 PWs)   bands (ev):

     4.3212   4.5697  12.8165  13.2730  21.0965  21.5323

          k = 0.7500-0.2500 1.0000 (   880 PWs)   bands (ev):

     2.2815  10.1358  10.8462  11.7218  18.4688  20.4604

          k = 0.6250-0.1250 0.8750 (   884 PWs)   bands (ev):

     4.8002   6.9276   9.3050  11.4582  19.6461  23.7649

          k = 0.5000 0.0000 0.7500 (   885 PWs)   bands (ev):

     3.9007   7.5334   8.9948  12.5624  20.8568  24.0923

          k =-0.2500-1.0000 0.0000 (   876 PWs)   bands (ev):

     5.4572   6.7943   9.6150  11.1102  17.9611  20.0063

          k =-0.5000-1.0000 0.0000 (   876 PWs)   bands (ev):

     7.0139   7.0139   8.0328   8.9280  23.6205  23.6205

     the Fermi energy is     7.8842 ev

!    total energy              =     -39.50244038 Ry
     Harris-Foulkes estimate   =     -39.50244038 Ry
     estimated scf accuracy    <          2.1E-10 Ry

     total all-electron energy =      -485.645221 Ry

     The total energy is the sum of the following terms:

     one-electron contribution =       3.15097418 Ry
     hartree contribution      =       0.00648804 Ry
     xc contribution           =      -2.58842756 Ry
     ewald contribution        =      -5.39395538 Ry
     one-center paw contrib.   =     -34.67720632 Ry
     smearing contrib. (-TS)   =      -0.00031334 Ry

     convergence has been achieved in   6 iterations

     Forces acting on atoms (cartesian axes, Ry/au):

     atom    1 type  1   force =     0.00000000    0.00000000    0.00000000

     Total force =     0.000000     Total SCF correction =     0.000000


     Computing stress (Cartesian axis) and pressure

          total   stress  (Ry/bohr**3)                   (kbar)     P=   -4.07
  -0.00002765   0.00000000  -0.00000000         -4.07      0.00     -0.00
   0.00000000  -0.00002765  -0.00000000          0.00     -4.07     -0.00
  -0.00000000   0.00000000  -0.00002765         -0.00      0.00     -4.07


     Writing output data file Al.save/

     init_run     :      0.17s CPU      0.18s WALL (       1 calls)
     electrons    :      1.27s CPU      1.35s WALL (       1 calls)
     forces       :      0.02s CPU      0.02s WALL (       1 calls)
     stress       :      0.06s CPU      0.06s WALL (       1 calls)

     Called by init_run:
     wfcinit      :      0.04s CPU      0.05s WALL (       1 calls)
     potinit      :      0.04s CPU      0.04s WALL (       1 calls)
     hinit0       :      0.08s CPU      0.08s WALL (       1 calls)

     Called by electrons:
     c_bands      :      0.91s CPU      0.95s WALL (       7 calls)
     sum_band     :      0.18s CPU      0.19s WALL (       7 calls)
     v_of_rho     :      0.03s CPU      0.03s WALL (       7 calls)
     newd         :      0.01s CPU      0.01s WALL (       7 calls)
     PAW_pot      :      0.17s CPU      0.20s WALL (       7 calls)
     mix_rho      :      0.00s CPU      0.00s WALL (       7 calls)

     Called by c_bands:
     init_us_2    :      0.03s CPU      0.03s WALL (     493 calls)
     cegterg      :      0.87s CPU      0.91s WALL (     203 calls)

     Called by sum_band:
     sum_band:bec :      0.00s CPU      0.00s WALL (     203 calls)
     addusdens    :      0.01s CPU      0.01s WALL (       7 calls)

     Called by *egterg:
     h_psi        :      0.74s CPU      0.78s WALL (     667 calls)
     s_psi        :      0.01s CPU      0.01s WALL (     667 calls)
     g_psi        :      0.00s CPU      0.00s WALL (     435 calls)
     cdiaghg      :      0.06s CPU      0.06s WALL (     609 calls)

     Called by h_psi:
     h_psi:pot    :      0.74s CPU      0.77s WALL (     667 calls)
     h_psi:calbec :      0.04s CPU      0.04s WALL (     667 calls)
     vloc_psi     :      0.69s CPU      0.72s WALL (     667 calls)
     add_vuspsi   :      0.01s CPU      0.01s WALL (     667 calls)

     General routines
     calbec       :      0.05s CPU      0.05s WALL (    1015 calls)
     fft          :      0.02s CPU      0.02s WALL (     104 calls)
     ffts         :      0.00s CPU      0.00s WALL (       7 calls)
     fftw         :      0.78s CPU      0.81s WALL (    7536 calls)

     Parallel routines
     fft_scatt_xy :      0.06s CPU      0.07s WALL (    7647 calls)
     fft_scatt_yz :      0.23s CPU      0.23s WALL (    7647 calls)

     PWSCF        :     2.02s CPU         2.18s WALL


   This run was terminated on:  20: 5: 6  25Mar2024            

=------------------------------------------------------------------------------=
   JOB DONE.
=------------------------------------------------------------------------------=
