
     Program PWSCF v.6.3MaX starts on 25Mar2024 at 19:57: 4 

     This program is part of the open-source Quantum ESPRESSO suite
     for quantum simulation of materials; please cite
         "P. Giannozzi et al., J. Phys.:Condens. Matter 21 395502 (2009);
         "P. Giannozzi et al., J. Phys.:Condens. Matter 29 465901 (2017);
          URL http://www.quantum-espresso.org", 
     in publications or presentations arising from this work. More details at
     http://www.quantum-espresso.org/quote

     Parallel version (MPI), running on     5 processors

     MPI processes distributed on     1 nodes
     R & G space division:  proc/nbgrp/npool/nimage =       5
     Waiting for input...
     Reading input from standard input

     Current dimensions of program PWSCF are:
     Max number of different atomic species (ntypx) = 10
     Max number of k-points (npk) =  40000
     Max angular momentum in pseudopotentials (lmaxx) =  3

     Subspace diagonalization in iterative solution of the eigenvalue problem:
     a serial algorithm will be used


     Parallelization info
     --------------------
     sticks:   dense  smooth     PW     G-vecs:    dense   smooth      PW
     Min          39      39     14                  381      381      82
     Max          40      40     15                  384      384      83
     Sum         199     199     73                 1917     1917     411



     bravais-lattice index     =            2
     lattice parameter (alat)  =       7.6500  a.u.
     unit-cell volume          =     111.9243 (a.u.)^3
     number of atoms/cell      =            1
     number of atomic types    =            1
     number of electrons       =         3.00
     number of Kohn-Sham states=            6
     kinetic-energy cutoff     =      25.0000  Ry
     charge density cutoff     =     100.0000  Ry
     convergence threshold     =      1.0E-08
     mixing beta               =       0.7000
     number of iterations used =            8  plain     mixing
     Exchange-correlation      = PBE ( 1  4  3  4 0 0)

     celldm(1)=   7.650000  celldm(2)=   0.000000  celldm(3)=   0.000000
     celldm(4)=   0.000000  celldm(5)=   0.000000  celldm(6)=   0.000000

     crystal axes: (cart. coord. in units of alat)
               a(1) = (  -0.500000   0.000000   0.500000 )  
               a(2) = (   0.000000   0.500000   0.500000 )  
               a(3) = (  -0.500000   0.500000   0.000000 )  

     reciprocal axes: (cart. coord. in units 2 pi/alat)
               b(1) = ( -1.000000 -1.000000  1.000000 )  
               b(2) = (  1.000000  1.000000  1.000000 )  
               b(3) = ( -1.000000  1.000000 -1.000000 )  


     PseudoPot. # 1 for Al read from file:
     /home/lorenzo/pseudos/Al/Al.pbe-nl-rrkjus_psl.1.0.0.UPF
     MD5 check sum: 6db8691240a1c860ce6448702d298c4b
     Pseudo is Ultrasoft + core correction, Zval =  3.0
     Generated using "atomic" code by A. Dal Corso v.6.3
     Using radial grid of 1135 points,  4 beta functions with: 
                l(1) =   0
                l(2) =   0
                l(3) =   1
                l(4) =   1
     Q(r) pseudized with 0 coefficients 


     atomic species   valence    mass     pseudopotential
        Al             3.00    26.98150     Al( 1.00)

     48 Sym. Ops., with inversion, found



   Cartesian axes

     site n.     atom                  positions (alat units)
         1           Al  tau(   1) = (   0.0000000   0.0000000   0.0000000  )

     number of k points=    35  gaussian smearing, width (Ry)=  0.0100
                       cart. coord. in units 2pi/alat
        k(    1) = (   0.0000000   0.0000000   0.0000000), wk =   0.0027435
        k(    2) = (  -0.1111111   0.1111111  -0.1111111), wk =   0.0219479
        k(    3) = (  -0.2222222   0.2222222  -0.2222222), wk =   0.0219479
        k(    4) = (  -0.3333333   0.3333333  -0.3333333), wk =   0.0219479
        k(    5) = (  -0.4444444   0.4444444  -0.4444444), wk =   0.0219479
        k(    6) = (   0.0000000   0.2222222   0.0000000), wk =   0.0164609
        k(    7) = (  -0.1111111   0.3333333  -0.1111111), wk =   0.0658436
        k(    8) = (  -0.2222222   0.4444444  -0.2222222), wk =   0.0658436
        k(    9) = (  -0.3333333   0.5555556  -0.3333333), wk =   0.0658436
        k(   10) = (   0.5555556  -0.3333333   0.5555556), wk =   0.0658436
        k(   11) = (   0.4444444  -0.2222222   0.4444444), wk =   0.0658436
        k(   12) = (   0.3333333  -0.1111111   0.3333333), wk =   0.0658436
        k(   13) = (   0.2222222  -0.0000000   0.2222222), wk =   0.0329218
        k(   14) = (   0.0000000   0.4444444   0.0000000), wk =   0.0164609
        k(   15) = (  -0.1111111   0.5555556  -0.1111111), wk =   0.0658436
        k(   16) = (  -0.2222222   0.6666667  -0.2222222), wk =   0.0658436
        k(   17) = (   0.6666667  -0.2222222   0.6666667), wk =   0.0658436
        k(   18) = (   0.5555556  -0.1111111   0.5555556), wk =   0.0658436
        k(   19) = (   0.4444444   0.0000000   0.4444444), wk =   0.0329218
        k(   20) = (   0.0000000   0.6666667   0.0000000), wk =   0.0164609
        k(   21) = (  -0.1111111   0.7777778  -0.1111111), wk =   0.0658436
        k(   22) = (   0.7777778  -0.1111111   0.7777778), wk =   0.0658436
        k(   23) = (   0.6666667  -0.0000000   0.6666667), wk =   0.0329218
        k(   24) = (   0.0000000   0.8888889   0.0000000), wk =   0.0164609
        k(   25) = (   0.8888889   0.0000000   0.8888889), wk =   0.0329218
        k(   26) = (  -0.2222222   0.4444444   0.0000000), wk =   0.0658436
        k(   27) = (  -0.3333333   0.5555556  -0.1111111), wk =   0.1316872
        k(   28) = (   0.5555556  -0.3333333   0.7777778), wk =   0.1316872
        k(   29) = (  -0.2222222   0.6666667   0.0000000), wk =   0.0658436
        k(   30) = (   0.6666667  -0.2222222   0.8888889), wk =   0.1316872
        k(   31) = (   0.5555556  -0.1111111   0.7777778), wk =   0.1316872
        k(   32) = (   0.4444444   0.0000000   0.6666667), wk =   0.0658436
        k(   33) = (   0.7777778  -0.1111111   1.0000000), wk =   0.0658436
        k(   34) = (   0.6666667  -0.0000000   0.8888889), wk =   0.0658436
        k(   35) = (   0.5555556  -0.1111111   1.0000000), wk =   0.0658436

     Dense  grid:     1917 G-vectors     FFT dimensions: (  18,  18,  18)

     Estimated max dynamical RAM per process >       0.98 MB

     Estimated total dynamical RAM >       4.89 MB

     Initial potential from superposition of free atoms

     starting charge    2.99771, renormalised to    3.00000
     Starting wfcs are    4 randomized atomic wfcs +    2 random wfcs

     total cpu time spent up to now is        0.5 secs

     Self-consistent Calculation

     iteration #  1     ecut=    25.00 Ry     beta= 0.70
     Davidson diagonalization with overlap
     ethr =  1.00E-02,  avg # of iterations =  4.6

     Threshold (ethr) on eigenvalues was too large:
     Diagonalizing with lowered threshold

     Davidson diagonalization with overlap
     ethr =  1.90E-04,  avg # of iterations =  2.0

     total cpu time spent up to now is        0.7 secs

     total energy              =      -5.03640800 Ry
     Harris-Foulkes estimate   =      -5.03776633 Ry
     estimated scf accuracy    <       0.00563949 Ry

     iteration #  2     ecut=    25.00 Ry     beta= 0.70
     Davidson diagonalization with overlap
     ethr =  1.88E-04,  avg # of iterations =  1.0

     total cpu time spent up to now is        0.7 secs

     total energy              =      -5.03639217 Ry
     Harris-Foulkes estimate   =      -5.03648335 Ry
     estimated scf accuracy    <       0.00040060 Ry

     iteration #  3     ecut=    25.00 Ry     beta= 0.70
     Davidson diagonalization with overlap
     ethr =  1.34E-05,  avg # of iterations =  1.8

     total cpu time spent up to now is        0.8 secs

     total energy              =      -5.03641165 Ry
     Harris-Foulkes estimate   =      -5.03641165 Ry
     estimated scf accuracy    <       0.00000150 Ry

     iteration #  4     ecut=    25.00 Ry     beta= 0.70
     Davidson diagonalization with overlap
     ethr =  5.00E-08,  avg # of iterations =  2.9

     total cpu time spent up to now is        0.9 secs

     total energy              =      -5.03641376 Ry
     Harris-Foulkes estimate   =      -5.03641375 Ry
     estimated scf accuracy    <       0.00000010 Ry

     iteration #  5     ecut=    25.00 Ry     beta= 0.70
     Davidson diagonalization with overlap
     ethr =  3.29E-09,  avg # of iterations =  1.0

     total cpu time spent up to now is        1.0 secs

     total energy              =      -5.03641377 Ry
     Harris-Foulkes estimate   =      -5.03641376 Ry
     estimated scf accuracy    <       0.00000005 Ry

     iteration #  6     ecut=    25.00 Ry     beta= 0.70
     Davidson diagonalization with overlap
     ethr =  1.73E-09,  avg # of iterations =  1.1

     total cpu time spent up to now is        1.1 secs

     End of self-consistent calculation

          k = 0.0000 0.0000 0.0000 (   259 PWs)   bands (ev):

    -3.2491  20.4667  20.4667  21.8761  21.8762  21.8762

          k =-0.1111 0.1111-0.1111 (   250 PWs)   bands (ev):

    -2.9148  16.7175  19.6239  19.6239  22.5481  23.2101

          k =-0.2222 0.2222-0.2222 (   244 PWs)   bands (ev):

    -1.9166  12.3292  18.8460  18.8460  22.2287  23.0713

          k =-0.3333 0.3333-0.3333 (   232 PWs)   bands (ev):

    -0.2681   8.3512  18.5935  18.5935  21.1873  21.1873

          k =-0.4444 0.4444-0.4444 (   241 PWs)   bands (ev):

     2.0085   4.8991  18.8901  18.8901  19.7639  19.7639

          k = 0.0000 0.2222 0.0000 (   242 PWs)   bands (ev):

    -2.8035  18.0637  18.0637  18.3553  20.9352  23.1975

          k =-0.1111 0.3333-0.1111 (   235 PWs)   bands (ev):

    -2.0272  13.9722  17.0366  18.5085  20.4073  21.9108

          k =-0.2222 0.4444-0.2222 (   233 PWs)   bands (ev):

    -0.5964   9.8829  16.5731  18.1240  18.3046  24.3513

          k =-0.3333 0.5556-0.3333 (   239 PWs)   bands (ev):

     1.4694   6.2636  16.5156  16.6780  18.4015  22.7307

          k = 0.5556-0.3333 0.5556 (   239 PWs)   bands (ev):

     3.1792   4.1628  15.4234  17.3542  19.1406  21.6966

          k = 0.4444-0.2222 0.4444 (   240 PWs)   bands (ev):

     0.7120   7.4062  14.9292  18.5954  20.4566  21.2113

          k = 0.3333-0.1111 0.3333 (   237 PWs)   bands (ev):

    -1.1450  11.1745  15.0531  20.3523  21.2926  22.3015

          k = 0.2222-0.0000 0.2222 (   245 PWs)   bands (ev):

    -2.3594  14.9988  16.1416  21.3352  22.1250  23.3656

          k = 0.0000 0.4444 0.0000 (   234 PWs)   bands (ev):

    -1.4753  15.7990  15.7990  15.8607  17.4662  19.2182

          k =-0.1111 0.5556-0.1111 (   233 PWs)   bands (ev):

    -0.2687  11.9368  14.9681  15.1359  16.5934  20.2332

          k =-0.2222 0.6667-0.2222 (   238 PWs)   bands (ev):

     1.5750   8.2213  13.0557  15.0451  16.7305  23.2505

          k = 0.6667-0.2222 0.6667 (   239 PWs)   bands (ev):

     4.0158   5.0092  11.7443  15.5282  17.3208  25.0472

          k = 0.5556-0.1111 0.5556 (   236 PWs)   bands (ev):

     2.3298   7.0406  11.0846  16.5846  18.4951  24.3904

          k = 0.4444 0.0000 0.4444 (   234 PWs)   bands (ev):

     0.2770  10.0758  11.5623  18.2117  20.2183  23.9289

          k = 0.0000 0.6667 0.0000 (   238 PWs)   bands (ev):

     0.7095  12.2257  14.1228  14.2763  14.2763  17.7676

          k =-0.1111 0.7778-0.1111 (   233 PWs)   bands (ev):

     2.3202  10.0389  10.7529  13.9926  15.3446  19.1358

          k = 0.7778-0.1111 0.7778 (   233 PWs)   bands (ev):

     4.5125   7.3615   8.6158  14.2823  15.9045  22.5712

          k = 0.6667-0.0000 0.6667 (   236 PWs)   bands (ev):

     4.5581   6.7841   8.2433  15.1457  16.9221  26.4879

          k = 0.0000 0.8889 0.0000 (   230 PWs)   bands (ev):

     3.6703   7.7214  13.2507  13.5155  13.5155  16.9783

          k = 0.8889 0.0000 0.8889 (   230 PWs)   bands (ev):

     5.1433   6.4750  10.3106  13.6120  14.9222  18.7569

          k =-0.2222 0.4444 0.0000 (   233 PWs)   bands (ev):

    -1.0352  12.5471  13.8808  17.8491  19.8761  21.6388

          k =-0.3333 0.5556-0.1111 (   238 PWs)   bands (ev):

     0.6029   9.1140  13.0835  15.7791  20.3084  22.9957

          k = 0.5556-0.3333 0.7778 (   238 PWs)   bands (ev):

     2.8629   5.7302  13.3164  14.3059  20.6840  21.6927

          k =-0.2222 0.6667 0.0000 (   231 PWs)   bands (ev):

     1.1429  10.9015  12.1543  12.8139  18.3127  20.3339

          k = 0.6667-0.2222 0.8889 (   235 PWs)   bands (ev):

     3.1751   7.8637  10.8708  11.9621  19.1974  23.0185

          k = 0.5556-0.1111 0.7778 (   237 PWs)   bands (ev):

     4.8583   5.7977   9.8323  12.5861  20.0114  24.2307

          k = 0.4444 0.0000 0.6667 (   239 PWs)   bands (ev):

     2.4353   8.4283   9.9103  13.8844  21.2934  23.1688

          k = 0.7778-0.1111 1.0000 (   234 PWs)   bands (ev):

     4.0928   8.1322  10.0767  11.5423  17.5065  19.6155

          k = 0.6667-0.0000 0.8889 (   232 PWs)   bands (ev):

     5.9630   7.1624   7.6445  11.5123  18.8076  22.7066

          k = 0.5556-0.1111 1.0000 (   241 PWs)   bands (ev):

     5.3509   7.6057   8.8647   9.6775  22.4077  23.4082

     the Fermi energy is     7.8243 ev

!    total energy              =      -5.03641377 Ry
     Harris-Foulkes estimate   =      -5.03641377 Ry
     estimated scf accuracy    <          4.1E-10 Ry

     The total energy is the sum of the following terms:

     one-electron contribution =       2.93996651 Ry
     hartree contribution      =       0.00630347 Ry
     xc contribution           =      -2.58831294 Ry
     ewald contribution        =      -5.39395546 Ry
     smearing contrib. (-TS)   =      -0.00041535 Ry

     convergence has been achieved in   6 iterations

     Forces acting on atoms (cartesian axes, Ry/au):

     atom    1 type  1   force =     0.00000000    0.00000000    0.00000000

     Total force =     0.000000     Total SCF correction =     0.000000


     Computing stress (Cartesian axis) and pressure

          total   stress  (Ry/bohr**3)                   (kbar)     P=   -2.50
  -0.00001700   0.00000000   0.00000000         -2.50      0.00      0.00
   0.00000000  -0.00001700  -0.00000000          0.00     -2.50     -0.00
   0.00000000  -0.00000000  -0.00001700          0.00     -0.00     -2.50


     Writing output data file Al.save/

     init_run     :      0.07s CPU      0.08s WALL (       1 calls)
     electrons    :      0.53s CPU      0.61s WALL (       1 calls)
     forces       :      0.01s CPU      0.01s WALL (       1 calls)
     stress       :      0.02s CPU      0.02s WALL (       1 calls)

     Called by init_run:
     wfcinit      :      0.02s CPU      0.03s WALL (       1 calls)
     potinit      :      0.00s CPU      0.00s WALL (       1 calls)
     hinit0       :      0.05s CPU      0.05s WALL (       1 calls)

     Called by electrons:
     c_bands      :      0.44s CPU      0.50s WALL (       7 calls)
     sum_band     :      0.08s CPU      0.09s WALL (       7 calls)
     v_of_rho     :      0.01s CPU      0.01s WALL (       7 calls)
     newd         :      0.00s CPU      0.00s WALL (       7 calls)
     mix_rho      :      0.00s CPU      0.00s WALL (       7 calls)

     Called by c_bands:
     init_us_2    :      0.01s CPU      0.01s WALL (     595 calls)
     cegterg      :      0.42s CPU      0.48s WALL (     245 calls)

     Called by sum_band:
     sum_band:bec :      0.00s CPU      0.00s WALL (     245 calls)
     addusdens    :      0.00s CPU      0.00s WALL (       7 calls)

     Called by *egterg:
     h_psi        :      0.33s CPU      0.37s WALL (     782 calls)
     s_psi        :      0.00s CPU      0.01s WALL (     782 calls)
     g_psi        :      0.00s CPU      0.00s WALL (     502 calls)
     cdiaghg      :      0.06s CPU      0.06s WALL (     712 calls)

     Called by h_psi:
     h_psi:pot    :      0.32s CPU      0.37s WALL (     782 calls)
     h_psi:calbec :      0.01s CPU      0.02s WALL (     782 calls)
     vloc_psi     :      0.30s CPU      0.34s WALL (     782 calls)
     add_vuspsi   :      0.00s CPU      0.01s WALL (     782 calls)

     General routines
     calbec       :      0.02s CPU      0.02s WALL (    1202 calls)
     fft          :      0.01s CPU      0.01s WALL (     104 calls)
     ffts         :      0.00s CPU      0.00s WALL (       7 calls)
     fftw         :      0.33s CPU      0.37s WALL (    9032 calls)

     Parallel routines
     fft_scatt_xy :      0.03s CPU      0.04s WALL (    9143 calls)
     fft_scatt_yz :      0.11s CPU      0.12s WALL (    9143 calls)

     PWSCF        :     1.02s CPU         1.17s WALL


   This run was terminated on:  19:57: 5  25Mar2024            

=------------------------------------------------------------------------------=
   JOB DONE.
=------------------------------------------------------------------------------=
