
     Program PWSCF v.6.3MaX starts on 25Mar2024 at 19:55: 1 

     This program is part of the open-source Quantum ESPRESSO suite
     for quantum simulation of materials; please cite
         "P. Giannozzi et al., J. Phys.:Condens. Matter 21 395502 (2009);
         "P. Giannozzi et al., J. Phys.:Condens. Matter 29 465901 (2017);
          URL http://www.quantum-espresso.org", 
     in publications or presentations arising from this work. More details at
     http://www.quantum-espresso.org/quote

     Parallel version (MPI), running on     5 processors

     MPI processes distributed on     1 nodes
     R & G space division:  proc/nbgrp/npool/nimage =       5
     Waiting for input...
     Reading input from standard input

     Current dimensions of program PWSCF are:
     Max number of different atomic species (ntypx) = 10
     Max number of k-points (npk) =  40000
     Max angular momentum in pseudopotentials (lmaxx) =  3
               file Al.pbe-n-kjpaw_psl.1.0.0.UPF: wavefunction(s)  3S 3P renormalized

     Subspace diagonalization in iterative solution of the eigenvalue problem:
     a serial algorithm will be used


     Parallelization info
     --------------------
     sticks:   dense  smooth     PW     G-vecs:    dense   smooth      PW
     Min          24      24     11                  178      178      45
     Max          25      25     11                  181      181      46
     Sum         121     121     55                  893      893     229



     bravais-lattice index     =            2
     lattice parameter (alat)  =       7.6500  a.u.
     unit-cell volume          =     111.9243 (a.u.)^3
     number of atoms/cell      =            1
     number of atomic types    =            1
     number of electrons       =         3.00
     number of Kohn-Sham states=            6
     kinetic-energy cutoff     =      15.0000  Ry
     charge density cutoff     =      60.0000  Ry
     convergence threshold     =      1.0E-08
     mixing beta               =       0.7000
     number of iterations used =            8  plain     mixing
     Exchange-correlation      = SLA PW PBX PBC ( 1  4  3  4 0 0)

     celldm(1)=   7.650000  celldm(2)=   0.000000  celldm(3)=   0.000000
     celldm(4)=   0.000000  celldm(5)=   0.000000  celldm(6)=   0.000000

     crystal axes: (cart. coord. in units of alat)
               a(1) = (  -0.500000   0.000000   0.500000 )  
               a(2) = (   0.000000   0.500000   0.500000 )  
               a(3) = (  -0.500000   0.500000   0.000000 )  

     reciprocal axes: (cart. coord. in units 2 pi/alat)
               b(1) = ( -1.000000 -1.000000  1.000000 )  
               b(2) = (  1.000000  1.000000  1.000000 )  
               b(3) = ( -1.000000  1.000000 -1.000000 )  


     PseudoPot. # 1 for Al read from file:
     /home/lorenzo/pseudos/Al/Al.pbe-n-kjpaw_psl.1.0.0.UPF
     MD5 check sum: 502b6b27b9c6270cab5dd1084b96fa6d
     Pseudo is Projector augmented-wave + core cor, Zval =  3.0
     Generated using "atomic" code by A. Dal Corso v.6.3
     Shape of augmentation charge: PSQ
     Using radial grid of 1135 points,  6 beta functions with: 
                l(1) =   0
                l(2) =   0
                l(3) =   1
                l(4) =   1
                l(5) =   2
                l(6) =   2
     Q(r) pseudized with 0 coefficients 


     atomic species   valence    mass     pseudopotential
        Al             3.00    26.98150     Al( 1.00)

     48 Sym. Ops., with inversion, found



   Cartesian axes

     site n.     atom                  positions (alat units)
         1           Al  tau(   1) = (   0.0000000   0.0000000   0.0000000  )

     number of k points=    29  gaussian smearing, width (Ry)=  0.0100
                       cart. coord. in units 2pi/alat
        k(    1) = (   0.0000000   0.0000000   0.0000000), wk =   0.0039062
        k(    2) = (  -0.1250000   0.1250000  -0.1250000), wk =   0.0312500
        k(    3) = (  -0.2500000   0.2500000  -0.2500000), wk =   0.0312500
        k(    4) = (  -0.3750000   0.3750000  -0.3750000), wk =   0.0312500
        k(    5) = (   0.5000000  -0.5000000   0.5000000), wk =   0.0156250
        k(    6) = (   0.0000000   0.2500000   0.0000000), wk =   0.0234375
        k(    7) = (  -0.1250000   0.3750000  -0.1250000), wk =   0.0937500
        k(    8) = (  -0.2500000   0.5000000  -0.2500000), wk =   0.0937500
        k(    9) = (   0.6250000  -0.3750000   0.6250000), wk =   0.0937500
        k(   10) = (   0.5000000  -0.2500000   0.5000000), wk =   0.0937500
        k(   11) = (   0.3750000  -0.1250000   0.3750000), wk =   0.0937500
        k(   12) = (   0.2500000   0.0000000   0.2500000), wk =   0.0468750
        k(   13) = (   0.0000000   0.5000000   0.0000000), wk =   0.0234375
        k(   14) = (  -0.1250000   0.6250000  -0.1250000), wk =   0.0937500
        k(   15) = (   0.7500000  -0.2500000   0.7500000), wk =   0.0937500
        k(   16) = (   0.6250000  -0.1250000   0.6250000), wk =   0.0937500
        k(   17) = (   0.5000000   0.0000000   0.5000000), wk =   0.0468750
        k(   18) = (   0.0000000   0.7500000   0.0000000), wk =   0.0234375
        k(   19) = (   0.8750000  -0.1250000   0.8750000), wk =   0.0937500
        k(   20) = (   0.7500000   0.0000000   0.7500000), wk =   0.0468750
        k(   21) = (   0.0000000  -1.0000000   0.0000000), wk =   0.0117188
        k(   22) = (  -0.2500000   0.5000000   0.0000000), wk =   0.0937500
        k(   23) = (   0.6250000  -0.3750000   0.8750000), wk =   0.1875000
        k(   24) = (   0.5000000  -0.2500000   0.7500000), wk =   0.0937500
        k(   25) = (   0.7500000  -0.2500000   1.0000000), wk =   0.0937500
        k(   26) = (   0.6250000  -0.1250000   0.8750000), wk =   0.1875000
        k(   27) = (   0.5000000   0.0000000   0.7500000), wk =   0.0937500
        k(   28) = (  -0.2500000  -1.0000000   0.0000000), wk =   0.0468750
        k(   29) = (  -0.5000000  -1.0000000   0.0000000), wk =   0.0234375

     Dense  grid:      893 G-vectors     FFT dimensions: (  15,  15,  15)

     Estimated max dynamical RAM per process >       1.50 MB

     Estimated total dynamical RAM >       7.51 MB

     Initial potential from superposition of free atoms

     starting charge    2.99771, renormalised to    3.00000
     Starting wfcs are    4 randomized atomic wfcs +    2 random wfcs
     Checking if some PAW data can be deallocated... 

     total cpu time spent up to now is        0.9 secs

     Self-consistent Calculation

     iteration #  1     ecut=    15.00 Ry     beta= 0.70
     Davidson diagonalization with overlap
     ethr =  1.00E-02,  avg # of iterations =  4.5

     Threshold (ethr) on eigenvalues was too large:
     Diagonalizing with lowered threshold

     Davidson diagonalization with overlap
     ethr =  1.84E-04,  avg # of iterations =  1.7

     total cpu time spent up to now is        1.1 secs

     total energy              =     -39.50136538 Ry
     Harris-Foulkes estimate   =     -39.50248804 Ry
     estimated scf accuracy    <       0.00546681 Ry

     iteration #  2     ecut=    15.00 Ry     beta= 0.70
     Davidson diagonalization with overlap
     ethr =  1.82E-04,  avg # of iterations =  1.2

     total cpu time spent up to now is        1.3 secs

     total energy              =     -39.50132119 Ry
     Harris-Foulkes estimate   =     -39.50140920 Ry
     estimated scf accuracy    <       0.00040740 Ry

     iteration #  3     ecut=    15.00 Ry     beta= 0.70
     Davidson diagonalization with overlap
     ethr =  1.36E-05,  avg # of iterations =  1.5

     total cpu time spent up to now is        1.4 secs

     total energy              =     -39.50132982 Ry
     Harris-Foulkes estimate   =     -39.50132996 Ry
     estimated scf accuracy    <       0.00000049 Ry

     iteration #  4     ecut=    15.00 Ry     beta= 0.70
     Davidson diagonalization with overlap
     ethr =  1.64E-08,  avg # of iterations =  3.0

     total cpu time spent up to now is        1.6 secs

     total energy              =     -39.50133115 Ry
     Harris-Foulkes estimate   =     -39.50133116 Ry
     estimated scf accuracy    <       0.00000002 Ry

     iteration #  5     ecut=    15.00 Ry     beta= 0.70
     Davidson diagonalization with overlap
     ethr =  7.05E-10,  avg # of iterations =  1.2

     total cpu time spent up to now is        1.7 secs

     End of self-consistent calculation

          k = 0.0000 0.0000 0.0000 (   113 PWs)   bands (ev):

    -3.2445  20.5277  20.5277  21.8972  21.8972  21.8972

          k =-0.1250 0.1250-0.1250 (   116 PWs)   bands (ev):

    -2.8218  16.1737  19.5396  19.5396  22.5521  23.4791

          k =-0.2500 0.2500-0.2500 (   113 PWs)   bands (ev):

    -1.5600  11.3027  18.7557  18.7557  22.2172  22.6186

          k =-0.3750 0.3750-0.3750 (   114 PWs)   bands (ev):

     0.5186   6.9980  18.6619  18.6619  20.6192  20.6193

          k = 0.5000-0.5000 0.5000 (   108 PWs)   bands (ev):

     3.2806   3.4903  19.2149  19.2149  19.3711  19.3711

          k = 0.0000 0.2500 0.0000 (   117 PWs)   bands (ev):

    -2.6812  17.7607  17.7607  18.0577  20.7476  22.5131

          k =-0.1250 0.3750-0.1250 (   113 PWs)   bands (ev):

    -1.6997  13.1632  16.6934  18.2305  19.4617  21.9871

          k =-0.2500 0.5000-0.2500 (   109 PWs)   bands (ev):

     0.1049   8.6971  16.3440  17.0867  18.0617  24.1176

          k = 0.6250-0.3750 0.6250 (   112 PWs)   bands (ev):

     2.7001   4.8692  15.4480  16.7157  18.5003  22.5870

          k = 0.5000-0.2500 0.5000 (   109 PWs)   bands (ev):

     1.7509   6.0628  14.5668  17.8155  19.6907  21.7482

          k = 0.3750-0.1250 0.3750 (   107 PWs)   bands (ev):

    -0.5863  10.0992  14.4664  19.6220  21.5822  21.6124

          k = 0.2500 0.0000 0.2500 (   117 PWs)   bands (ev):

    -2.1198  14.3091  15.5405  21.6283  21.8566  23.2368

          k = 0.0000 0.5000 0.0000 (   101 PWs)   bands (ev):

    -1.0027  15.3694  15.3694  15.3860  16.1303  18.8337

          k =-0.1250 0.6250-0.1250 (   114 PWs)   bands (ev):

     0.5167  11.0834  13.4391  14.7631  16.2478  20.2529

          k = 0.7500-0.2500 0.7500 (   110 PWs)   bands (ev):

     2.8301   7.1099  11.5134  14.8896  16.5921  23.9470

          k = 0.6250-0.1250 0.6250 (   107 PWs)   bands (ev):

     3.7770   5.8904  10.3913  15.7441  17.5895  25.5433

          k = 0.5000 0.0000 0.5000 (   107 PWs)   bands (ev):

     1.2041   9.1067  10.6053  17.3269  19.3092  24.9185

          k = 0.0000 0.7500 0.0000 (   112 PWs)   bands (ev):

     1.7440  10.4464  13.7029  13.9153  13.9153  17.3977

          k = 0.8750-0.1250 0.8750 (   108 PWs)   bands (ev):

     3.7421   8.2369  10.0724  13.7961  15.1850  19.3175

          k = 0.7500 0.0000 0.7500 (   110 PWs)   bands (ev):

     5.9820   6.5095   7.4578  14.4047  16.0606  23.5274

          k = 0.0000-1.0000 0.0000 (   116 PWs)   bands (ev):

     4.9440   6.2649  13.1337  13.4324  13.4324  16.8876

          k =-0.2500 0.5000 0.0000 (   110 PWs)   bands (ev):

    -0.4481  11.7178  13.1051  16.6349  20.0225  21.7480

          k = 0.6250-0.3750 0.8750 (   109 PWs)   bands (ev):

     1.6131   8.0002  12.4341  14.4933  20.6347  22.7242

          k = 0.5000-0.2500 0.7500 (   112 PWs)   bands (ev):

     4.3265   4.5793  12.8360  13.2877  21.1330  21.6106

          k = 0.7500-0.2500 1.0000 (   107 PWs)   bands (ev):

     2.2881  10.1511  10.8642  11.7334  18.5237  20.4961

          k = 0.6250-0.1250 0.8750 (   108 PWs)   bands (ev):

     4.8073   6.9367   9.3182  11.4718  19.6974  23.8245

          k = 0.5000 0.0000 0.7500 (   109 PWs)   bands (ev):

     3.9077   7.5425   9.0071  12.5788  20.9092  24.1889

          k =-0.2500-1.0000 0.0000 (   108 PWs)   bands (ev):

     5.4627   6.8063   9.6275  11.1221  18.0059  20.0400

          k =-0.5000-1.0000 0.0000 (   108 PWs)   bands (ev):

     7.0218   7.0218   8.0450   8.9398  23.7101  24.1738

     the Fermi energy is     7.8956 ev

!    total energy              =     -39.50133115 Ry
     Harris-Foulkes estimate   =     -39.50133115 Ry
     estimated scf accuracy    <          5.7E-10 Ry

     total all-electron energy =      -485.644111 Ry

     The total energy is the sum of the following terms:

     one-electron contribution =       3.15438332 Ry
     hartree contribution      =       0.00612970 Ry
     xc contribution           =      -2.58833372 Ry
     ewald contribution        =      -5.39395544 Ry
     one-center paw contrib.   =     -34.67924180 Ry
     smearing contrib. (-TS)   =      -0.00031322 Ry

     convergence has been achieved in   5 iterations

     Forces acting on atoms (cartesian axes, Ry/au):

     atom    1 type  1   force =     0.00000000    0.00000000    0.00000000

     Total force =     0.000000     Total SCF correction =     0.000000


     Computing stress (Cartesian axis) and pressure

          total   stress  (Ry/bohr**3)                   (kbar)     P=   -3.99
  -0.00002710  -0.00000000  -0.00000000         -3.99     -0.00     -0.00
  -0.00000000  -0.00002710   0.00000000         -0.00     -3.99      0.00
  -0.00000000   0.00000000  -0.00002710         -0.00      0.00     -3.99


     Writing output data file Al.save/

     init_run     :      0.18s CPU      0.20s WALL (       1 calls)
     electrons    :      0.73s CPU      0.85s WALL (       1 calls)
     forces       :      0.01s CPU      0.01s WALL (       1 calls)
     stress       :      0.02s CPU      0.02s WALL (       1 calls)

     Called by init_run:
     wfcinit      :      0.01s CPU      0.02s WALL (       1 calls)
     potinit      :      0.10s CPU      0.11s WALL (       1 calls)
     hinit0       :      0.06s CPU      0.06s WALL (       1 calls)

     Called by electrons:
     c_bands      :      0.24s CPU      0.28s WALL (       6 calls)
     sum_band     :      0.04s CPU      0.05s WALL (       6 calls)
     v_of_rho     :      0.00s CPU      0.00s WALL (       6 calls)
     newd         :      0.01s CPU      0.01s WALL (       6 calls)
     PAW_pot      :      0.53s CPU      0.60s WALL (       6 calls)
     mix_rho      :      0.00s CPU      0.00s WALL (       6 calls)

     Called by c_bands:
     init_us_2    :      0.01s CPU      0.01s WALL (     435 calls)
     cegterg      :      0.22s CPU      0.26s WALL (     174 calls)

     Called by sum_band:
     sum_band:bec :      0.00s CPU      0.00s WALL (     174 calls)
     addusdens    :      0.01s CPU      0.01s WALL (       6 calls)

     Called by *egterg:
     h_psi        :      0.15s CPU      0.18s WALL (     579 calls)
     s_psi        :      0.01s CPU      0.01s WALL (     579 calls)
     g_psi        :      0.00s CPU      0.00s WALL (     376 calls)
     cdiaghg      :      0.04s CPU      0.04s WALL (     521 calls)

     Called by h_psi:
     h_psi:pot    :      0.15s CPU      0.18s WALL (     579 calls)
     h_psi:calbec :      0.01s CPU      0.01s WALL (     579 calls)
     vloc_psi     :      0.13s CPU      0.15s WALL (     579 calls)
     add_vuspsi   :      0.00s CPU      0.01s WALL (     579 calls)

     General routines
     calbec       :      0.02s CPU      0.02s WALL (     898 calls)
     fft          :      0.00s CPU      0.00s WALL (      93 calls)
     ffts         :      0.00s CPU      0.00s WALL (       6 calls)
     fftw         :      0.14s CPU      0.17s WALL (    6524 calls)

     Parallel routines
     fft_scatt_xy :      0.01s CPU      0.02s WALL (    6623 calls)
     fft_scatt_yz :      0.06s CPU      0.07s WALL (    6623 calls)

     PWSCF        :     1.63s CPU         1.84s WALL


   This run was terminated on:  19:55: 3  25Mar2024            

=------------------------------------------------------------------------------=
   JOB DONE.
=------------------------------------------------------------------------------=
