
     Program PWSCF v.6.3MaX starts on 25Mar2024 at 20:12:16 

     This program is part of the open-source Quantum ESPRESSO suite
     for quantum simulation of materials; please cite
         "P. Giannozzi et al., J. Phys.:Condens. Matter 21 395502 (2009);
         "P. Giannozzi et al., J. Phys.:Condens. Matter 29 465901 (2017);
          URL http://www.quantum-espresso.org", 
     in publications or presentations arising from this work. More details at
     http://www.quantum-espresso.org/quote

     Parallel version (MPI), running on     5 processors

     MPI processes distributed on     1 nodes
     R & G space division:  proc/nbgrp/npool/nimage =       5
     Waiting for input...
     Reading input from standard input

     Current dimensions of program PWSCF are:
     Max number of different atomic species (ntypx) = 10
     Max number of k-points (npk) =  40000
     Max angular momentum in pseudopotentials (lmaxx) =  3
               file Al.pbe-nl-kjpaw_psl.1.0.0.UPF: wavefunction(s)  3S 3P renormalized

     Subspace diagonalization in iterative solution of the eigenvalue problem:
     a serial algorithm will be used


     Parallelization info
     --------------------
     sticks:   dense  smooth     PW     G-vecs:    dense   smooth      PW
     Min         135     135     42                 2387     2387     416
     Max         139     139     43                 2387     2387     418
     Sum         685     685    211                11935    11935    2085



     bravais-lattice index     =            2
     lattice parameter (alat)  =       7.6500  a.u.
     unit-cell volume          =     111.9243 (a.u.)^3
     number of atoms/cell      =            1
     number of atomic types    =            1
     number of electrons       =         3.00
     number of Kohn-Sham states=            6
     kinetic-energy cutoff     =      85.0000  Ry
     charge density cutoff     =     340.0000  Ry
     convergence threshold     =      1.0E-08
     mixing beta               =       0.7000
     number of iterations used =            8  plain     mixing
     Exchange-correlation      = SLA PW PBX PBC ( 1  4  3  4 0 0)

     celldm(1)=   7.650000  celldm(2)=   0.000000  celldm(3)=   0.000000
     celldm(4)=   0.000000  celldm(5)=   0.000000  celldm(6)=   0.000000

     crystal axes: (cart. coord. in units of alat)
               a(1) = (  -0.500000   0.000000   0.500000 )  
               a(2) = (   0.000000   0.500000   0.500000 )  
               a(3) = (  -0.500000   0.500000   0.000000 )  

     reciprocal axes: (cart. coord. in units 2 pi/alat)
               b(1) = ( -1.000000 -1.000000  1.000000 )  
               b(2) = (  1.000000  1.000000  1.000000 )  
               b(3) = ( -1.000000  1.000000 -1.000000 )  


     PseudoPot. # 1 for Al read from file:
     /home/lorenzo/pseudos/Al/Al.pbe-nl-kjpaw_psl.1.0.0.UPF
     MD5 check sum: 8cf6d98cc7ef3f4b729b574060f3a10f
     Pseudo is Projector augmented-wave + core cor, Zval =  3.0
     Generated using "atomic" code by A. Dal Corso v.6.3
     Shape of augmentation charge: PSQ
     Using radial grid of 1135 points,  4 beta functions with: 
                l(1) =   0
                l(2) =   0
                l(3) =   1
                l(4) =   1
     Q(r) pseudized with 0 coefficients 


     atomic species   valence    mass     pseudopotential
        Al             3.00    26.98150     Al( 1.00)

     48 Sym. Ops., with inversion, found



   Cartesian axes

     site n.     atom                  positions (alat units)
         1           Al  tau(   1) = (   0.0000000   0.0000000   0.0000000  )

     number of k points=    20  gaussian smearing, width (Ry)=  0.0100
                       cart. coord. in units 2pi/alat
        k(    1) = (   0.0000000   0.0000000   0.0000000), wk =   0.0058309
        k(    2) = (  -0.1428571   0.1428571  -0.1428571), wk =   0.0466472
        k(    3) = (  -0.2857143   0.2857143  -0.2857143), wk =   0.0466472
        k(    4) = (  -0.4285714   0.4285714  -0.4285714), wk =   0.0466472
        k(    5) = (   0.0000000   0.2857143   0.0000000), wk =   0.0349854
        k(    6) = (  -0.1428571   0.4285714  -0.1428571), wk =   0.1399417
        k(    7) = (  -0.2857143   0.5714286  -0.2857143), wk =   0.1399417
        k(    8) = (   0.5714286  -0.2857143   0.5714286), wk =   0.1399417
        k(    9) = (   0.4285714  -0.1428571   0.4285714), wk =   0.1399417
        k(   10) = (   0.2857143  -0.0000000   0.2857143), wk =   0.0699708
        k(   11) = (   0.0000000   0.5714286   0.0000000), wk =   0.0349854
        k(   12) = (  -0.1428571   0.7142857  -0.1428571), wk =   0.1399417
        k(   13) = (   0.7142857  -0.1428571   0.7142857), wk =   0.1399417
        k(   14) = (   0.5714286   0.0000000   0.5714286), wk =   0.0699708
        k(   15) = (   0.0000000   0.8571429   0.0000000), wk =   0.0349854
        k(   16) = (   0.8571429  -0.0000000   0.8571429), wk =   0.0699708
        k(   17) = (  -0.2857143   0.5714286   0.0000000), wk =   0.1399417
        k(   18) = (   0.5714286  -0.2857143   0.8571429), wk =   0.2798834
        k(   19) = (   0.7142857  -0.1428571   1.0000000), wk =   0.1399417
        k(   20) = (   0.5714286   0.0000000   0.8571429), wk =   0.1399417

     Dense  grid:    11935 G-vectors     FFT dimensions: (  32,  32,  32)

     Estimated max dynamical RAM per process >       4.43 MB

     Estimated total dynamical RAM >      22.13 MB

     Initial potential from superposition of free atoms

     starting charge    2.99771, renormalised to    3.00000
     Starting wfcs are    4 randomized atomic wfcs +    2 random wfcs
     Checking if some PAW data can be deallocated... 

     total cpu time spent up to now is        0.6 secs

     Self-consistent Calculation

     iteration #  1     ecut=    85.00 Ry     beta= 0.70
     Davidson diagonalization with overlap
     ethr =  1.00E-02,  avg # of iterations =  5.0

     Threshold (ethr) on eigenvalues was too large:
     Diagonalizing with lowered threshold

     Davidson diagonalization with overlap
     ethr =  1.97E-04,  avg # of iterations =  2.1

     total cpu time spent up to now is        1.0 secs

     total energy              =     -39.50621703 Ry
     Harris-Foulkes estimate   =     -39.50768914 Ry
     estimated scf accuracy    <       0.00579282 Ry

     iteration #  2     ecut=    85.00 Ry     beta= 0.70
     Davidson diagonalization with overlap
     ethr =  1.93E-04,  avg # of iterations =  1.0

     total cpu time spent up to now is        1.2 secs

     total energy              =     -39.50621116 Ry
     Harris-Foulkes estimate   =     -39.50630711 Ry
     estimated scf accuracy    <       0.00040995 Ry

     iteration #  3     ecut=    85.00 Ry     beta= 0.70
     Davidson diagonalization with overlap
     ethr =  1.37E-05,  avg # of iterations =  1.6

     total cpu time spent up to now is        1.3 secs

     total energy              =     -39.50623318 Ry
     Harris-Foulkes estimate   =     -39.50623385 Ry
     estimated scf accuracy    <       0.00000152 Ry

     iteration #  4     ecut=    85.00 Ry     beta= 0.70
     Davidson diagonalization with overlap
     ethr =  5.08E-08,  avg # of iterations =  3.0

     total cpu time spent up to now is        1.5 secs

     total energy              =     -39.50623534 Ry
     Harris-Foulkes estimate   =     -39.50623532 Ry
     estimated scf accuracy    <       0.00000012 Ry

     iteration #  5     ecut=    85.00 Ry     beta= 0.70
     Davidson diagonalization with overlap
     ethr =  3.96E-09,  avg # of iterations =  1.1

     total cpu time spent up to now is        1.7 secs

     total energy              =     -39.50623532 Ry
     Harris-Foulkes estimate   =     -39.50623535 Ry
     estimated scf accuracy    <       0.00000007 Ry

     iteration #  6     ecut=    85.00 Ry     beta= 0.70
     Davidson diagonalization with overlap
     ethr =  2.33E-09,  avg # of iterations =  1.0

     total cpu time spent up to now is        1.8 secs

     End of self-consistent calculation

          k = 0.0000 0.0000 0.0000 (  1459 PWs)   bands (ev):

    -3.2512  20.4398  20.4398  21.8766  21.8767  21.8767

          k =-0.1429 0.1429-0.1429 (  1453 PWs)   bands (ev):

    -2.6990  15.4247  19.3378  19.3378  22.4570  23.6722

          k =-0.2857 0.2857-0.2857 (  1459 PWs)   bands (ev):

    -1.0551   9.9905  18.6202  18.6202  21.9247  22.1107

          k =-0.4286 0.4286-0.4286 (  1486 PWs)   bands (ev):

     1.6444   5.3552  18.8015  18.8015  19.9150  19.9150

          k = 0.0000 0.2857 0.0000 (  1471 PWs)   bands (ev):

    -2.5154  17.3317  17.3317  17.5603  20.4526  21.5150

          k =-0.1429 0.4286-0.1429 (  1484 PWs)   bands (ev):

    -1.2369  12.1250  16.2482  17.7901  18.1891  22.0504

          k =-0.2857 0.5714-0.2857 (  1474 PWs)   bands (ev):

     1.1078   7.2520  15.6911  16.1035  17.8395  23.8412

          k = 0.5714-0.2857 0.5714 (  1485 PWs)   bands (ev):

     3.2337   4.4825  14.2091  16.9005  18.7348  22.4610

          k = 0.4286-0.1429 0.4286 (  1467 PWs)   bands (ev):

     0.2108   8.7672  13.7388  18.6331  20.5839  21.9686

          k = 0.2857-0.0000 0.2857 (  1474 PWs)   bands (ev):

    -1.7834  13.4214  14.7357  21.1946  21.8667  23.2130

          k = 0.0000 0.5714 0.0000 (  1487 PWs)   bands (ev):

    -0.3310  14.3840  14.7454  14.8316  14.8316  18.3133

          k =-0.1429 0.7143-0.1429 (  1484 PWs)   bands (ev):

     1.6394  10.0751  11.5527  14.3642  15.8523  20.3381

          k = 0.7143-0.1429 0.7143 (  1490 PWs)   bands (ev):

     4.6012   5.8692   9.7130  14.8423  16.5507  24.8825

          k = 0.5714 0.0000 0.5714 (  1494 PWs)   bands (ev):

     2.5313   7.9893   9.4748  16.2671  18.1523  26.4329

          k = 0.0000 0.8571 0.0000 (  1488 PWs)   bands (ev):

     3.2096   8.3021  13.2994  13.5774  13.5774  17.0310

          k = 0.8571-0.0000 0.8571 (  1492 PWs)   bands (ev):

     5.2771   6.6053   9.4322  13.7364  15.1538  19.7247

          k =-0.2857 0.5714 0.0000 (  1483 PWs)   bands (ev):

     0.3901  10.7086  12.1412  15.0849  20.1791  21.8867

          k = 0.5714-0.2857 0.8571 (  1485 PWs)   bands (ev):

     3.0575   6.7025  11.7057  12.9559  21.0776  22.3424

          k = 0.7143-0.1429 1.0000 (  1472 PWs)   bands (ev):

     3.9104   8.9577   9.3491  10.8951  18.8777  20.8081

          k = 0.5714 0.0000 0.8571 (  1485 PWs)   bands (ev):

     5.9830   6.6320   8.0679  11.1223  20.4968  24.8942

     the Fermi energy is     7.9579 ev

!    total energy              =     -39.50623533 Ry
     Harris-Foulkes estimate   =     -39.50623533 Ry
     estimated scf accuracy    <          8.6E-11 Ry

     total all-electron energy =      -485.649016 Ry

     The total energy is the sum of the following terms:

     one-electron contribution =       3.14703211 Ry
     hartree contribution      =       0.00649306 Ry
     xc contribution           =      -2.58830373 Ry
     ewald contribution        =      -5.39395538 Ry
     one-center paw contrib.   =     -34.67710881 Ry
     smearing contrib. (-TS)   =      -0.00039258 Ry

     convergence has been achieved in   6 iterations

     Forces acting on atoms (cartesian axes, Ry/au):

     atom    1 type  1   force =     0.00000000    0.00000000    0.00000000

     Total force =     0.000000     Total SCF correction =     0.000000


     Computing stress (Cartesian axis) and pressure

          total   stress  (Ry/bohr**3)                   (kbar)     P=   -8.79
  -0.00005977   0.00000000   0.00000000         -8.79      0.00      0.00
   0.00000000  -0.00005977  -0.00000000          0.00     -8.79     -0.00
   0.00000000  -0.00000000  -0.00005977          0.00     -0.00     -8.79


     Writing output data file Al.save/

     init_run     :      0.19s CPU      0.20s WALL (       1 calls)
     electrons    :      1.09s CPU      1.21s WALL (       1 calls)
     forces       :      0.03s CPU      0.03s WALL (       1 calls)
     stress       :      0.08s CPU      0.09s WALL (       1 calls)

     Called by init_run:
     wfcinit      :      0.04s CPU      0.05s WALL (       1 calls)
     potinit      :      0.03s CPU      0.04s WALL (       1 calls)
     hinit0       :      0.10s CPU      0.10s WALL (       1 calls)

     Called by electrons:
     c_bands      :      0.72s CPU      0.79s WALL (       7 calls)
     sum_band     :      0.16s CPU      0.18s WALL (       7 calls)
     v_of_rho     :      0.05s CPU      0.05s WALL (       7 calls)
     newd         :      0.02s CPU      0.02s WALL (       7 calls)
     PAW_pot      :      0.16s CPU      0.19s WALL (       7 calls)
     mix_rho      :      0.00s CPU      0.00s WALL (       7 calls)

     Called by c_bands:
     init_us_2    :      0.03s CPU      0.03s WALL (     340 calls)
     cegterg      :      0.69s CPU      0.76s WALL (     140 calls)

     Called by sum_band:
     sum_band:bec :      0.00s CPU      0.00s WALL (     140 calls)
     addusdens    :      0.02s CPU      0.02s WALL (       7 calls)

     Called by *egterg:
     h_psi        :      0.60s CPU      0.65s WALL (     454 calls)
     s_psi        :      0.01s CPU      0.01s WALL (     454 calls)
     g_psi        :      0.00s CPU      0.00s WALL (     294 calls)
     cdiaghg      :      0.03s CPU      0.04s WALL (     414 calls)

     Called by h_psi:
     h_psi:pot    :      0.59s CPU      0.65s WALL (     454 calls)
     h_psi:calbec :      0.02s CPU      0.03s WALL (     454 calls)
     vloc_psi     :      0.56s CPU      0.61s WALL (     454 calls)
     add_vuspsi   :      0.01s CPU      0.01s WALL (     454 calls)

     General routines
     calbec       :      0.04s CPU      0.04s WALL (     694 calls)
     fft          :      0.03s CPU      0.03s WALL (     104 calls)
     ffts         :      0.00s CPU      0.00s WALL (       7 calls)
     fftw         :      0.62s CPU      0.68s WALL (    5180 calls)

     Parallel routines
     fft_scatt_xy :      0.06s CPU      0.07s WALL (    5291 calls)
     fft_scatt_yz :      0.22s CPU      0.24s WALL (    5291 calls)

     PWSCF        :     1.82s CPU         2.00s WALL


   This run was terminated on:  20:12:18  25Mar2024            

=------------------------------------------------------------------------------=
   JOB DONE.
=------------------------------------------------------------------------------=
