
     Program PWSCF v.6.3MaX starts on 25Mar2024 at 20: 6:26 

     This program is part of the open-source Quantum ESPRESSO suite
     for quantum simulation of materials; please cite
         "P. Giannozzi et al., J. Phys.:Condens. Matter 21 395502 (2009);
         "P. Giannozzi et al., J. Phys.:Condens. Matter 29 465901 (2017);
          URL http://www.quantum-espresso.org", 
     in publications or presentations arising from this work. More details at
     http://www.quantum-espresso.org/quote

     Parallel version (MPI), running on     5 processors

     MPI processes distributed on     1 nodes
     R & G space division:  proc/nbgrp/npool/nimage =       5
     Waiting for input...
     Reading input from standard input

     Current dimensions of program PWSCF are:
     Max number of different atomic species (ntypx) = 10
     Max number of k-points (npk) =  40000
     Max angular momentum in pseudopotentials (lmaxx) =  3
               file Al.pbe-nl-kjpaw_psl.1.0.0.UPF: wavefunction(s)  3S 3P renormalized

     Subspace diagonalization in iterative solution of the eigenvalue problem:
     a serial algorithm will be used


     Parallelization info
     --------------------
     sticks:   dense  smooth     PW     G-vecs:    dense   smooth      PW
     Min         103     103     32                 1564     1564     290
     Max         104     104     33                 1565     1565     293
     Sum         517     517    163                 7823     7823    1459



     bravais-lattice index     =            2
     lattice parameter (alat)  =       7.6500  a.u.
     unit-cell volume          =     111.9243 (a.u.)^3
     number of atoms/cell      =            1
     number of atomic types    =            1
     number of electrons       =         3.00
     number of Kohn-Sham states=            6
     kinetic-energy cutoff     =      65.0000  Ry
     charge density cutoff     =     260.0000  Ry
     convergence threshold     =      1.0E-08
     mixing beta               =       0.7000
     number of iterations used =            8  plain     mixing
     Exchange-correlation      = SLA PW PBX PBC ( 1  4  3  4 0 0)

     celldm(1)=   7.650000  celldm(2)=   0.000000  celldm(3)=   0.000000
     celldm(4)=   0.000000  celldm(5)=   0.000000  celldm(6)=   0.000000

     crystal axes: (cart. coord. in units of alat)
               a(1) = (  -0.500000   0.000000   0.500000 )  
               a(2) = (   0.000000   0.500000   0.500000 )  
               a(3) = (  -0.500000   0.500000   0.000000 )  

     reciprocal axes: (cart. coord. in units 2 pi/alat)
               b(1) = ( -1.000000 -1.000000  1.000000 )  
               b(2) = (  1.000000  1.000000  1.000000 )  
               b(3) = ( -1.000000  1.000000 -1.000000 )  


     PseudoPot. # 1 for Al read from file:
     /home/lorenzo/pseudos/Al/Al.pbe-nl-kjpaw_psl.1.0.0.UPF
     MD5 check sum: 8cf6d98cc7ef3f4b729b574060f3a10f
     Pseudo is Projector augmented-wave + core cor, Zval =  3.0
     Generated using "atomic" code by A. Dal Corso v.6.3
     Shape of augmentation charge: PSQ
     Using radial grid of 1135 points,  4 beta functions with: 
                l(1) =   0
                l(2) =   0
                l(3) =   1
                l(4) =   1
     Q(r) pseudized with 0 coefficients 


     atomic species   valence    mass     pseudopotential
        Al             3.00    26.98150     Al( 1.00)

     48 Sym. Ops., with inversion, found



   Cartesian axes

     site n.     atom                  positions (alat units)
         1           Al  tau(   1) = (   0.0000000   0.0000000   0.0000000  )

     number of k points=    29  gaussian smearing, width (Ry)=  0.0100
                       cart. coord. in units 2pi/alat
        k(    1) = (   0.0000000   0.0000000   0.0000000), wk =   0.0039062
        k(    2) = (  -0.1250000   0.1250000  -0.1250000), wk =   0.0312500
        k(    3) = (  -0.2500000   0.2500000  -0.2500000), wk =   0.0312500
        k(    4) = (  -0.3750000   0.3750000  -0.3750000), wk =   0.0312500
        k(    5) = (   0.5000000  -0.5000000   0.5000000), wk =   0.0156250
        k(    6) = (   0.0000000   0.2500000   0.0000000), wk =   0.0234375
        k(    7) = (  -0.1250000   0.3750000  -0.1250000), wk =   0.0937500
        k(    8) = (  -0.2500000   0.5000000  -0.2500000), wk =   0.0937500
        k(    9) = (   0.6250000  -0.3750000   0.6250000), wk =   0.0937500
        k(   10) = (   0.5000000  -0.2500000   0.5000000), wk =   0.0937500
        k(   11) = (   0.3750000  -0.1250000   0.3750000), wk =   0.0937500
        k(   12) = (   0.2500000   0.0000000   0.2500000), wk =   0.0468750
        k(   13) = (   0.0000000   0.5000000   0.0000000), wk =   0.0234375
        k(   14) = (  -0.1250000   0.6250000  -0.1250000), wk =   0.0937500
        k(   15) = (   0.7500000  -0.2500000   0.7500000), wk =   0.0937500
        k(   16) = (   0.6250000  -0.1250000   0.6250000), wk =   0.0937500
        k(   17) = (   0.5000000   0.0000000   0.5000000), wk =   0.0468750
        k(   18) = (   0.0000000   0.7500000   0.0000000), wk =   0.0234375
        k(   19) = (   0.8750000  -0.1250000   0.8750000), wk =   0.0937500
        k(   20) = (   0.7500000   0.0000000   0.7500000), wk =   0.0468750
        k(   21) = (   0.0000000  -1.0000000   0.0000000), wk =   0.0117188
        k(   22) = (  -0.2500000   0.5000000   0.0000000), wk =   0.0937500
        k(   23) = (   0.6250000  -0.3750000   0.8750000), wk =   0.1875000
        k(   24) = (   0.5000000  -0.2500000   0.7500000), wk =   0.0937500
        k(   25) = (   0.7500000  -0.2500000   1.0000000), wk =   0.0937500
        k(   26) = (   0.6250000  -0.1250000   0.8750000), wk =   0.1875000
        k(   27) = (   0.5000000   0.0000000   0.7500000), wk =   0.0937500
        k(   28) = (  -0.2500000  -1.0000000   0.0000000), wk =   0.0468750
        k(   29) = (  -0.5000000  -1.0000000   0.0000000), wk =   0.0234375

     Dense  grid:     7823 G-vectors     FFT dimensions: (  27,  27,  27)

     Estimated max dynamical RAM per process >       3.16 MB

     Estimated total dynamical RAM >      15.82 MB

     Initial potential from superposition of free atoms

     starting charge    2.99771, renormalised to    3.00000
     Starting wfcs are    4 randomized atomic wfcs +    2 random wfcs
     Checking if some PAW data can be deallocated... 

     total cpu time spent up to now is        0.6 secs

     Self-consistent Calculation

     iteration #  1     ecut=    65.00 Ry     beta= 0.70
     Davidson diagonalization with overlap
     ethr =  1.00E-02,  avg # of iterations =  5.0

     Threshold (ethr) on eigenvalues was too large:
     Diagonalizing with lowered threshold

     Davidson diagonalization with overlap
     ethr =  1.94E-04,  avg # of iterations =  1.9

     total cpu time spent up to now is        1.1 secs

     total energy              =     -39.50242196 Ry
     Harris-Foulkes estimate   =     -39.50387875 Ry
     estimated scf accuracy    <       0.00571632 Ry

     iteration #  2     ecut=    65.00 Ry     beta= 0.70
     Davidson diagonalization with overlap
     ethr =  1.91E-04,  avg # of iterations =  1.0

     total cpu time spent up to now is        1.2 secs

     total energy              =     -39.50242009 Ry
     Harris-Foulkes estimate   =     -39.50251412 Ry
     estimated scf accuracy    <       0.00040323 Ry

     iteration #  3     ecut=    65.00 Ry     beta= 0.70
     Davidson diagonalization with overlap
     ethr =  1.34E-05,  avg # of iterations =  2.3

     total cpu time spent up to now is        1.4 secs

     total energy              =     -39.50244159 Ry
     Harris-Foulkes estimate   =     -39.50244222 Ry
     estimated scf accuracy    <       0.00000147 Ry

     iteration #  4     ecut=    65.00 Ry     beta= 0.70
     Davidson diagonalization with overlap
     ethr =  4.89E-08,  avg # of iterations =  3.0

     total cpu time spent up to now is        1.7 secs

     total energy              =     -39.50244355 Ry
     Harris-Foulkes estimate   =     -39.50244354 Ry
     estimated scf accuracy    <       0.00000009 Ry

     iteration #  5     ecut=    65.00 Ry     beta= 0.70
     Davidson diagonalization with overlap
     ethr =  3.12E-09,  avg # of iterations =  1.2

     total cpu time spent up to now is        1.8 secs

     total energy              =     -39.50244354 Ry
     Harris-Foulkes estimate   =     -39.50244356 Ry
     estimated scf accuracy    <       0.00000004 Ry

     iteration #  6     ecut=    65.00 Ry     beta= 0.70
     Davidson diagonalization with overlap
     ethr =  1.17E-09,  avg # of iterations =  1.0

     total cpu time spent up to now is        2.0 secs

     End of self-consistent calculation

          k = 0.0000 0.0000 0.0000 (   965 PWs)   bands (ev):

    -3.2510  20.4402  20.4402  21.8772  21.8773  21.8773

          k =-0.1250 0.1250-0.1250 (   968 PWs)   bands (ev):

    -2.8281  16.1438  19.4852  19.4852  22.5078  23.4217

          k =-0.2500 0.2500-0.2500 (   983 PWs)   bands (ev):

    -1.5666  11.2832  18.7182  18.7182  22.1535  22.5468

          k =-0.3750 0.3750-0.3750 (   990 PWs)   bands (ev):

     0.5119   6.9888  18.6261  18.6261  20.5677  20.5677

          k = 0.5000-0.5000 0.5000 (   978 PWs)   bands (ev):

     3.2764   3.4804  19.1970  19.1970  19.2885  19.2885

          k = 0.0000 0.2500 0.0000 (   974 PWs)   bands (ev):

    -2.6874  17.7286  17.7286  17.9918  20.7290  22.4402

          k =-0.1250 0.3750-0.1250 (   984 PWs)   bands (ev):

    -1.7063  13.1405  16.6655  18.1845  19.4127  21.9350

          k =-0.2500 0.5000-0.2500 (   988 PWs)   bands (ev):

     0.0983   8.6850  16.3177  17.0443  18.0197  24.0267

          k = 0.6250-0.3750 0.6250 (   994 PWs)   bands (ev):

     2.6936   4.8614  15.4205  16.6893  18.4571  22.5185

          k = 0.5000-0.2500 0.5000 (   992 PWs)   bands (ev):

     1.7444   6.0539  14.5408  17.7809  19.6378  21.6784

          k = 0.3750-0.1250 0.3750 (   982 PWs)   bands (ev):

    -0.5930  10.0838  14.4413  19.5724  21.5193  21.5271

          k = 0.2500 0.0000 0.2500 (   985 PWs)   bands (ev):

    -2.1259  14.2867  15.5165  21.5336  21.8243  23.1610

          k = 0.0000 0.5000 0.0000 (   998 PWs)   bands (ev):

    -1.0097  15.3280  15.3415  15.3415  16.0863  18.8002

          k =-0.1250 0.6250-0.1250 (   997 PWs)   bands (ev):

     0.5103  11.0692  13.4198  14.7442  16.2135  20.2166

          k = 0.7500-0.2500 0.7500 (   998 PWs)   bands (ev):

     2.8234   7.1002  11.4972  14.8706  16.5543  23.8800

          k = 0.6250-0.1250 0.6250 (   989 PWs)   bands (ev):

     3.7702   5.8818  10.3757  15.7209  17.5425  25.4295

          k = 0.5000 0.0000 0.5000 (   983 PWs)   bands (ev):

     1.1976   9.0936  10.5894  17.2947  19.2543  25.4035

          k = 0.0000 0.7500 0.0000 (   998 PWs)   bands (ev):

     1.7374  10.4323  13.6738  13.9010  13.9010  17.3727

          k = 0.8750-0.1250 0.8750 (   989 PWs)   bands (ev):

     3.7355   8.2247  10.0586  13.7829  15.1513  19.2806

          k = 0.7500 0.0000 0.7500 (   999 PWs)   bands (ev):

     5.9756   6.5015   7.4460  14.3887  16.0302  23.4659

          k = 0.0000-1.0000 0.0000 (   982 PWs)   bands (ev):

     4.9391   6.2537  13.1179  13.4211  13.4211  16.8635

          k =-0.2500 0.5000 0.0000 (   990 PWs)   bands (ev):

    -0.4547  11.6964  13.0878  16.6014  19.9576  21.7092

          k = 0.6250-0.3750 0.8750 (   994 PWs)   bands (ev):

     1.6066   7.9889  12.4158  14.4695  20.5764  22.6563

          k = 0.5000-0.2500 0.7500 (   982 PWs)   bands (ev):

     4.3212   4.5697  12.8164  13.2730  21.0965  21.5322

          k = 0.7500-0.2500 1.0000 (   995 PWs)   bands (ev):

     2.2815  10.1357  10.8462  11.7217  18.4687  20.4604

          k = 0.6250-0.1250 0.8750 (   993 PWs)   bands (ev):

     4.8002   6.9276   9.3050  11.4582  19.6461  23.7648

          k = 0.5000 0.0000 0.7500 (  1002 PWs)   bands (ev):

     3.9007   7.5334   8.9947  12.5624  20.8567  24.0922

          k =-0.2500-1.0000 0.0000 (   988 PWs)   bands (ev):

     5.4571   6.7943   9.6150  11.1102  17.9610  20.0063

          k =-0.5000-1.0000 0.0000 (   992 PWs)   bands (ev):

     7.0138   7.0138   8.0328   8.9280  23.6204  23.6204

     the Fermi energy is     7.8842 ev

!    total energy              =     -39.50244355 Ry
     Harris-Foulkes estimate   =     -39.50244355 Ry
     estimated scf accuracy    <          2.9E-11 Ry

     total all-electron energy =      -485.645224 Ry

     The total energy is the sum of the following terms:

     one-electron contribution =       3.15097248 Ry
     hartree contribution      =       0.00648797 Ry
     xc contribution           =      -2.58842770 Ry
     ewald contribution        =      -5.39395538 Ry
     one-center paw contrib.   =     -34.67720756 Ry
     smearing contrib. (-TS)   =      -0.00031334 Ry

     convergence has been achieved in   6 iterations

     Forces acting on atoms (cartesian axes, Ry/au):

     atom    1 type  1   force =     0.00000000    0.00000000    0.00000000

     Total force =     0.000000     Total SCF correction =     0.000000


     Computing stress (Cartesian axis) and pressure

          total   stress  (Ry/bohr**3)                   (kbar)     P=   -4.05
  -0.00002753   0.00000000   0.00000000         -4.05      0.00      0.00
   0.00000000  -0.00002753  -0.00000000          0.00     -4.05     -0.00
   0.00000000  -0.00000000  -0.00002753          0.00     -0.00     -4.05


     Writing output data file Al.save/

     init_run     :      0.19s CPU      0.20s WALL (       1 calls)
     electrons    :      1.28s CPU      1.38s WALL (       1 calls)
     forces       :      0.03s CPU      0.03s WALL (       1 calls)
     stress       :      0.09s CPU      0.09s WALL (       1 calls)

     Called by init_run:
     wfcinit      :      0.06s CPU      0.06s WALL (       1 calls)
     potinit      :      0.03s CPU      0.03s WALL (       1 calls)
     hinit0       :      0.09s CPU      0.09s WALL (       1 calls)

     Called by electrons:
     c_bands      :      0.91s CPU      0.97s WALL (       7 calls)
     sum_band     :      0.19s CPU      0.20s WALL (       7 calls)
     v_of_rho     :      0.03s CPU      0.03s WALL (       7 calls)
     newd         :      0.01s CPU      0.02s WALL (       7 calls)
     PAW_pot      :      0.16s CPU      0.19s WALL (       7 calls)
     mix_rho      :      0.00s CPU      0.00s WALL (       7 calls)

     Called by c_bands:
     init_us_2    :      0.03s CPU      0.03s WALL (     493 calls)
     cegterg      :      0.87s CPU      0.93s WALL (     203 calls)

     Called by sum_band:
     sum_band:bec :      0.00s CPU      0.00s WALL (     203 calls)
     addusdens    :      0.01s CPU      0.01s WALL (       7 calls)

     Called by *egterg:
     h_psi        :      0.75s CPU      0.80s WALL (     679 calls)
     s_psi        :      0.01s CPU      0.01s WALL (     679 calls)
     g_psi        :      0.00s CPU      0.00s WALL (     447 calls)
     cdiaghg      :      0.06s CPU      0.07s WALL (     621 calls)

     Called by h_psi:
     h_psi:pot    :      0.75s CPU      0.79s WALL (     679 calls)
     h_psi:calbec :      0.03s CPU      0.03s WALL (     679 calls)
     vloc_psi     :      0.70s CPU      0.74s WALL (     679 calls)
     add_vuspsi   :      0.01s CPU      0.01s WALL (     679 calls)

     General routines
     calbec       :      0.05s CPU      0.05s WALL (    1027 calls)
     fft          :      0.02s CPU      0.02s WALL (     104 calls)
     ffts         :      0.00s CPU      0.00s WALL (       7 calls)
     fftw         :      0.79s CPU      0.84s WALL (    7552 calls)

     Parallel routines
     fft_scatt_xy :      0.06s CPU      0.07s WALL (    7663 calls)
     fft_scatt_yz :      0.24s CPU      0.25s WALL (    7663 calls)

     PWSCF        :     2.03s CPU         2.18s WALL


   This run was terminated on:  20: 6:28  25Mar2024            

=------------------------------------------------------------------------------=
   JOB DONE.
=------------------------------------------------------------------------------=
