
     Program PWSCF v.6.3MaX starts on 25Mar2024 at 20: 3:17 

     This program is part of the open-source Quantum ESPRESSO suite
     for quantum simulation of materials; please cite
         "P. Giannozzi et al., J. Phys.:Condens. Matter 21 395502 (2009);
         "P. Giannozzi et al., J. Phys.:Condens. Matter 29 465901 (2017);
          URL http://www.quantum-espresso.org", 
     in publications or presentations arising from this work. More details at
     http://www.quantum-espresso.org/quote

     Parallel version (MPI), running on     5 processors

     MPI processes distributed on     1 nodes
     R & G space division:  proc/nbgrp/npool/nimage =       5
     Waiting for input...
     Reading input from standard input

     Current dimensions of program PWSCF are:
     Max number of different atomic species (ntypx) = 10
     Max number of k-points (npk) =  40000
     Max angular momentum in pseudopotentials (lmaxx) =  3
               file Al.pbe-nl-kjpaw_psl.1.0.0.UPF: wavefunction(s)  3S 3P renormalized

     Subspace diagonalization in iterative solution of the eigenvalue problem:
     a serial algorithm will be used


     Parallelization info
     --------------------
     sticks:   dense  smooth     PW     G-vecs:    dense   smooth      PW
     Min          87      87     27                 1236     1236     207
     Max          89      89     28                 1238     1238     208
     Sum         439     439    139                 6183     6183    1037



     bravais-lattice index     =            2
     lattice parameter (alat)  =       7.6500  a.u.
     unit-cell volume          =     111.9243 (a.u.)^3
     number of atoms/cell      =            1
     number of atomic types    =            1
     number of electrons       =         3.00
     number of Kohn-Sham states=            6
     kinetic-energy cutoff     =      55.0000  Ry
     charge density cutoff     =     220.0000  Ry
     convergence threshold     =      1.0E-08
     mixing beta               =       0.7000
     number of iterations used =            8  plain     mixing
     Exchange-correlation      = SLA PW PBX PBC ( 1  4  3  4 0 0)

     celldm(1)=   7.650000  celldm(2)=   0.000000  celldm(3)=   0.000000
     celldm(4)=   0.000000  celldm(5)=   0.000000  celldm(6)=   0.000000

     crystal axes: (cart. coord. in units of alat)
               a(1) = (  -0.500000   0.000000   0.500000 )  
               a(2) = (   0.000000   0.500000   0.500000 )  
               a(3) = (  -0.500000   0.500000   0.000000 )  

     reciprocal axes: (cart. coord. in units 2 pi/alat)
               b(1) = ( -1.000000 -1.000000  1.000000 )  
               b(2) = (  1.000000  1.000000  1.000000 )  
               b(3) = ( -1.000000  1.000000 -1.000000 )  


     PseudoPot. # 1 for Al read from file:
     /home/lorenzo/pseudos/Al/Al.pbe-nl-kjpaw_psl.1.0.0.UPF
     MD5 check sum: 8cf6d98cc7ef3f4b729b574060f3a10f
     Pseudo is Projector augmented-wave + core cor, Zval =  3.0
     Generated using "atomic" code by A. Dal Corso v.6.3
     Shape of augmentation charge: PSQ
     Using radial grid of 1135 points,  4 beta functions with: 
                l(1) =   0
                l(2) =   0
                l(3) =   1
                l(4) =   1
     Q(r) pseudized with 0 coefficients 


     atomic species   valence    mass     pseudopotential
        Al             3.00    26.98150     Al( 1.00)

     48 Sym. Ops., with inversion, found



   Cartesian axes

     site n.     atom                  positions (alat units)
         1           Al  tau(   1) = (   0.0000000   0.0000000   0.0000000  )

     number of k points=     4  gaussian smearing, width (Ry)=  0.0100
                       cart. coord. in units 2pi/alat
        k(    1) = (   0.0000000   0.0000000   0.0000000), wk =   0.0740741
        k(    2) = (  -0.3333333   0.3333333  -0.3333333), wk =   0.5925926
        k(    3) = (   0.0000000   0.6666667   0.0000000), wk =   0.4444444
        k(    4) = (   0.6666667  -0.0000000   0.6666667), wk =   0.8888889

     Dense  grid:     6183 G-vectors     FFT dimensions: (  25,  25,  25)

     Estimated max dynamical RAM per process >       2.17 MB

     Estimated total dynamical RAM >      10.87 MB

     Initial potential from superposition of free atoms

     starting charge    2.99771, renormalised to    3.00000
     Starting wfcs are    4 randomized atomic wfcs +    2 random wfcs
     Checking if some PAW data can be deallocated... 

     total cpu time spent up to now is        0.5 secs

     Self-consistent Calculation

     iteration #  1     ecut=    55.00 Ry     beta= 0.70
     Davidson diagonalization with overlap
     ethr =  1.00E-02,  avg # of iterations =  5.0

     Threshold (ethr) on eigenvalues was too large:
     Diagonalizing with lowered threshold

     Davidson diagonalization with overlap
     ethr =  2.82E-04,  avg # of iterations =  2.8

     total cpu time spent up to now is        0.6 secs

     total energy              =     -39.46088519 Ry
     Harris-Foulkes estimate   =     -39.46244213 Ry
     estimated scf accuracy    <       0.00833637 Ry

     iteration #  2     ecut=    55.00 Ry     beta= 0.70
     Davidson diagonalization with overlap
     ethr =  2.78E-04,  avg # of iterations =  1.0

     total cpu time spent up to now is        0.7 secs

     total energy              =     -39.46085199 Ry
     Harris-Foulkes estimate   =     -39.46096836 Ry
     estimated scf accuracy    <       0.00063358 Ry

     iteration #  3     ecut=    55.00 Ry     beta= 0.70
     Davidson diagonalization with overlap
     ethr =  2.11E-05,  avg # of iterations =  1.5

     total cpu time spent up to now is        0.7 secs

     total energy              =     -39.46087335 Ry
     Harris-Foulkes estimate   =     -39.46087415 Ry
     estimated scf accuracy    <       0.00000209 Ry

     iteration #  4     ecut=    55.00 Ry     beta= 0.70
     Davidson diagonalization with overlap
     ethr =  6.95E-08,  avg # of iterations =  3.0

     total cpu time spent up to now is        0.8 secs

     total energy              =     -39.46087580 Ry
     Harris-Foulkes estimate   =     -39.46087571 Ry
     estimated scf accuracy    <       0.00000019 Ry

     iteration #  5     ecut=    55.00 Ry     beta= 0.70
     Davidson diagonalization with overlap
     ethr =  6.27E-09,  avg # of iterations =  1.5

     total cpu time spent up to now is        0.8 secs

     total energy              =     -39.46087571 Ry
     Harris-Foulkes estimate   =     -39.46087582 Ry
     estimated scf accuracy    <       0.00000028 Ry

     iteration #  6     ecut=    55.00 Ry     beta= 0.70
     Davidson diagonalization with overlap
     ethr =  6.27E-09,  avg # of iterations =  1.0

     total cpu time spent up to now is        0.9 secs

     End of self-consistent calculation

          k = 0.0000 0.0000 0.0000 (   749 PWs)   bands (ev):

    -3.2436  20.4496  20.4496  21.8781  21.8781  21.8781

          k =-0.3333 0.3333-0.3333 (   769 PWs)   bands (ev):

    -0.2625   8.3551  18.5840  18.5840  21.1670  21.1670

          k = 0.0000 0.6667 0.0000 (   769 PWs)   bands (ev):

     0.7152  12.2258  14.1207  14.2786  14.2786  17.7604

          k = 0.6667-0.0000 0.6667 (   776 PWs)   bands (ev):

     4.5640   6.7925   8.2418  15.1465  16.9146  26.4584

     the Fermi energy is     8.1282 ev

!    total energy              =     -39.46087572 Ry
     Harris-Foulkes estimate   =     -39.46087572 Ry
     estimated scf accuracy    <          6.5E-10 Ry

     total all-electron energy =      -485.603656 Ry

     The total energy is the sum of the following terms:

     one-electron contribution =       3.18811670 Ry
     hartree contribution      =       0.01012919 Ry
     xc contribution           =      -2.58921187 Ry
     ewald contribution        =      -5.39395539 Ry
     one-center paw contrib.   =     -34.67460169 Ry
     smearing contrib. (-TS)   =      -0.00135266 Ry

     convergence has been achieved in   6 iterations

     Forces acting on atoms (cartesian axes, Ry/au):

     atom    1 type  1   force =     0.00000000    0.00000000    0.00000000

     Total force =     0.000000     Total SCF correction =     0.000000


     Computing stress (Cartesian axis) and pressure

          total   stress  (Ry/bohr**3)                   (kbar)     P=  -14.32
  -0.00009735   0.00000000   0.00000000        -14.32      0.00      0.00
   0.00000000  -0.00009735  -0.00000000          0.00    -14.32     -0.00
   0.00000000  -0.00000000  -0.00009735          0.00     -0.00    -14.32


     Writing output data file Al.save/

     init_run     :      0.11s CPU      0.12s WALL (       1 calls)
     electrons    :      0.29s CPU      0.33s WALL (       1 calls)
     forces       :      0.01s CPU      0.01s WALL (       1 calls)
     stress       :      0.03s CPU      0.03s WALL (       1 calls)

     Called by init_run:
     wfcinit      :      0.00s CPU      0.01s WALL (       1 calls)
     potinit      :      0.03s CPU      0.03s WALL (       1 calls)
     hinit0       :      0.07s CPU      0.07s WALL (       1 calls)

     Called by electrons:
     c_bands      :      0.09s CPU      0.10s WALL (       7 calls)
     sum_band     :      0.03s CPU      0.03s WALL (       7 calls)
     v_of_rho     :      0.02s CPU      0.02s WALL (       7 calls)
     newd         :      0.01s CPU      0.01s WALL (       7 calls)
     PAW_pot      :      0.15s CPU      0.19s WALL (       7 calls)
     mix_rho      :      0.00s CPU      0.00s WALL (       7 calls)

     Called by c_bands:
     init_us_2    :      0.00s CPU      0.00s WALL (      68 calls)
     cegterg      :      0.09s CPU      0.10s WALL (      28 calls)

     Called by sum_band:
     sum_band:bec :      0.00s CPU      0.00s WALL (      28 calls)
     addusdens    :      0.01s CPU      0.01s WALL (       7 calls)

     Called by *egterg:
     h_psi        :      0.08s CPU      0.08s WALL (      95 calls)
     s_psi        :      0.00s CPU      0.00s WALL (      95 calls)
     g_psi        :      0.00s CPU      0.00s WALL (      63 calls)
     cdiaghg      :      0.01s CPU      0.01s WALL (      87 calls)

     Called by h_psi:
     h_psi:pot    :      0.08s CPU      0.08s WALL (      95 calls)
     h_psi:calbec :      0.00s CPU      0.00s WALL (      95 calls)
     vloc_psi     :      0.07s CPU      0.08s WALL (      95 calls)
     add_vuspsi   :      0.00s CPU      0.00s WALL (      95 calls)

     General routines
     calbec       :      0.00s CPU      0.00s WALL (     143 calls)
     fft          :      0.02s CPU      0.02s WALL (     104 calls)
     ffts         :      0.00s CPU      0.00s WALL (       7 calls)
     fftw         :      0.08s CPU      0.09s WALL (    1056 calls)

     Parallel routines
     fft_scatt_xy :      0.01s CPU      0.01s WALL (    1167 calls)
     fft_scatt_yz :      0.03s CPU      0.03s WALL (    1167 calls)

     PWSCF        :     0.85s CPU         0.93s WALL


   This run was terminated on:  20: 3:18  25Mar2024            

=------------------------------------------------------------------------------=
   JOB DONE.
=------------------------------------------------------------------------------=
