
     Program PWSCF v.6.3MaX starts on 25Mar2024 at 20: 2:49 

     This program is part of the open-source Quantum ESPRESSO suite
     for quantum simulation of materials; please cite
         "P. Giannozzi et al., J. Phys.:Condens. Matter 21 395502 (2009);
         "P. Giannozzi et al., J. Phys.:Condens. Matter 29 465901 (2017);
          URL http://www.quantum-espresso.org", 
     in publications or presentations arising from this work. More details at
     http://www.quantum-espresso.org/quote

     Parallel version (MPI), running on     5 processors

     MPI processes distributed on     1 nodes
     R & G space division:  proc/nbgrp/npool/nimage =       5
     Waiting for input...
     Reading input from standard input

     Current dimensions of program PWSCF are:
     Max number of different atomic species (ntypx) = 10
     Max number of k-points (npk) =  40000
     Max angular momentum in pseudopotentials (lmaxx) =  3
               file Al.pbe-nl-kjpaw_psl.1.0.0.UPF: wavefunction(s)  3S 3P renormalized

     Subspace diagonalization in iterative solution of the eigenvalue problem:
     a serial algorithm will be used


     Parallelization info
     --------------------
     sticks:   dense  smooth     PW     G-vecs:    dense   smooth      PW
     Min          87      87     30                 1236     1236     227
     Max          89      89     31                 1238     1238     228
     Sum         439     439    151                 6183     6183    1139



     bravais-lattice index     =            2
     lattice parameter (alat)  =       7.6500  a.u.
     unit-cell volume          =     111.9243 (a.u.)^3
     number of atoms/cell      =            1
     number of atomic types    =            1
     number of electrons       =         3.00
     number of Kohn-Sham states=            6
     kinetic-energy cutoff     =      55.0000  Ry
     charge density cutoff     =     220.0000  Ry
     convergence threshold     =      1.0E-08
     mixing beta               =       0.7000
     number of iterations used =            8  plain     mixing
     Exchange-correlation      = SLA PW PBX PBC ( 1  4  3  4 0 0)

     celldm(1)=   7.650000  celldm(2)=   0.000000  celldm(3)=   0.000000
     celldm(4)=   0.000000  celldm(5)=   0.000000  celldm(6)=   0.000000

     crystal axes: (cart. coord. in units of alat)
               a(1) = (  -0.500000   0.000000   0.500000 )  
               a(2) = (   0.000000   0.500000   0.500000 )  
               a(3) = (  -0.500000   0.500000   0.000000 )  

     reciprocal axes: (cart. coord. in units 2 pi/alat)
               b(1) = ( -1.000000 -1.000000  1.000000 )  
               b(2) = (  1.000000  1.000000  1.000000 )  
               b(3) = ( -1.000000  1.000000 -1.000000 )  


     PseudoPot. # 1 for Al read from file:
     /home/lorenzo/pseudos/Al/Al.pbe-nl-kjpaw_psl.1.0.0.UPF
     MD5 check sum: 8cf6d98cc7ef3f4b729b574060f3a10f
     Pseudo is Projector augmented-wave + core cor, Zval =  3.0
     Generated using "atomic" code by A. Dal Corso v.6.3
     Shape of augmentation charge: PSQ
     Using radial grid of 1135 points,  4 beta functions with: 
                l(1) =   0
                l(2) =   0
                l(3) =   1
                l(4) =   1
     Q(r) pseudized with 0 coefficients 


     atomic species   valence    mass     pseudopotential
        Al             3.00    26.98150     Al( 1.00)

     48 Sym. Ops., with inversion, found



   Cartesian axes

     site n.     atom                  positions (alat units)
         1           Al  tau(   1) = (   0.0000000   0.0000000   0.0000000  )

     number of k points=    47  gaussian smearing, width (Ry)=  0.0100
                       cart. coord. in units 2pi/alat
        k(    1) = (   0.0000000   0.0000000   0.0000000), wk =   0.0020000
        k(    2) = (  -0.1000000   0.1000000  -0.1000000), wk =   0.0160000
        k(    3) = (  -0.2000000   0.2000000  -0.2000000), wk =   0.0160000
        k(    4) = (  -0.3000000   0.3000000  -0.3000000), wk =   0.0160000
        k(    5) = (  -0.4000000   0.4000000  -0.4000000), wk =   0.0160000
        k(    6) = (   0.5000000  -0.5000000   0.5000000), wk =   0.0080000
        k(    7) = (   0.0000000   0.2000000   0.0000000), wk =   0.0120000
        k(    8) = (  -0.1000000   0.3000000  -0.1000000), wk =   0.0480000
        k(    9) = (  -0.2000000   0.4000000  -0.2000000), wk =   0.0480000
        k(   10) = (  -0.3000000   0.5000000  -0.3000000), wk =   0.0480000
        k(   11) = (   0.6000000  -0.4000000   0.6000000), wk =   0.0480000
        k(   12) = (   0.5000000  -0.3000000   0.5000000), wk =   0.0480000
        k(   13) = (   0.4000000  -0.2000000   0.4000000), wk =   0.0480000
        k(   14) = (   0.3000000  -0.1000000   0.3000000), wk =   0.0480000
        k(   15) = (   0.2000000   0.0000000   0.2000000), wk =   0.0240000
        k(   16) = (   0.0000000   0.4000000   0.0000000), wk =   0.0120000
        k(   17) = (  -0.1000000   0.5000000  -0.1000000), wk =   0.0480000
        k(   18) = (  -0.2000000   0.6000000  -0.2000000), wk =   0.0480000
        k(   19) = (   0.7000000  -0.3000000   0.7000000), wk =   0.0480000
        k(   20) = (   0.6000000  -0.2000000   0.6000000), wk =   0.0480000
        k(   21) = (   0.5000000  -0.1000000   0.5000000), wk =   0.0480000
        k(   22) = (   0.4000000   0.0000000   0.4000000), wk =   0.0240000
        k(   23) = (   0.0000000   0.6000000   0.0000000), wk =   0.0120000
        k(   24) = (  -0.1000000   0.7000000  -0.1000000), wk =   0.0480000
        k(   25) = (   0.8000000  -0.2000000   0.8000000), wk =   0.0480000
        k(   26) = (   0.7000000  -0.1000000   0.7000000), wk =   0.0480000
        k(   27) = (   0.6000000  -0.0000000   0.6000000), wk =   0.0240000
        k(   28) = (   0.0000000   0.8000000   0.0000000), wk =   0.0120000
        k(   29) = (   0.9000000  -0.1000000   0.9000000), wk =   0.0480000
        k(   30) = (   0.8000000   0.0000000   0.8000000), wk =   0.0240000
        k(   31) = (   0.0000000  -1.0000000   0.0000000), wk =   0.0060000
        k(   32) = (  -0.2000000   0.4000000   0.0000000), wk =   0.0480000
        k(   33) = (  -0.3000000   0.5000000  -0.1000000), wk =   0.0960000
        k(   34) = (   0.6000000  -0.4000000   0.8000000), wk =   0.0960000
        k(   35) = (   0.5000000  -0.3000000   0.7000000), wk =   0.0480000
        k(   36) = (  -0.2000000   0.6000000   0.0000000), wk =   0.0480000
        k(   37) = (   0.7000000  -0.3000000   0.9000000), wk =   0.0960000
        k(   38) = (   0.6000000  -0.2000000   0.8000000), wk =   0.0960000
        k(   39) = (   0.5000000  -0.1000000   0.7000000), wk =   0.0960000
        k(   40) = (   0.4000000   0.0000000   0.6000000), wk =   0.0480000
        k(   41) = (   0.8000000  -0.2000000   1.0000000), wk =   0.0480000
        k(   42) = (   0.7000000  -0.1000000   0.9000000), wk =   0.0960000
        k(   43) = (   0.6000000   0.0000000   0.8000000), wk =   0.0480000
        k(   44) = (  -0.2000000  -1.0000000   0.0000000), wk =   0.0240000
        k(   45) = (   0.6000000  -0.2000000   1.0000000), wk =   0.0480000
        k(   46) = (   0.5000000  -0.1000000   0.9000000), wk =   0.0480000
        k(   47) = (  -0.4000000  -1.0000000   0.0000000), wk =   0.0240000

     Dense  grid:     6183 G-vectors     FFT dimensions: (  25,  25,  25)

     Estimated max dynamical RAM per process >       2.78 MB

     Estimated total dynamical RAM >      13.91 MB

     Initial potential from superposition of free atoms

     starting charge    2.99771, renormalised to    3.00000
     Starting wfcs are    4 randomized atomic wfcs +    2 random wfcs
     Checking if some PAW data can be deallocated... 

     total cpu time spent up to now is        0.6 secs

     Self-consistent Calculation

     iteration #  1     ecut=    55.00 Ry     beta= 0.70
     Davidson diagonalization with overlap
     ethr =  1.00E-02,  avg # of iterations =  4.8

     Threshold (ethr) on eigenvalues was too large:
     Diagonalizing with lowered threshold

     Davidson diagonalization with overlap
     ethr =  1.93E-04,  avg # of iterations =  2.1

     total cpu time spent up to now is        1.2 secs

     total energy              =     -39.50146090 Ry
     Harris-Foulkes estimate   =     -39.50300836 Ry
     estimated scf accuracy    <       0.00571674 Ry

     iteration #  2     ecut=    55.00 Ry     beta= 0.70
     Davidson diagonalization with overlap
     ethr =  1.91E-04,  avg # of iterations =  1.0

     total cpu time spent up to now is        1.4 secs

     total energy              =     -39.50146437 Ry
     Harris-Foulkes estimate   =     -39.50156013 Ry
     estimated scf accuracy    <       0.00038652 Ry

     iteration #  3     ecut=    55.00 Ry     beta= 0.70
     Davidson diagonalization with overlap
     ethr =  1.29E-05,  avg # of iterations =  1.8

     total cpu time spent up to now is        1.6 secs

     total energy              =     -39.50148681 Ry
     Harris-Foulkes estimate   =     -39.50148745 Ry
     estimated scf accuracy    <       0.00000148 Ry

     iteration #  4     ecut=    55.00 Ry     beta= 0.70
     Davidson diagonalization with overlap
     ethr =  4.94E-08,  avg # of iterations =  3.1

     total cpu time spent up to now is        1.8 secs

     total energy              =     -39.50148867 Ry
     Harris-Foulkes estimate   =     -39.50148866 Ry
     estimated scf accuracy    <       0.00000009 Ry

     iteration #  5     ecut=    55.00 Ry     beta= 0.70
     Davidson diagonalization with overlap
     ethr =  3.15E-09,  avg # of iterations =  1.1

     total cpu time spent up to now is        2.0 secs

     total energy              =     -39.50148866 Ry
     Harris-Foulkes estimate   =     -39.50148867 Ry
     estimated scf accuracy    <       0.00000003 Ry

     iteration #  6     ecut=    55.00 Ry     beta= 0.70
     Davidson diagonalization with overlap
     ethr =  1.14E-09,  avg # of iterations =  1.0

     total cpu time spent up to now is        2.2 secs

     End of self-consistent calculation

          k = 0.0000 0.0000 0.0000 (   749 PWs)   bands (ev):

    -3.2530  20.4377  20.4377  21.8736  21.8736  21.8736

          k =-0.1000 0.1000-0.1000 (   770 PWs)   bands (ev):

    -2.9822  17.1517  19.7044  19.7044  22.5516  23.0084

          k =-0.2000 0.2000-0.2000 (   776 PWs)   bands (ev):

    -2.1728  13.1692  18.9455  18.9455  22.2725  23.4210

          k =-0.3000 0.3000-0.3000 (   769 PWs)   bands (ev):

    -0.8337   9.4855  18.5947  18.5947  21.6844  21.6844

          k =-0.4000 0.4000-0.4000 (   769 PWs)   bands (ev):

     1.0208   6.2080  18.6892  18.6892  20.2448  20.2448

          k = 0.5000-0.5000 0.5000 (   778 PWs)   bands (ev):

     3.2752   3.4772  19.1926  19.1926  19.2875  19.2875

          k = 0.0000 0.2000 0.0000 (   769 PWs)   bands (ev):

    -2.8921  18.3086  18.3086  18.6079  21.0873  23.7208

          k =-0.1000 0.3000-0.1000 (   781 PWs)   bands (ev):

    -2.2625  14.6342  17.3338  18.7379  21.1267  21.9356

          k =-0.2000 0.4000-0.2000 (   778 PWs)   bands (ev):

    -1.1006  10.8757  16.8104  18.4073  19.1263  23.9569

          k =-0.3000 0.5000-0.3000 (   776 PWs)   bands (ev):

     0.5811   7.4720  16.7446  17.4518  18.4151  22.9351

          k = 0.6000-0.4000 0.6000 (   771 PWs)   bands (ev):

     2.7617   4.5019  16.2579  17.1385  18.8545  21.8047

          k = 0.5000-0.3000 0.5000 (   774 PWs)   bands (ev):

     1.9821   5.4386  15.5356  17.9922  19.7672  21.1118

          k = 0.4000-0.2000 0.4000 (   775 PWs)   bands (ev):

    -0.0361   8.5556  15.2967  19.2936  20.8718  21.1329

          k = 0.3000-0.1000 0.3000 (   780 PWs)   bands (ev):

    -1.5464  12.0677  15.5587  20.8250  21.2328  22.8918

          k = 0.2000 0.0000 0.2000 (   769 PWs)   bands (ev):

    -2.5320  15.5581  16.6297  21.1381  22.1876  23.3760

          k = 0.0000 0.4000 0.0000 (   785 PWs)   bands (ev):

    -1.8145  16.1827  16.1827  16.2814  18.5643  19.5549

          k =-0.1000 0.5000-0.1000 (   780 PWs)   bands (ev):

    -0.8339  12.6699  15.4951  16.2261  16.9225  20.2836

          k =-0.2000 0.6000-0.2000 (   775 PWs)   bands (ev):

     0.6681   9.2053  14.3779  15.2701  16.9323  22.7921

          k = 0.7000-0.3000 0.7000 (   779 PWs)   bands (ev):

     2.6731   6.1145  12.9930  15.5075  17.2605  24.8067

          k = 0.6000-0.2000 0.6000 (   775 PWs)   bands (ev):

     3.4509   5.1725  12.1035  16.2077  18.0545  23.9854

          k = 0.5000-0.1000 0.5000 (   773 PWs)   bands (ev):

     1.2831   8.0737  11.7533  17.3698  19.3186  23.5847

          k = 0.4000 0.0000 0.4000 (   770 PWs)   bands (ev):

    -0.3901  10.9225  12.3882  18.9841  21.0027  23.2245

          k = 0.0000 0.6000 0.0000 (   781 PWs)   bands (ev):

    -0.0371  13.7198  14.5337  14.6475  14.6475  18.1328

          k =-0.1000 0.7000-0.1000 (   774 PWs)   bands (ev):

     1.2796  11.2910  11.7196  14.2649  15.5740  19.1171

          k = 0.8000-0.2000 0.8000 (   769 PWs)   bands (ev):

     3.0957   8.1845  10.1165  14.3455  15.9345  21.9572

          k = 0.7000-0.1000 0.7000 (   769 PWs)   bands (ev):

     5.2670   5.5203   9.0826  14.8895  16.6116  25.3284

          k = 0.6000-0.0000 0.6000 (   776 PWs)   bands (ev):

     3.1082   7.5929   9.0712  15.8978  17.7484  26.8791

          k = 0.0000 0.8000 0.0000 (   773 PWs)   bands (ev):

     2.4036   9.4107  13.4706  13.7256  13.7256  17.1892

          k = 0.9000-0.1000 0.9000 (   765 PWs)   bands (ev):

     3.9992   7.6841  10.6955  13.6500  14.8921  18.5022

          k = 0.8000 0.0000 0.8000 (   764 PWs)   bands (ev):

     5.5994   6.9076   7.9304  14.0376  15.5930  21.6676

          k = 0.0000-1.0000 0.0000 (   774 PWs)   bands (ev):

     4.9363   6.2524  13.1146  13.4185  13.4185  16.8616

          k =-0.2000 0.4000 0.0000 (   774 PWs)   bands (ev):

    -1.4571  13.2514  14.5307  18.8487  19.8083  21.5995

          k =-0.3000 0.5000-0.1000 (   773 PWs)   bands (ev):

    -0.1247  10.0784  13.6726  16.8762  20.1256  23.1600

          k = 0.6000-0.4000 0.8000 (   775 PWs)   bands (ev):

     1.7197   6.8683  13.7017  15.3589  20.3181  21.9944

          k = 0.5000-0.3000 0.7000 (   768 PWs)   bands (ev):

     3.9444   4.1783  14.0955  14.4736  20.7481  21.1317

          k =-0.2000 0.6000 0.0000 (   772 PWs)   bands (ev):

     0.3159  11.5907  12.9026  14.1198  18.2401  20.2946

          k = 0.7000-0.3000 0.9000 (   771 PWs)   bands (ev):

     1.9782   8.7361  12.1224  12.6212  18.9281  22.4875

          k = 0.6000-0.2000 0.8000 (   765 PWs)   bands (ev):

     4.1243   5.8519  11.0873  12.7905  19.4687  24.0370

          k = 0.5000-0.1000 0.7000 (   765 PWs)   bands (ev):

     3.3645   6.7259  10.4169  13.6632  20.3882  23.3371

          k = 0.4000 0.0000 0.6000 (   776 PWs)   bands (ev):

     1.3700   9.2575  10.7424  15.0369  21.6960  22.4774

          k = 0.8000-0.2000 1.0000 (   767 PWs)   bands (ev):

     2.7501   9.7275  10.5914  12.0326  17.2667  19.4244

          k = 0.7000-0.1000 0.9000 (   763 PWs)   bands (ev):

     4.6797   7.9799   8.4685  11.7638  18.2940  21.9462

          k = 0.6000 0.0000 0.8000 (   765 PWs)   bands (ev):

     5.4847   6.5955   8.0418  12.4479  19.1630  25.3132

          k =-0.2000-1.0000 0.0000 (   764 PWs)   bands (ev):

     5.2678   6.6001  10.2579  11.6923  16.9398  19.1226

          k = 0.6000-0.2000 1.0000 (   762 PWs)   bands (ev):

     3.7845   8.2587   9.6562  10.8917  21.5622  22.9180

          k = 0.5000-0.1000 0.9000 (   768 PWs)   bands (ev):

     5.9242   6.1545   9.4570  10.0881  22.5295  22.9802

          k =-0.4000-1.0000 0.0000 (   760 PWs)   bands (ev):

     6.2633   7.5899   7.9259   9.5222  21.2457  22.8198

     the Fermi energy is     7.9832 ev

!    total energy              =     -39.50148866 Ry
     Harris-Foulkes estimate   =     -39.50148866 Ry
     estimated scf accuracy    <          1.8E-11 Ry

     total all-electron energy =      -485.644269 Ry

     The total energy is the sum of the following terms:

     one-electron contribution =       3.15173206 Ry
     hartree contribution      =       0.00590833 Ry
     xc contribution           =      -2.58781924 Ry
     ewald contribution        =      -5.39395539 Ry
     one-center paw contrib.   =     -34.67675082 Ry
     smearing contrib. (-TS)   =      -0.00060361 Ry

     convergence has been achieved in   6 iterations

     Forces acting on atoms (cartesian axes, Ry/au):

     atom    1 type  1   force =     0.00000000    0.00000000    0.00000000

     Total force =     0.000000     Total SCF correction =     0.000000


     Computing stress (Cartesian axis) and pressure

          total   stress  (Ry/bohr**3)                   (kbar)     P=   -4.84
  -0.00003293   0.00000000  -0.00000000         -4.84      0.00     -0.00
   0.00000000  -0.00003293   0.00000000          0.00     -4.84      0.00
  -0.00000000   0.00000000  -0.00003293         -0.00      0.00     -4.84


     Writing output data file Al.save/

     init_run     :      0.17s CPU      0.18s WALL (       1 calls)
     electrons    :      1.45s CPU      1.60s WALL (       1 calls)
     forces       :      0.06s CPU      0.06s WALL (       1 calls)
     stress       :      0.07s CPU      0.07s WALL (       1 calls)

     Called by init_run:
     wfcinit      :      0.06s CPU      0.06s WALL (       1 calls)
     potinit      :      0.03s CPU      0.04s WALL (       1 calls)
     hinit0       :      0.07s CPU      0.07s WALL (       1 calls)

     Called by electrons:
     c_bands      :      1.08s CPU      1.17s WALL (       7 calls)
     sum_band     :      0.21s CPU      0.23s WALL (       7 calls)
     v_of_rho     :      0.02s CPU      0.02s WALL (       7 calls)
     newd         :      0.01s CPU      0.01s WALL (       7 calls)
     PAW_pot      :      0.15s CPU      0.18s WALL (       7 calls)
     mix_rho      :      0.00s CPU      0.00s WALL (       7 calls)

     Called by c_bands:
     init_us_2    :      0.04s CPU      0.04s WALL (     799 calls)
     cegterg      :      1.03s CPU      1.13s WALL (     329 calls)

     Called by sum_band:
     sum_band:bec :      0.00s CPU      0.00s WALL (     329 calls)
     addusdens    :      0.01s CPU      0.01s WALL (       7 calls)

     Called by *egterg:
     h_psi        :      0.87s CPU      0.95s WALL (    1078 calls)
     s_psi        :      0.02s CPU      0.02s WALL (    1078 calls)
     g_psi        :      0.00s CPU      0.00s WALL (     702 calls)
     cdiaghg      :      0.08s CPU      0.08s WALL (     984 calls)

     Called by h_psi:
     h_psi:pot    :      0.87s CPU      0.94s WALL (    1078 calls)
     h_psi:calbec :      0.03s CPU      0.03s WALL (    1078 calls)
     vloc_psi     :      0.81s CPU      0.88s WALL (    1078 calls)
     add_vuspsi   :      0.02s CPU      0.02s WALL (    1078 calls)

     General routines
     calbec       :      0.08s CPU      0.09s WALL (    1642 calls)
     fft          :      0.02s CPU      0.02s WALL (     104 calls)
     ffts         :      0.00s CPU      0.00s WALL (       7 calls)
     fftw         :      0.91s CPU      0.99s WALL (   12208 calls)

     Parallel routines
     fft_scatt_xy :      0.08s CPU      0.08s WALL (   12319 calls)
     fft_scatt_yz :      0.22s CPU      0.23s WALL (   12319 calls)

     PWSCF        :     2.20s CPU         2.42s WALL


   This run was terminated on:  20: 2:51  25Mar2024            

=------------------------------------------------------------------------------=
   JOB DONE.
=------------------------------------------------------------------------------=
