
     Program PWSCF v.6.3MaX starts on 25Mar2024 at 19:56:30 

     This program is part of the open-source Quantum ESPRESSO suite
     for quantum simulation of materials; please cite
         "P. Giannozzi et al., J. Phys.:Condens. Matter 21 395502 (2009);
         "P. Giannozzi et al., J. Phys.:Condens. Matter 29 465901 (2017);
          URL http://www.quantum-espresso.org", 
     in publications or presentations arising from this work. More details at
     http://www.quantum-espresso.org/quote

     Parallel version (MPI), running on     5 processors

     MPI processes distributed on     1 nodes
     R & G space division:  proc/nbgrp/npool/nimage =       5
     Waiting for input...
     Reading input from standard input

     Current dimensions of program PWSCF are:
     Max number of different atomic species (ntypx) = 10
     Max number of k-points (npk) =  40000
     Max angular momentum in pseudopotentials (lmaxx) =  3

     Subspace diagonalization in iterative solution of the eigenvalue problem:
     a serial algorithm will be used


     Parallelization info
     --------------------
     sticks:   dense  smooth     PW     G-vecs:    dense   smooth      PW
     Min          39      39     12                  381      381      67
     Max          40      40     13                  384      384      70
     Sum         199     199     61                 1917     1917     339



     bravais-lattice index     =            2
     lattice parameter (alat)  =       7.6500  a.u.
     unit-cell volume          =     111.9243 (a.u.)^3
     number of atoms/cell      =            1
     number of atomic types    =            1
     number of electrons       =         3.00
     number of Kohn-Sham states=            6
     kinetic-energy cutoff     =      25.0000  Ry
     charge density cutoff     =     100.0000  Ry
     convergence threshold     =      1.0E-08
     mixing beta               =       0.7000
     number of iterations used =            8  plain     mixing
     Exchange-correlation      = PBE ( 1  4  3  4 0 0)

     celldm(1)=   7.650000  celldm(2)=   0.000000  celldm(3)=   0.000000
     celldm(4)=   0.000000  celldm(5)=   0.000000  celldm(6)=   0.000000

     crystal axes: (cart. coord. in units of alat)
               a(1) = (  -0.500000   0.000000   0.500000 )  
               a(2) = (   0.000000   0.500000   0.500000 )  
               a(3) = (  -0.500000   0.500000   0.000000 )  

     reciprocal axes: (cart. coord. in units 2 pi/alat)
               b(1) = ( -1.000000 -1.000000  1.000000 )  
               b(2) = (  1.000000  1.000000  1.000000 )  
               b(3) = ( -1.000000  1.000000 -1.000000 )  


     PseudoPot. # 1 for Al read from file:
     /home/lorenzo/pseudos/Al/Al.pbe-nl-rrkjus_psl.1.0.0.UPF
     MD5 check sum: 6db8691240a1c860ce6448702d298c4b
     Pseudo is Ultrasoft + core correction, Zval =  3.0
     Generated using "atomic" code by A. Dal Corso v.6.3
     Using radial grid of 1135 points,  4 beta functions with: 
                l(1) =   0
                l(2) =   0
                l(3) =   1
                l(4) =   1
     Q(r) pseudized with 0 coefficients 


     atomic species   valence    mass     pseudopotential
        Al             3.00    26.98150     Al( 1.00)

     48 Sym. Ops., with inversion, found



   Cartesian axes

     site n.     atom                  positions (alat units)
         1           Al  tau(   1) = (   0.0000000   0.0000000   0.0000000  )

     number of k points=     3  gaussian smearing, width (Ry)=  0.0100
                       cart. coord. in units 2pi/alat
        k(    1) = (   0.0000000   0.0000000   0.0000000), wk =   0.2500000
        k(    2) = (   0.5000000  -0.5000000   0.5000000), wk =   1.0000000
        k(    3) = (   0.0000000  -1.0000000   0.0000000), wk =   0.7500000

     Dense  grid:     1917 G-vectors     FFT dimensions: (  18,  18,  18)

     Estimated max dynamical RAM per process >       0.84 MB

     Estimated total dynamical RAM >       4.20 MB

     Initial potential from superposition of free atoms

     starting charge    2.99771, renormalised to    3.00000
     Starting wfcs are    4 randomized atomic wfcs +    2 random wfcs

     total cpu time spent up to now is        0.5 secs

     Self-consistent Calculation

     iteration #  1     ecut=    25.00 Ry     beta= 0.70
     Davidson diagonalization with overlap
     ethr =  1.00E-02,  avg # of iterations =  5.7

     Threshold (ethr) on eigenvalues was too large:
     Diagonalizing with lowered threshold

     Davidson diagonalization with overlap
     ethr =  2.72E-04,  avg # of iterations =  2.0

     total cpu time spent up to now is        0.6 secs

     total energy              =      -5.08813836 Ry
     Harris-Foulkes estimate   =      -5.08929995 Ry
     estimated scf accuracy    <       0.00812048 Ry

     iteration #  2     ecut=    25.00 Ry     beta= 0.70
     Davidson diagonalization with overlap
     ethr =  2.71E-04,  avg # of iterations =  1.0

     total cpu time spent up to now is        0.6 secs

     total energy              =      -5.08809201 Ry
     Harris-Foulkes estimate   =      -5.08818919 Ry
     estimated scf accuracy    <       0.00065971 Ry

     iteration #  3     ecut=    25.00 Ry     beta= 0.70
     Davidson diagonalization with overlap
     ethr =  2.20E-05,  avg # of iterations =  2.7

     total cpu time spent up to now is        0.6 secs

     total energy              =      -5.08811366 Ry
     Harris-Foulkes estimate   =      -5.08811405 Ry
     estimated scf accuracy    <       0.00000188 Ry

     iteration #  4     ecut=    25.00 Ry     beta= 0.70
     Davidson diagonalization with overlap
     ethr =  6.27E-08,  avg # of iterations =  2.3

     total cpu time spent up to now is        0.6 secs

     total energy              =      -5.08811488 Ry
     Harris-Foulkes estimate   =      -5.08811490 Ry
     estimated scf accuracy    <       0.00000009 Ry

     iteration #  5     ecut=    25.00 Ry     beta= 0.70
     Davidson diagonalization with overlap
     ethr =  3.04E-09,  avg # of iterations =  1.0

     total cpu time spent up to now is        0.6 secs

     End of self-consistent calculation

          k = 0.0000 0.0000 0.0000 (   259 PWs)   bands (ev):

    -3.2361  20.4806  20.4806  21.8876  21.8876  21.8876

          k = 0.5000-0.5000 0.5000 (   242 PWs)   bands (ev):

     3.2864   3.4993  19.2104  19.2104  19.3252  19.3252

          k = 0.0000-1.0000 0.0000 (   230 PWs)   bands (ev):

     4.9529   6.2707  13.1612  13.4303  13.4303  16.8914

     the Fermi energy is     5.6159 ev

!    total energy              =      -5.08811488 Ry
     Harris-Foulkes estimate   =      -5.08811488 Ry
     estimated scf accuracy    <          2.2E-09 Ry

     The total energy is the sum of the following terms:

     one-electron contribution =       2.88633915 Ry
     hartree contribution      =       0.01090056 Ry
     xc contribution           =      -2.59139913 Ry
     ewald contribution        =      -5.39395546 Ry
     smearing contrib. (-TS)   =      -0.00000000 Ry

     convergence has been achieved in   5 iterations

     Forces acting on atoms (cartesian axes, Ry/au):

     atom    1 type  1   force =     0.00000000    0.00000000    0.00000000

     Total force =     0.000000     Total SCF correction =     0.000000


     Computing stress (Cartesian axis) and pressure

          total   stress  (Ry/bohr**3)                   (kbar)     P=  -60.35
  -0.00041028  -0.00000000   0.00000000        -60.35     -0.00      0.00
  -0.00000000  -0.00041028  -0.00000000         -0.00    -60.35     -0.00
   0.00000000  -0.00000000  -0.00041028          0.00     -0.00    -60.35


     Writing output data file Al.save/

     init_run     :      0.07s CPU      0.07s WALL (       1 calls)
     electrons    :      0.09s CPU      0.09s WALL (       1 calls)
     forces       :      0.01s CPU      0.01s WALL (       1 calls)
     stress       :      0.02s CPU      0.02s WALL (       1 calls)

     Called by init_run:
     wfcinit      :      0.01s CPU      0.01s WALL (       1 calls)
     potinit      :      0.00s CPU      0.00s WALL (       1 calls)
     hinit0       :      0.06s CPU      0.06s WALL (       1 calls)

     Called by electrons:
     c_bands      :      0.06s CPU      0.06s WALL (       6 calls)
     sum_band     :      0.01s CPU      0.01s WALL (       6 calls)
     v_of_rho     :      0.01s CPU      0.01s WALL (       6 calls)
     newd         :      0.00s CPU      0.00s WALL (       6 calls)
     mix_rho      :      0.00s CPU      0.00s WALL (       6 calls)

     Called by c_bands:
     init_us_2    :      0.00s CPU      0.00s WALL (      45 calls)
     cegterg      :      0.06s CPU      0.06s WALL (      18 calls)

     Called by sum_band:
     sum_band:bec :      0.00s CPU      0.00s WALL (      18 calls)
     addusdens    :      0.00s CPU      0.00s WALL (       6 calls)

     Called by *egterg:
     h_psi        :      0.04s CPU      0.04s WALL (      65 calls)
     s_psi        :      0.00s CPU      0.00s WALL (      65 calls)
     g_psi        :      0.00s CPU      0.00s WALL (      44 calls)
     cdiaghg      :      0.01s CPU      0.01s WALL (      59 calls)

     Called by h_psi:
     h_psi:pot    :      0.04s CPU      0.04s WALL (      65 calls)
     h_psi:calbec :      0.00s CPU      0.00s WALL (      65 calls)
     vloc_psi     :      0.04s CPU      0.04s WALL (      65 calls)
     add_vuspsi   :      0.00s CPU      0.00s WALL (      65 calls)

     General routines
     calbec       :      0.00s CPU      0.00s WALL (      98 calls)
     fft          :      0.01s CPU      0.01s WALL (      93 calls)
     ffts         :      0.00s CPU      0.00s WALL (       6 calls)
     fftw         :      0.04s CPU      0.04s WALL (     674 calls)

     Parallel routines
     fft_scatt_xy :      0.00s CPU      0.00s WALL (     773 calls)
     fft_scatt_yz :      0.03s CPU      0.03s WALL (     773 calls)

     PWSCF        :     0.65s CPU         0.70s WALL


   This run was terminated on:  19:56:31  25Mar2024            

=------------------------------------------------------------------------------=
   JOB DONE.
=------------------------------------------------------------------------------=
