
     Program PWSCF v.6.3MaX starts on 25Mar2024 at 19:54:20 

     This program is part of the open-source Quantum ESPRESSO suite
     for quantum simulation of materials; please cite
         "P. Giannozzi et al., J. Phys.:Condens. Matter 21 395502 (2009);
         "P. Giannozzi et al., J. Phys.:Condens. Matter 29 465901 (2017);
          URL http://www.quantum-espresso.org", 
     in publications or presentations arising from this work. More details at
     http://www.quantum-espresso.org/quote

     Parallel version (MPI), running on     5 processors

     MPI processes distributed on     1 nodes
     R & G space division:  proc/nbgrp/npool/nimage =       5
     Waiting for input...
     Reading input from standard input

     Current dimensions of program PWSCF are:
     Max number of different atomic species (ntypx) = 10
     Max number of k-points (npk) =  40000
     Max angular momentum in pseudopotentials (lmaxx) =  3
               file Al.pbe-n-kjpaw_psl.1.0.0.UPF: wavefunction(s)  3S 3P renormalized

     Subspace diagonalization in iterative solution of the eigenvalue problem:
     a serial algorithm will be used


     Parallelization info
     --------------------
     sticks:   dense  smooth     PW     G-vecs:    dense   smooth      PW
     Min          24      24     11                  178      178      51
     Max          25      25     11                  181      181      52
     Sum         121     121     55                  893      893     259



     bravais-lattice index     =            2
     lattice parameter (alat)  =       7.6500  a.u.
     unit-cell volume          =     111.9243 (a.u.)^3
     number of atoms/cell      =            1
     number of atomic types    =            1
     number of electrons       =         3.00
     number of Kohn-Sham states=            6
     kinetic-energy cutoff     =      15.0000  Ry
     charge density cutoff     =      60.0000  Ry
     convergence threshold     =      1.0E-08
     mixing beta               =       0.7000
     number of iterations used =            8  plain     mixing
     Exchange-correlation      = SLA PW PBX PBC ( 1  4  3  4 0 0)

     celldm(1)=   7.650000  celldm(2)=   0.000000  celldm(3)=   0.000000
     celldm(4)=   0.000000  celldm(5)=   0.000000  celldm(6)=   0.000000

     crystal axes: (cart. coord. in units of alat)
               a(1) = (  -0.500000   0.000000   0.500000 )  
               a(2) = (   0.000000   0.500000   0.500000 )  
               a(3) = (  -0.500000   0.500000   0.000000 )  

     reciprocal axes: (cart. coord. in units 2 pi/alat)
               b(1) = ( -1.000000 -1.000000  1.000000 )  
               b(2) = (  1.000000  1.000000  1.000000 )  
               b(3) = ( -1.000000  1.000000 -1.000000 )  


     PseudoPot. # 1 for Al read from file:
     /home/lorenzo/pseudos/Al/Al.pbe-n-kjpaw_psl.1.0.0.UPF
     MD5 check sum: 502b6b27b9c6270cab5dd1084b96fa6d
     Pseudo is Projector augmented-wave + core cor, Zval =  3.0
     Generated using "atomic" code by A. Dal Corso v.6.3
     Shape of augmentation charge: PSQ
     Using radial grid of 1135 points,  6 beta functions with: 
                l(1) =   0
                l(2) =   0
                l(3) =   1
                l(4) =   1
                l(5) =   2
                l(6) =   2
     Q(r) pseudized with 0 coefficients 


     atomic species   valence    mass     pseudopotential
        Al             3.00    26.98150     Al( 1.00)

     48 Sym. Ops., with inversion, found



   Cartesian axes

     site n.     atom                  positions (alat units)
         1           Al  tau(   1) = (   0.0000000   0.0000000   0.0000000  )

     number of k points=    56  gaussian smearing, width (Ry)=  0.0100
                       cart. coord. in units 2pi/alat
        k(    1) = (   0.0000000   0.0000000   0.0000000), wk =   0.0015026
        k(    2) = (  -0.0909091   0.0909091  -0.0909091), wk =   0.0120210
        k(    3) = (  -0.1818182   0.1818182  -0.1818182), wk =   0.0120210
        k(    4) = (  -0.2727273   0.2727273  -0.2727273), wk =   0.0120210
        k(    5) = (  -0.3636364   0.3636364  -0.3636364), wk =   0.0120210
        k(    6) = (  -0.4545455   0.4545455  -0.4545455), wk =   0.0120210
        k(    7) = (   0.0000000   0.1818182   0.0000000), wk =   0.0090158
        k(    8) = (  -0.0909091   0.2727273  -0.0909091), wk =   0.0360631
        k(    9) = (  -0.1818182   0.3636364  -0.1818182), wk =   0.0360631
        k(   10) = (  -0.2727273   0.4545455  -0.2727273), wk =   0.0360631
        k(   11) = (  -0.3636364   0.5454545  -0.3636364), wk =   0.0360631
        k(   12) = (   0.5454545  -0.3636364   0.5454545), wk =   0.0360631
        k(   13) = (   0.4545455  -0.2727273   0.4545455), wk =   0.0360631
        k(   14) = (   0.3636364  -0.1818182   0.3636364), wk =   0.0360631
        k(   15) = (   0.2727273  -0.0909091   0.2727273), wk =   0.0360631
        k(   16) = (   0.1818182  -0.0000000   0.1818182), wk =   0.0180316
        k(   17) = (   0.0000000   0.3636364   0.0000000), wk =   0.0090158
        k(   18) = (  -0.0909091   0.4545455  -0.0909091), wk =   0.0360631
        k(   19) = (  -0.1818182   0.5454545  -0.1818182), wk =   0.0360631
        k(   20) = (  -0.2727273   0.6363636  -0.2727273), wk =   0.0360631
        k(   21) = (   0.6363636  -0.2727273   0.6363636), wk =   0.0360631
        k(   22) = (   0.5454545  -0.1818182   0.5454545), wk =   0.0360631
        k(   23) = (   0.4545455  -0.0909091   0.4545455), wk =   0.0360631
        k(   24) = (   0.3636364   0.0000000   0.3636364), wk =   0.0180316
        k(   25) = (   0.0000000   0.5454545   0.0000000), wk =   0.0090158
        k(   26) = (  -0.0909091   0.6363636  -0.0909091), wk =   0.0360631
        k(   27) = (  -0.1818182   0.7272727  -0.1818182), wk =   0.0360631
        k(   28) = (   0.7272727  -0.1818182   0.7272727), wk =   0.0360631
        k(   29) = (   0.6363636  -0.0909091   0.6363636), wk =   0.0360631
        k(   30) = (   0.5454545   0.0000000   0.5454545), wk =   0.0180316
        k(   31) = (   0.0000000   0.7272727   0.0000000), wk =   0.0090158
        k(   32) = (  -0.0909091   0.8181818  -0.0909091), wk =   0.0360631
        k(   33) = (   0.8181818  -0.0909091   0.8181818), wk =   0.0360631
        k(   34) = (   0.7272727   0.0000000   0.7272727), wk =   0.0180316
        k(   35) = (   0.0000000   0.9090909   0.0000000), wk =   0.0090158
        k(   36) = (   0.9090909  -0.0000000   0.9090909), wk =   0.0180316
        k(   37) = (  -0.1818182   0.3636364   0.0000000), wk =   0.0360631
        k(   38) = (  -0.2727273   0.4545455  -0.0909091), wk =   0.0721262
        k(   39) = (  -0.3636364   0.5454545  -0.1818182), wk =   0.0721262
        k(   40) = (   0.5454545  -0.3636364   0.7272727), wk =   0.0721262
        k(   41) = (  -0.1818182   0.5454545   0.0000000), wk =   0.0360631
        k(   42) = (  -0.2727273   0.6363636  -0.0909091), wk =   0.0721262
        k(   43) = (   0.6363636  -0.2727273   0.8181818), wk =   0.0721262
        k(   44) = (   0.5454545  -0.1818182   0.7272727), wk =   0.0721262
        k(   45) = (   0.4545455  -0.0909091   0.6363636), wk =   0.0721262
        k(   46) = (   0.3636364   0.0000000   0.5454545), wk =   0.0360631
        k(   47) = (  -0.1818182   0.7272727   0.0000000), wk =   0.0360631
        k(   48) = (   0.7272727  -0.1818182   0.9090909), wk =   0.0721262
        k(   49) = (   0.6363636  -0.0909091   0.8181818), wk =   0.0721262
        k(   50) = (   0.5454545   0.0000000   0.7272727), wk =   0.0360631
        k(   51) = (   0.8181818  -0.0909091   1.0000000), wk =   0.0360631
        k(   52) = (   0.7272727   0.0000000   0.9090909), wk =   0.0360631
        k(   53) = (   0.6363636  -0.2727273   1.0000000), wk =   0.0360631
        k(   54) = (   0.5454545  -0.1818182   0.9090909), wk =   0.0721262
        k(   55) = (   0.6363636  -0.0909091   1.0000000), wk =   0.0360631
        k(   56) = (   0.5454545   0.0000000   0.9090909), wk =   0.0360631

     Dense  grid:      893 G-vectors     FFT dimensions: (  15,  15,  15)

     Estimated max dynamical RAM per process >       1.56 MB

     Estimated total dynamical RAM >       7.78 MB

     Initial potential from superposition of free atoms

     starting charge    2.99771, renormalised to    3.00000
     Starting wfcs are    4 randomized atomic wfcs +    2 random wfcs
     Checking if some PAW data can be deallocated... 

     total cpu time spent up to now is        0.9 secs

     Self-consistent Calculation

     iteration #  1     ecut=    15.00 Ry     beta= 0.70
     Davidson diagonalization with overlap
     ethr =  1.00E-02,  avg # of iterations =  4.4

     Threshold (ethr) on eigenvalues was too large:
     Diagonalizing with lowered threshold

     Davidson diagonalization with overlap
     ethr =  1.81E-04,  avg # of iterations =  1.4

     total cpu time spent up to now is        1.3 secs

     total energy              =     -39.50234088 Ry
     Harris-Foulkes estimate   =     -39.50349963 Ry
     estimated scf accuracy    <       0.00537593 Ry

     iteration #  2     ecut=    15.00 Ry     beta= 0.70
     Davidson diagonalization with overlap
     ethr =  1.79E-04,  avg # of iterations =  1.0

     total cpu time spent up to now is        1.5 secs

     total energy              =     -39.50229622 Ry
     Harris-Foulkes estimate   =     -39.50238539 Ry
     estimated scf accuracy    <       0.00039407 Ry

     iteration #  3     ecut=    15.00 Ry     beta= 0.70
     Davidson diagonalization with overlap
     ethr =  1.31E-05,  avg # of iterations =  1.7

     total cpu time spent up to now is        1.7 secs

     total energy              =     -39.50230453 Ry
     Harris-Foulkes estimate   =     -39.50230466 Ry
     estimated scf accuracy    <       0.00000046 Ry

     iteration #  4     ecut=    15.00 Ry     beta= 0.70
     Davidson diagonalization with overlap
     ethr =  1.54E-08,  avg # of iterations =  2.9

     total cpu time spent up to now is        1.9 secs

     total energy              =     -39.50230579 Ry
     Harris-Foulkes estimate   =     -39.50230581 Ry
     estimated scf accuracy    <       0.00000002 Ry

     iteration #  5     ecut=    15.00 Ry     beta= 0.70
     Davidson diagonalization with overlap
     ethr =  6.23E-10,  avg # of iterations =  1.2

     total cpu time spent up to now is        2.1 secs

     End of self-consistent calculation

          k = 0.0000 0.0000 0.0000 (   113 PWs)   bands (ev):

    -3.2457  20.5260  20.5260  21.8954  21.8954  21.8954

          k =-0.0909 0.0909-0.0909 (   113 PWs)   bands (ev):

    -3.0219  17.5656  19.8507  19.8507  22.6097  22.9103

          k =-0.1818 0.1818-0.1818 (   110 PWs)   bands (ev):

    -2.3523  13.9030  19.1078  19.1078  22.3828  23.7574

          k =-0.2727 0.2727-0.2727 (   113 PWs)   bands (ev):

    -1.2432  10.4707  18.6847  18.6847  22.1847  22.2146

          k =-0.3636 0.3636-0.3636 (   111 PWs)   bands (ev):

     0.2955   7.3604  18.6412  18.6412  20.7790  20.7790

          k =-0.4545 0.4545-0.4545 (   108 PWs)   bands (ev):

     2.2491   4.6180  18.9736  18.9736  19.7045  19.7045

          k = 0.0000 0.1818 0.0000 (   113 PWs)   bands (ev):

    -2.9474  18.5737  18.5737  18.9098  21.2306  24.2839

          k =-0.0909 0.2727-0.0909 (   116 PWs)   bands (ev):

    -2.4269  15.2259  17.6362  19.0031  21.5748  22.2585

          k =-0.1818 0.3636-0.1818 (   110 PWs)   bands (ev):

    -1.4644  11.7459  17.0780  18.6559  19.9658  23.7383

          k =-0.2727 0.4545-0.2727 (   109 PWs)   bands (ev):

    -0.0695   8.5365  16.8986  18.3230  18.5471  23.2659

          k =-0.3636 0.5455-0.3636 (   112 PWs)   bands (ev):

     1.7452   5.6754  17.0763  17.0974  18.7733  22.0745

          k = 0.5455-0.3636 0.5455 (   112 PWs)   bands (ev):

     3.1716   3.9864  16.2155  17.6805  19.4030  21.2472

          k = 0.4545-0.2727 0.4545 (   107 PWs)   bands (ev):

     1.0947   6.5868  15.7497  18.6505  20.4202  20.8099

          k = 0.3636-0.1818 0.3636 (   109 PWs)   bands (ev):

    -0.5818   9.5634  15.6816  19.9536  20.7619  21.7940

          k = 0.2727-0.0909 0.2727 (   112 PWs)   bands (ev):

    -1.8338  12.8512  16.0322  20.8848  21.7128  23.3928

          k = 0.1818-0.0000 0.1818 (   115 PWs)   bands (ev):

    -2.6497  16.0729  17.0718  21.1081  22.1968  23.3058

          k = 0.0000 0.3636 0.0000 (   113 PWs)   bands (ev):

    -2.0559  16.5550  16.5550  16.7290  19.5350  19.8872

          k =-0.0909 0.4545-0.0909 (   111 PWs)   bands (ev):

    -1.2433  13.3378  15.8593  17.1801  17.4365  20.4217

          k =-0.1818 0.5455-0.1818 (   112 PWs)   bands (ev):

     0.0029  10.0923  15.5435  15.5524  17.2151  22.5520

          k =-0.2727 0.6364-0.2727 (   110 PWs)   bands (ev):

     1.6715   7.1389  14.1429  15.6158  17.3656  24.8366

          k = 0.6364-0.2727 0.6364 (   109 PWs)   bands (ev):

     3.7337   4.5558  13.1314  16.0690  17.8975  23.9056

          k = 0.5455-0.1818 0.5455 (   109 PWs)   bands (ev):

     2.3204   6.2185  12.5367  16.9080  18.8195  23.3347

          k = 0.4545-0.0909 0.4545 (   108 PWs)   bands (ev):

     0.5135   9.0101  12.4006  18.1283  20.1262  23.1176

          k = 0.3636 0.0000 0.3636 (   111 PWs)   bands (ev):

    -0.8756  11.6899  13.1242  19.7172  21.7461  22.8588

          k = 0.0000 0.5455 0.0000 (   113 PWs)   bands (ev):

    -0.5823  14.9790  15.0183  15.0292  15.0292  18.5059

          k =-0.0909 0.6364-0.0909 (   109 PWs)   bands (ev):

     0.5119  11.9579  13.0665  14.5834  15.8840  19.2250

          k =-0.1818 0.7273-0.1818 (   108 PWs)   bands (ev):

     2.0281   8.9762  11.5000  14.5212  16.1232  21.6280

          k = 0.7273-0.1818 0.7273 (   108 PWs)   bands (ev):

     3.9428   6.2956  10.3452  14.8455  16.5634  24.5683

          k = 0.6364-0.0909 0.6364 (   107 PWs)   bands (ev):

     3.9586   6.2268   9.6548  15.5544  17.3850  26.2348

          k = 0.5455 0.0000 0.5455 (   107 PWs)   bands (ev):

     2.0328   8.3805   9.8769  16.6494  18.5887  26.1300

          k = 0.0000 0.7273 0.0000 (   112 PWs)   bands (ev):

     1.4512  10.9231  13.8065  14.0057  14.0057  17.4919

          k =-0.0909 0.8182-0.0909 (   110 PWs)   bands (ev):

     2.8056   9.1965  11.1588  13.8150  15.0368  18.4689

          k = 0.8182-0.0909 0.8182 (   108 PWs)   bands (ev):

     4.5299   7.8700   8.5138  14.0090  15.5543  21.1419

          k = 0.7273 0.0000 0.7273 (   106 PWs)   bands (ev):

     5.9768   6.1778   7.6328  14.5900  16.2875  24.3604

          k = 0.0000 0.9091 0.0000 (   112 PWs)   bands (ev):

     3.9674   7.3692  13.2176  13.4949  13.4949  16.9551

          k = 0.9091-0.0000 0.9091 (   114 PWs)   bands (ev):

     5.0794   6.4083  10.8751  13.5594  14.7460  18.2068

          k =-0.1818 0.3636 0.0000 (   114 PWs)   bands (ev):

    -1.7599  13.8917  15.1098  19.7416  19.8626  21.6539

          k =-0.2727 0.4545-0.0909 (   111 PWs)   bands (ev):

    -0.6553  10.9393  14.2283  17.8659  20.0959  23.1446

          k =-0.3636 0.5455-0.1818 (   107 PWs)   bands (ev):

     0.8767   7.8965  14.1194  16.3479  20.1576  22.4173

          k = 0.5455-0.3636 0.7273 (   109 PWs)   bands (ev):

     2.8206   5.1789  14.4218  15.2318  20.5014  21.3484

          k =-0.1818 0.5455 0.0000 (   110 PWs)   bands (ev):

    -0.2894  12.2460  13.5300  15.3318  18.3107  20.3649

          k =-0.2727 0.6364-0.0909 (   110 PWs)   bands (ev):

     1.0927   9.5548  12.8402  13.6861  18.8595  22.1981

          k = 0.6364-0.2727 0.8182 (   108 PWs)   bands (ev):

     2.8888   6.7758  12.2661  13.1277  19.2099  24.0345

          k = 0.5455-0.1818 0.7273 (   109 PWs)   bands (ev):

     4.2987   5.1058  11.4326  13.6828  19.8608  23.3181

          k = 0.4545-0.0909 0.6364 (   111 PWs)   bands (ev):

     2.2475   7.6190  11.0288  14.6831  20.8573  22.7909

          k = 0.3636 0.0000 0.5455 (   110 PWs)   bands (ev):

     0.5859  10.0360  11.5129  16.0870  22.0960  22.1374

          k =-0.1818 0.7273 0.0000 (   111 PWs)   bands (ev):

     1.7399  11.1383  11.1620  12.5551  17.2293  19.4115

          k = 0.7273-0.1818 0.9091 (   107 PWs)   bands (ev):

     3.3761   8.7003   9.7870  12.1311  18.0676  21.5140

          k = 0.6364-0.0909 0.8182 (   108 PWs)   bands (ev):

     5.3598   6.2164   8.8118  12.5429  18.6957  24.4893

          k = 0.5455 0.0000 0.7273 (   108 PWs)   bands (ev):

     4.0279   7.2782   8.7460  13.4081  19.6177  25.3856

          k = 0.8182-0.0909 1.0000 (   108 PWs)   bands (ev):

     4.2491   7.6485  10.5886  11.9879  16.6878  18.9107

          k = 0.7273 0.0000 0.9091 (   106 PWs)   bands (ev):

     5.6284   6.9662   8.4833  11.8495  17.7990  21.2748

          k = 0.6364-0.2727 1.0000 (   109 PWs)   bands (ev):

     2.6026   8.9319  10.3705  12.1165  21.0796  22.5701

          k = 0.5455-0.1818 0.9091 (   109 PWs)   bands (ev):

     4.5088   6.7818  10.1120  11.0204  21.9946  22.9070

          k = 0.6364-0.0909 1.0000 (   105 PWs)   bands (ev):

     5.0911   8.3815   8.4379   9.9811  20.5552  22.2305

          k = 0.5455 0.0000 0.9091 (   108 PWs)   bands (ev):

     6.4737   6.7276   8.1389  10.0164  21.7934  24.6137

     the Fermi energy is     7.8739 ev

!    total energy              =     -39.50230579 Ry
     Harris-Foulkes estimate   =     -39.50230579 Ry
     estimated scf accuracy    <          2.9E-10 Ry

     total all-electron energy =      -485.645086 Ry

     The total energy is the sum of the following terms:

     one-electron contribution =       3.15344392 Ry
     hartree contribution      =       0.00572756 Ry
     xc contribution           =      -2.58801760 Ry
     ewald contribution        =      -5.39395544 Ry
     one-center paw contrib.   =     -34.67918754 Ry
     smearing contrib. (-TS)   =      -0.00031669 Ry

     convergence has been achieved in   5 iterations

     Forces acting on atoms (cartesian axes, Ry/au):

     atom    1 type  1   force =     0.00000000    0.00000000    0.00000000

     Total force =     0.000000     Total SCF correction =     0.000000


     Computing stress (Cartesian axis) and pressure

          total   stress  (Ry/bohr**3)                   (kbar)     P=   -3.93
  -0.00002670   0.00000000   0.00000000         -3.93      0.00      0.00
   0.00000000  -0.00002670  -0.00000000          0.00     -3.93     -0.00
   0.00000000  -0.00000000  -0.00002670          0.00     -0.00     -3.93


     Writing output data file Al.save/

     init_run     :      0.23s CPU      0.25s WALL (       1 calls)
     electrons    :      1.02s CPU      1.18s WALL (       1 calls)
     forces       :      0.01s CPU      0.01s WALL (       1 calls)
     stress       :      0.03s CPU      0.03s WALL (       1 calls)

     Called by init_run:
     wfcinit      :      0.05s CPU      0.06s WALL (       1 calls)
     potinit      :      0.10s CPU      0.11s WALL (       1 calls)
     hinit0       :      0.07s CPU      0.07s WALL (       1 calls)

     Called by electrons:
     c_bands      :      0.48s CPU      0.55s WALL (       6 calls)
     sum_band     :      0.09s CPU      0.10s WALL (       6 calls)
     v_of_rho     :      0.00s CPU      0.00s WALL (       6 calls)
     newd         :      0.01s CPU      0.01s WALL (       6 calls)
     PAW_pot      :      0.54s CPU      0.62s WALL (       6 calls)
     mix_rho      :      0.00s CPU      0.00s WALL (       6 calls)

     Called by c_bands:
     init_us_2    :      0.01s CPU      0.02s WALL (     840 calls)
     cegterg      :      0.45s CPU      0.52s WALL (     336 calls)

     Called by sum_band:
     sum_band:bec :      0.00s CPU      0.00s WALL (     336 calls)
     addusdens    :      0.01s CPU      0.01s WALL (       6 calls)

     Called by *egterg:
     h_psi        :      0.33s CPU      0.38s WALL (    1090 calls)
     s_psi        :      0.01s CPU      0.01s WALL (    1090 calls)
     g_psi        :      0.00s CPU      0.00s WALL (     698 calls)
     cdiaghg      :      0.08s CPU      0.09s WALL (     978 calls)

     Called by h_psi:
     h_psi:pot    :      0.33s CPU      0.37s WALL (    1090 calls)
     h_psi:calbec :      0.02s CPU      0.03s WALL (    1090 calls)
     vloc_psi     :      0.29s CPU      0.33s WALL (    1090 calls)
     add_vuspsi   :      0.01s CPU      0.01s WALL (    1090 calls)

     General routines
     calbec       :      0.03s CPU      0.04s WALL (    1706 calls)
     fft          :      0.00s CPU      0.00s WALL (      93 calls)
     ffts         :      0.00s CPU      0.00s WALL (       6 calls)
     fftw         :      0.31s CPU      0.36s WALL (   12582 calls)

     Parallel routines
     fft_scatt_xy :      0.03s CPU      0.04s WALL (   12681 calls)
     fft_scatt_yz :      0.15s CPU      0.17s WALL (   12681 calls)

     PWSCF        :     2.01s CPU         2.28s WALL


   This run was terminated on:  19:54:23  25Mar2024            

=------------------------------------------------------------------------------=
   JOB DONE.
=------------------------------------------------------------------------------=
