
     Program PWSCF v.6.3MaX starts on 25Mar2024 at 20: 4:45 

     This program is part of the open-source Quantum ESPRESSO suite
     for quantum simulation of materials; please cite
         "P. Giannozzi et al., J. Phys.:Condens. Matter 21 395502 (2009);
         "P. Giannozzi et al., J. Phys.:Condens. Matter 29 465901 (2017);
          URL http://www.quantum-espresso.org", 
     in publications or presentations arising from this work. More details at
     http://www.quantum-espresso.org/quote

     Parallel version (MPI), running on     5 processors

     MPI processes distributed on     1 nodes
     R & G space division:  proc/nbgrp/npool/nimage =       5
     Waiting for input...
     Reading input from standard input

     Current dimensions of program PWSCF are:
     Max number of different atomic species (ntypx) = 10
     Max number of k-points (npk) =  40000
     Max angular momentum in pseudopotentials (lmaxx) =  3
               file Al.pbe-nl-kjpaw_psl.1.0.0.UPF: wavefunction(s)  3S 3P renormalized

     Subspace diagonalization in iterative solution of the eigenvalue problem:
     a serial algorithm will be used


     Parallelization info
     --------------------
     sticks:   dense  smooth     PW     G-vecs:    dense   smooth      PW
     Min          99      99     30                 1395     1395     248
     Max         101     101     31                 1395     1395     251
     Sum         499     499    151                 6975     6975    1243



     bravais-lattice index     =            2
     lattice parameter (alat)  =       7.6500  a.u.
     unit-cell volume          =     111.9243 (a.u.)^3
     number of atoms/cell      =            1
     number of atomic types    =            1
     number of electrons       =         3.00
     number of Kohn-Sham states=            6
     kinetic-energy cutoff     =      60.0000  Ry
     charge density cutoff     =     240.0000  Ry
     convergence threshold     =      1.0E-08
     mixing beta               =       0.7000
     number of iterations used =            8  plain     mixing
     Exchange-correlation      = SLA PW PBX PBC ( 1  4  3  4 0 0)

     celldm(1)=   7.650000  celldm(2)=   0.000000  celldm(3)=   0.000000
     celldm(4)=   0.000000  celldm(5)=   0.000000  celldm(6)=   0.000000

     crystal axes: (cart. coord. in units of alat)
               a(1) = (  -0.500000   0.000000   0.500000 )  
               a(2) = (   0.000000   0.500000   0.500000 )  
               a(3) = (  -0.500000   0.500000   0.000000 )  

     reciprocal axes: (cart. coord. in units 2 pi/alat)
               b(1) = ( -1.000000 -1.000000  1.000000 )  
               b(2) = (  1.000000  1.000000  1.000000 )  
               b(3) = ( -1.000000  1.000000 -1.000000 )  


     PseudoPot. # 1 for Al read from file:
     /home/lorenzo/pseudos/Al/Al.pbe-nl-kjpaw_psl.1.0.0.UPF
     MD5 check sum: 8cf6d98cc7ef3f4b729b574060f3a10f
     Pseudo is Projector augmented-wave + core cor, Zval =  3.0
     Generated using "atomic" code by A. Dal Corso v.6.3
     Shape of augmentation charge: PSQ
     Using radial grid of 1135 points,  4 beta functions with: 
                l(1) =   0
                l(2) =   0
                l(3) =   1
                l(4) =   1
     Q(r) pseudized with 0 coefficients 


     atomic species   valence    mass     pseudopotential
        Al             3.00    26.98150     Al( 1.00)

     48 Sym. Ops., with inversion, found



   Cartesian axes

     site n.     atom                  positions (alat units)
         1           Al  tau(   1) = (   0.0000000   0.0000000   0.0000000  )

     number of k points=    10  gaussian smearing, width (Ry)=  0.0100
                       cart. coord. in units 2pi/alat
        k(    1) = (   0.0000000   0.0000000   0.0000000), wk =   0.0160000
        k(    2) = (  -0.2000000   0.2000000  -0.2000000), wk =   0.1280000
        k(    3) = (  -0.4000000   0.4000000  -0.4000000), wk =   0.1280000
        k(    4) = (   0.0000000   0.4000000   0.0000000), wk =   0.0960000
        k(    5) = (  -0.2000000   0.6000000  -0.2000000), wk =   0.3840000
        k(    6) = (   0.6000000  -0.2000000   0.6000000), wk =   0.3840000
        k(    7) = (   0.4000000   0.0000000   0.4000000), wk =   0.1920000
        k(    8) = (   0.0000000   0.8000000   0.0000000), wk =   0.0960000
        k(    9) = (   0.8000000   0.0000000   0.8000000), wk =   0.1920000
        k(   10) = (   0.6000000  -0.2000000   1.0000000), wk =   0.3840000

     Dense  grid:     6975 G-vectors     FFT dimensions: (  27,  27,  27)

     Estimated max dynamical RAM per process >       2.57 MB

     Estimated total dynamical RAM >      12.87 MB

     Initial potential from superposition of free atoms

     starting charge    2.99771, renormalised to    3.00000
     Starting wfcs are    4 randomized atomic wfcs +    2 random wfcs
     Checking if some PAW data can be deallocated... 

     total cpu time spent up to now is        0.6 secs

     Self-consistent Calculation

     iteration #  1     ecut=    60.00 Ry     beta= 0.70
     Davidson diagonalization with overlap
     ethr =  1.00E-02,  avg # of iterations =  5.0

     Threshold (ethr) on eigenvalues was too large:
     Diagonalizing with lowered threshold

     Davidson diagonalization with overlap
     ethr =  1.74E-04,  avg # of iterations =  1.8

     total cpu time spent up to now is        0.8 secs

     total energy              =     -39.49881402 Ry
     Harris-Foulkes estimate   =     -39.50019889 Ry
     estimated scf accuracy    <       0.00510149 Ry

     iteration #  2     ecut=    60.00 Ry     beta= 0.70
     Davidson diagonalization with overlap
     ethr =  1.70E-04,  avg # of iterations =  1.0

     total cpu time spent up to now is        0.9 secs

     total energy              =     -39.49880647 Ry
     Harris-Foulkes estimate   =     -39.49889538 Ry
     estimated scf accuracy    <       0.00035636 Ry

     iteration #  3     ecut=    60.00 Ry     beta= 0.70
     Davidson diagonalization with overlap
     ethr =  1.19E-05,  avg # of iterations =  2.0

     total cpu time spent up to now is        1.0 secs

     total energy              =     -39.49882710 Ry
     Harris-Foulkes estimate   =     -39.49882771 Ry
     estimated scf accuracy    <       0.00000142 Ry

     iteration #  4     ecut=    60.00 Ry     beta= 0.70
     Davidson diagonalization with overlap
     ethr =  4.74E-08,  avg # of iterations =  2.9

     total cpu time spent up to now is        1.0 secs

     total energy              =     -39.49882893 Ry
     Harris-Foulkes estimate   =     -39.49882893 Ry
     estimated scf accuracy    <       0.00000011 Ry

     iteration #  5     ecut=    60.00 Ry     beta= 0.70
     Davidson diagonalization with overlap
     ethr =  3.50E-09,  avg # of iterations =  1.1

     total cpu time spent up to now is        1.1 secs

     total energy              =     -39.49882893 Ry
     Harris-Foulkes estimate   =     -39.49882894 Ry
     estimated scf accuracy    <       0.00000002 Ry

     iteration #  6     ecut=    60.00 Ry     beta= 0.70
     Davidson diagonalization with overlap
     ethr =  7.22E-10,  avg # of iterations =  1.0

     total cpu time spent up to now is        1.2 secs

     End of self-consistent calculation

          k = 0.0000 0.0000 0.0000 (   893 PWs)   bands (ev):

    -3.2516  20.4391  20.4391  21.8795  21.8796  21.8796

          k =-0.2000 0.2000-0.2000 (   887 PWs)   bands (ev):

    -2.1713  13.1713  18.9485  18.9485  22.2749  23.4251

          k =-0.4000 0.4000-0.4000 (   869 PWs)   bands (ev):

     1.0224   6.2099  18.6925  18.6925  20.2476  20.2477

          k = 0.0000 0.4000 0.0000 (   885 PWs)   bands (ev):

    -1.8130  16.1858  16.1858  16.2821  18.5663  19.5590

          k =-0.2000 0.6000-0.2000 (   886 PWs)   bands (ev):

     0.6698   9.2073  14.3798  15.2731  16.9347  22.7956

          k = 0.6000-0.2000 0.6000 (   877 PWs)   bands (ev):

     3.4525   5.1745  12.1056  16.2108  18.0568  23.9884

          k = 0.4000 0.0000 0.4000 (   871 PWs)   bands (ev):

    -0.3885  10.9243  12.3907  18.9875  21.0051  23.2262

          k = 0.0000 0.8000 0.0000 (   886 PWs)   bands (ev):

     2.4053   9.4124  13.4712  13.7287  13.7287  17.1928

          k = 0.8000 0.0000 0.8000 (   870 PWs)   bands (ev):

     5.6013   6.9086   7.9332  14.0407  15.5950  21.6709

          k = 0.6000-0.2000 1.0000 (   882 PWs)   bands (ev):

     3.7862   8.2605   9.6574  10.8953  21.5644  22.9223

     the Fermi energy is     8.2021 ev

!    total energy              =     -39.49882893 Ry
     Harris-Foulkes estimate   =     -39.49882893 Ry
     estimated scf accuracy    <          1.1E-10 Ry

     total all-electron energy =      -485.641609 Ry

     The total energy is the sum of the following terms:

     one-electron contribution =       3.15737757 Ry
     hartree contribution      =       0.00584236 Ry
     xc contribution           =      -2.58883144 Ry
     ewald contribution        =      -5.39395538 Ry
     one-center paw contrib.   =     -34.67834985 Ry
     smearing contrib. (-TS)   =      -0.00091219 Ry

     convergence has been achieved in   6 iterations

     Forces acting on atoms (cartesian axes, Ry/au):

     atom    1 type  1   force =     0.00000000    0.00000000    0.00000000

     Total force =     0.000000     Total SCF correction =     0.000000


     Computing stress (Cartesian axis) and pressure

          total   stress  (Ry/bohr**3)                   (kbar)     P=   14.13
   0.00009606  -0.00000000   0.00000000         14.13     -0.00      0.00
  -0.00000000   0.00009606   0.00000000         -0.00     14.13      0.00
   0.00000000  -0.00000000   0.00009606          0.00     -0.00     14.13


     Writing output data file Al.save/

     init_run     :      0.17s CPU      0.18s WALL (       1 calls)
     electrons    :      0.59s CPU      0.65s WALL (       1 calls)
     forces       :      0.02s CPU      0.02s WALL (       1 calls)
     stress       :      0.04s CPU      0.04s WALL (       1 calls)

     Called by init_run:
     wfcinit      :      0.03s CPU      0.03s WALL (       1 calls)
     potinit      :      0.04s CPU      0.05s WALL (       1 calls)
     hinit0       :      0.09s CPU      0.09s WALL (       1 calls)

     Called by electrons:
     c_bands      :      0.33s CPU      0.35s WALL (       7 calls)
     sum_band     :      0.08s CPU      0.08s WALL (       7 calls)
     v_of_rho     :      0.03s CPU      0.03s WALL (       7 calls)
     newd         :      0.01s CPU      0.01s WALL (       7 calls)
     PAW_pot      :      0.17s CPU      0.20s WALL (       7 calls)
     mix_rho      :      0.00s CPU      0.00s WALL (       7 calls)

     Called by c_bands:
     init_us_2    :      0.01s CPU      0.01s WALL (     170 calls)
     cegterg      :      0.32s CPU      0.34s WALL (      70 calls)

     Called by sum_band:
     sum_band:bec :      0.00s CPU      0.00s WALL (      70 calls)
     addusdens    :      0.01s CPU      0.01s WALL (       7 calls)

     Called by *egterg:
     h_psi        :      0.28s CPU      0.29s WALL (     228 calls)
     s_psi        :      0.00s CPU      0.01s WALL (     228 calls)
     g_psi        :      0.00s CPU      0.00s WALL (     148 calls)
     cdiaghg      :      0.02s CPU      0.02s WALL (     208 calls)

     Called by h_psi:
     h_psi:pot    :      0.27s CPU      0.29s WALL (     228 calls)
     h_psi:calbec :      0.01s CPU      0.01s WALL (     228 calls)
     vloc_psi     :      0.26s CPU      0.27s WALL (     228 calls)
     add_vuspsi   :      0.00s CPU      0.00s WALL (     228 calls)

     General routines
     calbec       :      0.01s CPU      0.01s WALL (     348 calls)
     fft          :      0.02s CPU      0.02s WALL (     104 calls)
     ffts         :      0.00s CPU      0.00s WALL (       7 calls)
     fftw         :      0.29s CPU      0.30s WALL (    2602 calls)

     Parallel routines
     fft_scatt_xy :      0.03s CPU      0.03s WALL (    2713 calls)
     fft_scatt_yz :      0.08s CPU      0.08s WALL (    2713 calls)

     PWSCF        :     1.23s CPU         1.32s WALL


   This run was terminated on:  20: 4:46  25Mar2024            

=------------------------------------------------------------------------------=
   JOB DONE.
=------------------------------------------------------------------------------=
