
     Program PWSCF v.6.3MaX starts on 25Mar2024 at 20:12:43 

     This program is part of the open-source Quantum ESPRESSO suite
     for quantum simulation of materials; please cite
         "P. Giannozzi et al., J. Phys.:Condens. Matter 21 395502 (2009);
         "P. Giannozzi et al., J. Phys.:Condens. Matter 29 465901 (2017);
          URL http://www.quantum-espresso.org", 
     in publications or presentations arising from this work. More details at
     http://www.quantum-espresso.org/quote

     Parallel version (MPI), running on     5 processors

     MPI processes distributed on     1 nodes
     R & G space division:  proc/nbgrp/npool/nimage =       5
     Waiting for input...
     Reading input from standard input

     Current dimensions of program PWSCF are:
     Max number of different atomic species (ntypx) = 10
     Max number of k-points (npk) =  40000
     Max angular momentum in pseudopotentials (lmaxx) =  3
               file Al.pbe-n-kjpaw_psl.1.0.0.UPF: wavefunction(s)  3S 3P renormalized

     Subspace diagonalization in iterative solution of the eigenvalue problem:
     a serial algorithm will be used


     Parallelization info
     --------------------
     sticks:   dense  smooth     PW     G-vecs:    dense   smooth      PW
     Min         146     146     43                 2587     2587     445
     Max         147     147     45                 2588     2588     446
     Sum         733     733    223                12939    12939    2229



     bravais-lattice index     =            2
     lattice parameter (alat)  =       7.6500  a.u.
     unit-cell volume          =     111.9243 (a.u.)^3
     number of atoms/cell      =            1
     number of atomic types    =            1
     number of electrons       =         3.00
     number of Kohn-Sham states=            6
     kinetic-energy cutoff     =      90.0000  Ry
     charge density cutoff     =     360.0000  Ry
     convergence threshold     =      1.0E-08
     mixing beta               =       0.7000
     number of iterations used =            8  plain     mixing
     Exchange-correlation      = SLA PW PBX PBC ( 1  4  3  4 0 0)

     celldm(1)=   7.650000  celldm(2)=   0.000000  celldm(3)=   0.000000
     celldm(4)=   0.000000  celldm(5)=   0.000000  celldm(6)=   0.000000

     crystal axes: (cart. coord. in units of alat)
               a(1) = (  -0.500000   0.000000   0.500000 )  
               a(2) = (   0.000000   0.500000   0.500000 )  
               a(3) = (  -0.500000   0.500000   0.000000 )  

     reciprocal axes: (cart. coord. in units 2 pi/alat)
               b(1) = ( -1.000000 -1.000000  1.000000 )  
               b(2) = (  1.000000  1.000000  1.000000 )  
               b(3) = ( -1.000000  1.000000 -1.000000 )  


     PseudoPot. # 1 for Al read from file:
     /home/lorenzo/pseudos/Al/Al.pbe-n-kjpaw_psl.1.0.0.UPF
     MD5 check sum: 502b6b27b9c6270cab5dd1084b96fa6d
     Pseudo is Projector augmented-wave + core cor, Zval =  3.0
     Generated using "atomic" code by A. Dal Corso v.6.3
     Shape of augmentation charge: PSQ
     Using radial grid of 1135 points,  6 beta functions with: 
                l(1) =   0
                l(2) =   0
                l(3) =   1
                l(4) =   1
                l(5) =   2
                l(6) =   2
     Q(r) pseudized with 0 coefficients 


     atomic species   valence    mass     pseudopotential
        Al             3.00    26.98150     Al( 1.00)

     48 Sym. Ops., with inversion, found



   Cartesian axes

     site n.     atom                  positions (alat units)
         1           Al  tau(   1) = (   0.0000000   0.0000000   0.0000000  )

     number of k points=    47  gaussian smearing, width (Ry)=  0.0100
                       cart. coord. in units 2pi/alat
        k(    1) = (   0.0000000   0.0000000   0.0000000), wk =   0.0020000
        k(    2) = (  -0.1000000   0.1000000  -0.1000000), wk =   0.0160000
        k(    3) = (  -0.2000000   0.2000000  -0.2000000), wk =   0.0160000
        k(    4) = (  -0.3000000   0.3000000  -0.3000000), wk =   0.0160000
        k(    5) = (  -0.4000000   0.4000000  -0.4000000), wk =   0.0160000
        k(    6) = (   0.5000000  -0.5000000   0.5000000), wk =   0.0080000
        k(    7) = (   0.0000000   0.2000000   0.0000000), wk =   0.0120000
        k(    8) = (  -0.1000000   0.3000000  -0.1000000), wk =   0.0480000
        k(    9) = (  -0.2000000   0.4000000  -0.2000000), wk =   0.0480000
        k(   10) = (  -0.3000000   0.5000000  -0.3000000), wk =   0.0480000
        k(   11) = (   0.6000000  -0.4000000   0.6000000), wk =   0.0480000
        k(   12) = (   0.5000000  -0.3000000   0.5000000), wk =   0.0480000
        k(   13) = (   0.4000000  -0.2000000   0.4000000), wk =   0.0480000
        k(   14) = (   0.3000000  -0.1000000   0.3000000), wk =   0.0480000
        k(   15) = (   0.2000000   0.0000000   0.2000000), wk =   0.0240000
        k(   16) = (   0.0000000   0.4000000   0.0000000), wk =   0.0120000
        k(   17) = (  -0.1000000   0.5000000  -0.1000000), wk =   0.0480000
        k(   18) = (  -0.2000000   0.6000000  -0.2000000), wk =   0.0480000
        k(   19) = (   0.7000000  -0.3000000   0.7000000), wk =   0.0480000
        k(   20) = (   0.6000000  -0.2000000   0.6000000), wk =   0.0480000
        k(   21) = (   0.5000000  -0.1000000   0.5000000), wk =   0.0480000
        k(   22) = (   0.4000000   0.0000000   0.4000000), wk =   0.0240000
        k(   23) = (   0.0000000   0.6000000   0.0000000), wk =   0.0120000
        k(   24) = (  -0.1000000   0.7000000  -0.1000000), wk =   0.0480000
        k(   25) = (   0.8000000  -0.2000000   0.8000000), wk =   0.0480000
        k(   26) = (   0.7000000  -0.1000000   0.7000000), wk =   0.0480000
        k(   27) = (   0.6000000  -0.0000000   0.6000000), wk =   0.0240000
        k(   28) = (   0.0000000   0.8000000   0.0000000), wk =   0.0120000
        k(   29) = (   0.9000000  -0.1000000   0.9000000), wk =   0.0480000
        k(   30) = (   0.8000000   0.0000000   0.8000000), wk =   0.0240000
        k(   31) = (   0.0000000  -1.0000000   0.0000000), wk =   0.0060000
        k(   32) = (  -0.2000000   0.4000000   0.0000000), wk =   0.0480000
        k(   33) = (  -0.3000000   0.5000000  -0.1000000), wk =   0.0960000
        k(   34) = (   0.6000000  -0.4000000   0.8000000), wk =   0.0960000
        k(   35) = (   0.5000000  -0.3000000   0.7000000), wk =   0.0480000
        k(   36) = (  -0.2000000   0.6000000   0.0000000), wk =   0.0480000
        k(   37) = (   0.7000000  -0.3000000   0.9000000), wk =   0.0960000
        k(   38) = (   0.6000000  -0.2000000   0.8000000), wk =   0.0960000
        k(   39) = (   0.5000000  -0.1000000   0.7000000), wk =   0.0960000
        k(   40) = (   0.4000000   0.0000000   0.6000000), wk =   0.0480000
        k(   41) = (   0.8000000  -0.2000000   1.0000000), wk =   0.0480000
        k(   42) = (   0.7000000  -0.1000000   0.9000000), wk =   0.0960000
        k(   43) = (   0.6000000   0.0000000   0.8000000), wk =   0.0480000
        k(   44) = (  -0.2000000  -1.0000000   0.0000000), wk =   0.0240000
        k(   45) = (   0.6000000  -0.2000000   1.0000000), wk =   0.0480000
        k(   46) = (   0.5000000  -0.1000000   0.9000000), wk =   0.0480000
        k(   47) = (  -0.4000000  -1.0000000   0.0000000), wk =   0.0240000

     Dense  grid:    12939 G-vectors     FFT dimensions: (  36,  36,  36)

     Estimated max dynamical RAM per process >      13.08 MB

     Estimated total dynamical RAM >      65.40 MB

     Initial potential from superposition of free atoms

     starting charge    2.99771, renormalised to    3.00000
     Starting wfcs are    4 randomized atomic wfcs +    2 random wfcs
     Checking if some PAW data can be deallocated... 

     total cpu time spent up to now is        1.3 secs

     Self-consistent Calculation

     iteration #  1     ecut=    90.00 Ry     beta= 0.70
     Davidson diagonalization with overlap
     ethr =  1.00E-02,  avg # of iterations =  4.9

     Threshold (ethr) on eigenvalues was too large:
     Diagonalizing with lowered threshold

     Davidson diagonalization with overlap
     ethr =  1.85E-04,  avg # of iterations =  1.9

     total cpu time spent up to now is        2.8 secs

     total energy              =     -39.50163203 Ry
     Harris-Foulkes estimate   =     -39.50284208 Ry
     estimated scf accuracy    <       0.00549238 Ry

     iteration #  2     ecut=    90.00 Ry     beta= 0.70
     Davidson diagonalization with overlap
     ethr =  1.83E-04,  avg # of iterations =  1.0

     total cpu time spent up to now is        3.4 secs

     total energy              =     -39.50159300 Ry
     Harris-Foulkes estimate   =     -39.50168244 Ry
     estimated scf accuracy    <       0.00039352 Ry

     iteration #  3     ecut=    90.00 Ry     beta= 0.70
     Davidson diagonalization with overlap
     ethr =  1.31E-05,  avg # of iterations =  2.1

     total cpu time spent up to now is        4.0 secs

     total energy              =     -39.50160177 Ry
     Harris-Foulkes estimate   =     -39.50160191 Ry
     estimated scf accuracy    <       0.00000051 Ry

     iteration #  4     ecut=    90.00 Ry     beta= 0.70
     Davidson diagonalization with overlap
     ethr =  1.70E-08,  avg # of iterations =  2.8

     total cpu time spent up to now is        4.6 secs

     total energy              =     -39.50160291 Ry
     Harris-Foulkes estimate   =     -39.50160292 Ry
     estimated scf accuracy    <       0.00000001 Ry

     iteration #  5     ecut=    90.00 Ry     beta= 0.70
     Davidson diagonalization with overlap
     ethr =  4.17E-10,  avg # of iterations =  1.5

     total cpu time spent up to now is        5.2 secs

     End of self-consistent calculation

          k = 0.0000 0.0000 0.0000 (  1639 PWs)   bands (ev):

    -3.2507  20.4320  20.4320  21.8917  21.8917  21.8917

          k =-0.1000 0.1000-0.1000 (  1606 PWs)   bands (ev):

    -2.9798  17.1548  19.7056  19.7056  22.5763  23.0197

          k =-0.2000 0.2000-0.2000 (  1606 PWs)   bands (ev):

    -2.1703  13.1708  18.9495  18.9495  22.2975  23.4256

          k =-0.3000 0.3000-0.3000 (  1615 PWs)   bands (ev):

    -0.8311   9.4862  18.5999  18.5999  21.6894  21.6894

          k =-0.4000 0.4000-0.4000 (  1616 PWs)   bands (ev):

     1.0230   6.2088  18.6951  18.6951  20.2494  20.2494

          k = 0.5000-0.5000 0.5000 (  1622 PWs)   bands (ev):

     3.2776   3.4780  19.2087  19.2087  19.2818  19.2818

          k = 0.0000 0.2000 0.0000 (  1599 PWs)   bands (ev):

    -2.8896  18.3115  18.3115  18.6112  21.1029  23.7295

          k =-0.1000 0.3000-0.1000 (  1609 PWs)   bands (ev):

    -2.2600  14.6363  17.3379  18.7438  21.1342  21.9492

          k =-0.2000 0.4000-0.2000 (  1607 PWs)   bands (ev):

    -1.0980  10.8765  16.8155  18.4139  19.1330  23.9730

          k =-0.3000 0.5000-0.3000 (  1610 PWs)   bands (ev):

     0.5835   7.4727  16.7500  17.4563  18.4234  22.9421

          k = 0.6000-0.4000 0.6000 (  1609 PWs)   bands (ev):

     2.7635   4.5031  16.2622  17.1439  18.8633  21.8114

          k = 0.5000-0.3000 0.5000 (  1616 PWs)   bands (ev):

     1.9841   5.4396  15.5399  17.9976  19.7776  21.1180

          k = 0.4000-0.2000 0.4000 (  1621 PWs)   bands (ev):

    -0.0336   8.5562  15.3010  19.2998  20.8766  21.1452

          k = 0.3000-0.1000 0.3000 (  1605 PWs)   bands (ev):

    -1.5438  12.0686  15.5631  20.8345  21.2332  22.9058

          k = 0.2000 0.0000 0.2000 (  1592 PWs)   bands (ev):

    -2.5295  15.5599  16.6344  21.1357  22.2020  23.4043

          k = 0.0000 0.4000 0.0000 (  1607 PWs)   bands (ev):

    -1.8119  16.1878  16.1878  16.2822  18.5702  19.5664

          k =-0.1000 0.5000-0.1000 (  1612 PWs)   bands (ev):

    -0.8313  12.6711  15.5011  16.2297  16.9274  20.2935

          k =-0.2000 0.6000-0.2000 (  1619 PWs)   bands (ev):

     0.6705   9.2059  14.3808  15.2766  16.9373  22.8033

          k = 0.7000-0.3000 0.7000 (  1606 PWs)   bands (ev):

     2.6750   6.1154  12.9955  15.5139  17.2662  24.8164

          k = 0.6000-0.2000 0.6000 (  1596 PWs)   bands (ev):

     3.4525   5.1737  12.1060  16.2136  18.0621  23.9949

          k = 0.5000-0.1000 0.5000 (  1610 PWs)   bands (ev):

     1.2853   8.0740  11.7562  17.3752  19.3289  23.5939

          k = 0.4000 0.0000 0.4000 (  1610 PWs)   bands (ev):

    -0.3876  10.9218  12.3927  18.9897  21.0157  23.2314

          k = 0.0000 0.6000 0.0000 (  1620 PWs)   bands (ev):

    -0.0345  13.7221  14.5302  14.6548  14.6548  18.1399

          k =-0.1000 0.7000-0.1000 (  1625 PWs)   bands (ev):

     1.2820  11.2909  11.7219  14.2729  15.5760  19.1242

          k = 0.8000-0.2000 0.8000 (  1619 PWs)   bands (ev):

     3.0976   8.1848  10.1181  14.3535  15.9368  21.9665

          k = 0.7000-0.1000 0.7000 (  1621 PWs)   bands (ev):

     5.2674   5.5221   9.0843  14.8968  16.6156  25.3384

          k = 0.6000-0.0000 0.6000 (  1608 PWs)   bands (ev):

     3.1099   7.5928   9.0740  15.9040  17.7553  26.6512

          k = 0.0000 0.8000 0.0000 (  1624 PWs)   bands (ev):

     2.4058   9.4114  13.4639  13.7347  13.7347  17.1930

          k = 0.9000-0.1000 0.9000 (  1623 PWs)   bands (ev):

     4.0012   7.6844  10.6963  13.6593  14.8927  18.5078

          k = 0.8000 0.0000 0.8000 (  1622 PWs)   bands (ev):

     5.6013   6.9070   7.9324  14.0462  15.5943  21.6762

          k = 0.0000-1.0000 0.0000 (  1604 PWs)   bands (ev):

     4.9392   6.2519  13.1069  13.4283  13.4283  16.8642

          k =-0.2000 0.4000 0.0000 (  1613 PWs)   bands (ev):

    -1.4545  13.2517  14.5358  18.8549  19.8149  21.6123

          k =-0.3000 0.5000-0.1000 (  1609 PWs)   bands (ev):

    -0.1222  10.0788  13.6766  16.8814  20.1346  23.1748

          k = 0.6000-0.4000 0.8000 (  1618 PWs)   bands (ev):

     1.7218   6.8690  13.7050  15.3637  20.3287  22.0035

          k = 0.5000-0.3000 0.7000 (  1608 PWs)   bands (ev):

     3.9459   4.1796  14.0970  14.4799  20.7661  21.1328

          k =-0.2000 0.6000 0.0000 (  1617 PWs)   bands (ev):

     0.3184  11.5903  12.9071  14.1239  18.2466  20.3036

          k = 0.7000-0.3000 0.9000 (  1621 PWs)   bands (ev):

     1.9803   8.7364  12.1226  12.6275  18.9361  22.4981

          k = 0.6000-0.2000 0.8000 (  1613 PWs)   bands (ev):

     4.1257   5.8529  11.0887  12.7952  19.4777  24.0496

          k = 0.5000-0.1000 0.7000 (  1613 PWs)   bands (ev):

     3.3661   6.7266  10.4191  13.6675  20.3989  23.3491

          k = 0.4000 0.0000 0.6000 (  1607 PWs)   bands (ev):

     1.3722   9.2567  10.7463  15.0413  21.7095  22.4903

          k = 0.8000-0.2000 1.0000 (  1621 PWs)   bands (ev):

     2.7522   9.7279  10.5905  12.0397  17.2726  19.4310

          k = 0.7000-0.1000 0.9000 (  1625 PWs)   bands (ev):

     4.6812   7.9790   8.4707  11.7686  18.3012  21.9551

          k = 0.6000 0.0000 0.8000 (  1614 PWs)   bands (ev):

     5.4855   6.5962   8.0438  12.4521  19.1715  25.3230

          k =-0.2000-1.0000 0.0000 (  1624 PWs)   bands (ev):

     5.2702   6.5998  10.2569  11.6993  16.9455  19.1284

          k = 0.6000-0.2000 1.0000 (  1616 PWs)   bands (ev):

     3.7861   8.2582   9.6578  10.8963  21.5748  22.9307

          k = 0.5000-0.1000 0.9000 (  1608 PWs)   bands (ev):

     5.9242   6.1562   9.4558  10.0945  22.5450  22.9910

          k =-0.4000-1.0000 0.0000 (  1626 PWs)   bands (ev):

     6.2644   7.5896   7.9255   9.5283  21.2580  22.8284

     the Fermi energy is     7.9834 ev

!    total energy              =     -39.50160291 Ry
     Harris-Foulkes estimate   =     -39.50160291 Ry
     estimated scf accuracy    <          1.1E-10 Ry

     total all-electron energy =      -485.644383 Ry

     The total energy is the sum of the following terms:

     one-electron contribution =       3.15354685 Ry
     hartree contribution      =       0.00560688 Ry
     xc contribution           =      -2.58760545 Ry
     ewald contribution        =      -5.39395538 Ry
     one-center paw contrib.   =     -34.67859339 Ry
     smearing contrib. (-TS)   =      -0.00060242 Ry

     convergence has been achieved in   5 iterations

     Forces acting on atoms (cartesian axes, Ry/au):

     atom    1 type  1   force =     0.00000000    0.00000000    0.00000000

     Total force =     0.000000     Total SCF correction =     0.000000


     Computing stress (Cartesian axis) and pressure

          total   stress  (Ry/bohr**3)                   (kbar)     P=   -4.99
  -0.00003391   0.00000000   0.00000000         -4.99      0.00      0.00
   0.00000000  -0.00003391  -0.00000000          0.00     -4.99     -0.00
   0.00000000  -0.00000000  -0.00003391          0.00     -0.00     -4.99


     Writing output data file Al.save/

     init_run     :      0.52s CPU      0.52s WALL (       1 calls)
     electrons    :      3.69s CPU      3.89s WALL (       1 calls)
     forces       :      0.06s CPU      0.06s WALL (       1 calls)
     stress       :      0.28s CPU      0.28s WALL (       1 calls)

     Called by init_run:
     wfcinit      :      0.17s CPU      0.17s WALL (       1 calls)
     potinit      :      0.12s CPU      0.12s WALL (       1 calls)
     hinit0       :      0.19s CPU      0.19s WALL (       1 calls)

     Called by electrons:
     c_bands      :      2.57s CPU      2.72s WALL (       6 calls)
     sum_band     :      0.55s CPU      0.58s WALL (       6 calls)
     v_of_rho     :      0.05s CPU      0.05s WALL (       6 calls)
     newd         :      0.08s CPU      0.08s WALL (       6 calls)
     PAW_pot      :      0.55s CPU      0.56s WALL (       6 calls)
     mix_rho      :      0.00s CPU      0.00s WALL (       6 calls)

     Called by c_bands:
     init_us_2    :      0.13s CPU      0.13s WALL (     705 calls)
     cegterg      :      2.42s CPU      2.56s WALL (     282 calls)

     Called by sum_band:
     sum_band:bec :      0.00s CPU      0.00s WALL (     282 calls)
     addusdens    :      0.07s CPU      0.07s WALL (       6 calls)

     Called by *egterg:
     h_psi        :      2.16s CPU      2.28s WALL (     998 calls)
     s_psi        :      0.06s CPU      0.06s WALL (     998 calls)
     g_psi        :      0.01s CPU      0.01s WALL (     669 calls)
     cdiaghg      :      0.10s CPU      0.11s WALL (     904 calls)

     Called by h_psi:
     h_psi:pot    :      2.15s CPU      2.27s WALL (     998 calls)
     h_psi:calbec :      0.10s CPU      0.11s WALL (     998 calls)
     vloc_psi     :      1.98s CPU      2.09s WALL (     998 calls)
     add_vuspsi   :      0.06s CPU      0.06s WALL (     998 calls)

     General routines
     calbec       :      0.18s CPU      0.19s WALL (    1515 calls)
     fft          :      0.04s CPU      0.04s WALL (      93 calls)
     ffts         :      0.00s CPU      0.00s WALL (       6 calls)
     fftw         :      2.20s CPU      2.32s WALL (   10808 calls)

     Parallel routines
     fft_scatt_xy :      0.18s CPU      0.19s WALL (   10907 calls)
     fft_scatt_yz :      0.60s CPU      0.64s WALL (   10907 calls)

     PWSCF        :     5.38s CPU         5.62s WALL


   This run was terminated on:  20:12:48  25Mar2024            

=------------------------------------------------------------------------------=
   JOB DONE.
=------------------------------------------------------------------------------=
