
     Program PWSCF v.6.3MaX starts on 25Mar2024 at 19:56:12 

     This program is part of the open-source Quantum ESPRESSO suite
     for quantum simulation of materials; please cite
         "P. Giannozzi et al., J. Phys.:Condens. Matter 21 395502 (2009);
         "P. Giannozzi et al., J. Phys.:Condens. Matter 29 465901 (2017);
          URL http://www.quantum-espresso.org", 
     in publications or presentations arising from this work. More details at
     http://www.quantum-espresso.org/quote

     Parallel version (MPI), running on     5 processors

     MPI processes distributed on     1 nodes
     R & G space division:  proc/nbgrp/npool/nimage =       5
     Waiting for input...
     Reading input from standard input

     Current dimensions of program PWSCF are:
     Max number of different atomic species (ntypx) = 10
     Max number of k-points (npk) =  40000
     Max angular momentum in pseudopotentials (lmaxx) =  3
               file Al.pbe-nl-kjpaw_psl.1.0.0.UPF: wavefunction(s)  3S 3P renormalized

     Subspace diagonalization in iterative solution of the eigenvalue problem:
     a serial algorithm will be used


     Parallelization info
     --------------------
     sticks:   dense  smooth     PW     G-vecs:    dense   smooth      PW
     Min          39      39     14                  381      381      82
     Max          40      40     15                  384      384      83
     Sum         199     199     73                 1917     1917     411



     bravais-lattice index     =            2
     lattice parameter (alat)  =       7.6500  a.u.
     unit-cell volume          =     111.9243 (a.u.)^3
     number of atoms/cell      =            1
     number of atomic types    =            1
     number of electrons       =         3.00
     number of Kohn-Sham states=            6
     kinetic-energy cutoff     =      25.0000  Ry
     charge density cutoff     =     100.0000  Ry
     convergence threshold     =      1.0E-08
     mixing beta               =       0.7000
     number of iterations used =            8  plain     mixing
     Exchange-correlation      = SLA PW PBX PBC ( 1  4  3  4 0 0)

     celldm(1)=   7.650000  celldm(2)=   0.000000  celldm(3)=   0.000000
     celldm(4)=   0.000000  celldm(5)=   0.000000  celldm(6)=   0.000000

     crystal axes: (cart. coord. in units of alat)
               a(1) = (  -0.500000   0.000000   0.500000 )  
               a(2) = (   0.000000   0.500000   0.500000 )  
               a(3) = (  -0.500000   0.500000   0.000000 )  

     reciprocal axes: (cart. coord. in units 2 pi/alat)
               b(1) = ( -1.000000 -1.000000  1.000000 )  
               b(2) = (  1.000000  1.000000  1.000000 )  
               b(3) = ( -1.000000  1.000000 -1.000000 )  


     PseudoPot. # 1 for Al read from file:
     /home/lorenzo/pseudos/Al/Al.pbe-nl-kjpaw_psl.1.0.0.UPF
     MD5 check sum: 8cf6d98cc7ef3f4b729b574060f3a10f
     Pseudo is Projector augmented-wave + core cor, Zval =  3.0
     Generated using "atomic" code by A. Dal Corso v.6.3
     Shape of augmentation charge: PSQ
     Using radial grid of 1135 points,  4 beta functions with: 
                l(1) =   0
                l(2) =   0
                l(3) =   1
                l(4) =   1
     Q(r) pseudized with 0 coefficients 


     atomic species   valence    mass     pseudopotential
        Al             3.00    26.98150     Al( 1.00)

     48 Sym. Ops., with inversion, found



   Cartesian axes

     site n.     atom                  positions (alat units)
         1           Al  tau(   1) = (   0.0000000   0.0000000   0.0000000  )

     number of k points=    47  gaussian smearing, width (Ry)=  0.0100
                       cart. coord. in units 2pi/alat
        k(    1) = (   0.0000000   0.0000000   0.0000000), wk =   0.0020000
        k(    2) = (  -0.1000000   0.1000000  -0.1000000), wk =   0.0160000
        k(    3) = (  -0.2000000   0.2000000  -0.2000000), wk =   0.0160000
        k(    4) = (  -0.3000000   0.3000000  -0.3000000), wk =   0.0160000
        k(    5) = (  -0.4000000   0.4000000  -0.4000000), wk =   0.0160000
        k(    6) = (   0.5000000  -0.5000000   0.5000000), wk =   0.0080000
        k(    7) = (   0.0000000   0.2000000   0.0000000), wk =   0.0120000
        k(    8) = (  -0.1000000   0.3000000  -0.1000000), wk =   0.0480000
        k(    9) = (  -0.2000000   0.4000000  -0.2000000), wk =   0.0480000
        k(   10) = (  -0.3000000   0.5000000  -0.3000000), wk =   0.0480000
        k(   11) = (   0.6000000  -0.4000000   0.6000000), wk =   0.0480000
        k(   12) = (   0.5000000  -0.3000000   0.5000000), wk =   0.0480000
        k(   13) = (   0.4000000  -0.2000000   0.4000000), wk =   0.0480000
        k(   14) = (   0.3000000  -0.1000000   0.3000000), wk =   0.0480000
        k(   15) = (   0.2000000   0.0000000   0.2000000), wk =   0.0240000
        k(   16) = (   0.0000000   0.4000000   0.0000000), wk =   0.0120000
        k(   17) = (  -0.1000000   0.5000000  -0.1000000), wk =   0.0480000
        k(   18) = (  -0.2000000   0.6000000  -0.2000000), wk =   0.0480000
        k(   19) = (   0.7000000  -0.3000000   0.7000000), wk =   0.0480000
        k(   20) = (   0.6000000  -0.2000000   0.6000000), wk =   0.0480000
        k(   21) = (   0.5000000  -0.1000000   0.5000000), wk =   0.0480000
        k(   22) = (   0.4000000   0.0000000   0.4000000), wk =   0.0240000
        k(   23) = (   0.0000000   0.6000000   0.0000000), wk =   0.0120000
        k(   24) = (  -0.1000000   0.7000000  -0.1000000), wk =   0.0480000
        k(   25) = (   0.8000000  -0.2000000   0.8000000), wk =   0.0480000
        k(   26) = (   0.7000000  -0.1000000   0.7000000), wk =   0.0480000
        k(   27) = (   0.6000000  -0.0000000   0.6000000), wk =   0.0240000
        k(   28) = (   0.0000000   0.8000000   0.0000000), wk =   0.0120000
        k(   29) = (   0.9000000  -0.1000000   0.9000000), wk =   0.0480000
        k(   30) = (   0.8000000   0.0000000   0.8000000), wk =   0.0240000
        k(   31) = (   0.0000000  -1.0000000   0.0000000), wk =   0.0060000
        k(   32) = (  -0.2000000   0.4000000   0.0000000), wk =   0.0480000
        k(   33) = (  -0.3000000   0.5000000  -0.1000000), wk =   0.0960000
        k(   34) = (   0.6000000  -0.4000000   0.8000000), wk =   0.0960000
        k(   35) = (   0.5000000  -0.3000000   0.7000000), wk =   0.0480000
        k(   36) = (  -0.2000000   0.6000000   0.0000000), wk =   0.0480000
        k(   37) = (   0.7000000  -0.3000000   0.9000000), wk =   0.0960000
        k(   38) = (   0.6000000  -0.2000000   0.8000000), wk =   0.0960000
        k(   39) = (   0.5000000  -0.1000000   0.7000000), wk =   0.0960000
        k(   40) = (   0.4000000   0.0000000   0.6000000), wk =   0.0480000
        k(   41) = (   0.8000000  -0.2000000   1.0000000), wk =   0.0480000
        k(   42) = (   0.7000000  -0.1000000   0.9000000), wk =   0.0960000
        k(   43) = (   0.6000000   0.0000000   0.8000000), wk =   0.0480000
        k(   44) = (  -0.2000000  -1.0000000   0.0000000), wk =   0.0240000
        k(   45) = (   0.6000000  -0.2000000   1.0000000), wk =   0.0480000
        k(   46) = (   0.5000000  -0.1000000   0.9000000), wk =   0.0480000
        k(   47) = (  -0.4000000  -1.0000000   0.0000000), wk =   0.0240000

     Dense  grid:     1917 G-vectors     FFT dimensions: (  18,  18,  18)

     Estimated max dynamical RAM per process >       1.03 MB

     Estimated total dynamical RAM >       5.15 MB

     Initial potential from superposition of free atoms

     starting charge    2.99771, renormalised to    3.00000
     Starting wfcs are    4 randomized atomic wfcs +    2 random wfcs
     Checking if some PAW data can be deallocated... 

     total cpu time spent up to now is        0.7 secs

     Self-consistent Calculation

     iteration #  1     ecut=    25.00 Ry     beta= 0.70
     Davidson diagonalization with overlap
     ethr =  1.00E-02,  avg # of iterations =  4.6

     Threshold (ethr) on eigenvalues was too large:
     Diagonalizing with lowered threshold

     Davidson diagonalization with overlap
     ethr =  1.93E-04,  avg # of iterations =  2.1

     total cpu time spent up to now is        1.1 secs

     total energy              =     -39.50110650 Ry
     Harris-Foulkes estimate   =     -39.50265855 Ry
     estimated scf accuracy    <       0.00571489 Ry

     iteration #  2     ecut=    25.00 Ry     beta= 0.70
     Davidson diagonalization with overlap
     ethr =  1.90E-04,  avg # of iterations =  1.0

     total cpu time spent up to now is        1.2 secs

     total energy              =     -39.50110411 Ry
     Harris-Foulkes estimate   =     -39.50120171 Ry
     estimated scf accuracy    <       0.00038794 Ry

     iteration #  3     ecut=    25.00 Ry     beta= 0.70
     Davidson diagonalization with overlap
     ethr =  1.29E-05,  avg # of iterations =  1.9

     total cpu time spent up to now is        1.4 secs

     total energy              =     -39.50112631 Ry
     Harris-Foulkes estimate   =     -39.50112694 Ry
     estimated scf accuracy    <       0.00000155 Ry

     iteration #  4     ecut=    25.00 Ry     beta= 0.70
     Davidson diagonalization with overlap
     ethr =  5.16E-08,  avg # of iterations =  2.9

     total cpu time spent up to now is        1.6 secs

     total energy              =     -39.50112829 Ry
     Harris-Foulkes estimate   =     -39.50112830 Ry
     estimated scf accuracy    <       0.00000011 Ry

     iteration #  5     ecut=    25.00 Ry     beta= 0.70
     Davidson diagonalization with overlap
     ethr =  3.83E-09,  avg # of iterations =  1.1

     total cpu time spent up to now is        1.7 secs

     End of self-consistent calculation

          k = 0.0000 0.0000 0.0000 (   259 PWs)   bands (ev):

    -3.2525  20.4646  20.4646  21.8747  21.8747  21.8747

          k =-0.1000 0.1000-0.1000 (   250 PWs)   bands (ev):

    -2.9817  17.1660  19.7238  19.7238  22.5619  23.0227

          k =-0.2000 0.2000-0.2000 (   244 PWs)   bands (ev):

    -2.1721  13.1785  18.9609  18.9609  22.2866  23.4497

          k =-0.3000 0.3000-0.3000 (   232 PWs)   bands (ev):

    -0.8328   9.4903  18.6112  18.6112  21.7134  21.7134

          k =-0.4000 0.4000-0.4000 (   235 PWs)   bands (ev):

     1.0218   6.2104  18.7042  18.7042  20.2679  20.2679

          k = 0.5000-0.5000 0.5000 (   242 PWs)   bands (ev):

     3.2760   3.4791  19.1936  19.1936  19.3165  19.3165

          k = 0.0000 0.2000 0.0000 (   250 PWs)   bands (ev):

    -2.8915  18.3238  18.3238  18.6299  21.0891  23.7602

          k =-0.1000 0.3000-0.1000 (   235 PWs)   bands (ev):

    -2.2618  14.6469  17.3474  18.7574  21.1434  21.9560

          k =-0.2000 0.4000-0.2000 (   239 PWs)   bands (ev):

    -1.0998  10.8825  16.8208  18.4253  19.1417  23.9778

          k =-0.3000 0.5000-0.3000 (   237 PWs)   bands (ev):

     0.5821   7.4754  16.7541  17.4665  18.4303  22.9654

          k = 0.6000-0.4000 0.6000 (   239 PWs)   bands (ev):

     2.7629   4.5039  16.2691  17.1482  18.8703  21.8303

          k = 0.5000-0.3000 0.5000 (   241 PWs)   bands (ev):

     1.9832   5.4408  15.5452  18.0035  19.7832  21.1344

          k = 0.4000-0.2000 0.4000 (   236 PWs)   bands (ev):

    -0.0352   8.5598  15.3069  19.3089  20.8977  21.1538

          k = 0.3000-0.1000 0.3000 (   240 PWs)   bands (ev):

    -1.5456  12.0764  15.5683  20.8380  21.2644  22.9169

          k = 0.2000 0.0000 0.2000 (   245 PWs)   bands (ev):

    -2.5313  15.5731  16.6391  21.1689  22.1889  23.3852

          k = 0.0000 0.4000 0.0000 (   234 PWs)   bands (ev):

    -1.8137  16.1931  16.1931  16.3036  18.5810  19.5605

          k =-0.1000 0.5000-0.1000 (   229 PWs)   bands (ev):

    -0.8330  12.6800  15.5030  16.2408  16.9376  20.2956

          k =-0.2000 0.6000-0.2000 (   232 PWs)   bands (ev):

     0.6691   9.2102  14.3882  15.2766  16.9493  22.8157

          k = 0.7000-0.3000 0.7000 (   237 PWs)   bands (ev):

     2.6743   6.1173  13.0006  15.5135  17.2769  24.8456

          k = 0.6000-0.2000 0.6000 (   238 PWs)   bands (ev):

     3.4522   5.1748  12.1100  16.2149  18.0714  24.0203

          k = 0.5000-0.1000 0.5000 (   238 PWs)   bands (ev):

     1.2842   8.0775  11.7591  17.3797  19.3360  23.6208

          k = 0.4000 0.0000 0.4000 (   240 PWs)   bands (ev):

    -0.3892  10.9303  12.3927  18.9993  21.0220  23.2708

          k = 0.0000 0.6000 0.0000 (   230 PWs)   bands (ev):

    -0.0362  13.7299  14.5544  14.6529  14.6529  18.1408

          k =-0.1000 0.7000-0.1000 (   233 PWs)   bands (ev):

     1.2806  11.2993  11.7255  14.2683  15.5904  19.1278

          k = 0.8000-0.2000 0.8000 (   234 PWs)   bands (ev):

     3.0969   8.1886  10.1216  14.3492  15.9511  21.9767

          k = 0.7000-0.1000 0.7000 (   236 PWs)   bands (ev):

     5.2688   5.5222   9.0871  14.8941  16.6286  25.3601

          k = 0.6000-0.0000 0.6000 (   236 PWs)   bands (ev):

     3.1095   7.5963   9.0752  15.9047  17.7644  26.9207

          k = 0.0000 0.8000 0.0000 (   230 PWs)   bands (ev):

     2.4047   9.4158  13.4944  13.7276  13.7276  17.1988

          k = 0.9000-0.1000 0.9000 (   233 PWs)   bands (ev):

     4.0006   7.6885  10.7016  13.6517  14.9087  18.5134

          k = 0.8000 0.0000 0.8000 (   228 PWs)   bands (ev):

     5.6009   6.9130   7.9341  14.0403  15.6119  21.6895

          k = 0.0000-1.0000 0.0000 (   230 PWs)   bands (ev):

     4.9373   6.2576  13.1381  13.4196  13.4196  16.8737

          k =-0.2000 0.4000 0.0000 (   234 PWs)   bands (ev):

    -1.4563  13.2640  14.5377  18.8647  19.8329  21.6102

          k =-0.3000 0.5000-0.1000 (   233 PWs)   bands (ev):

    -0.1238  10.0846  13.6807  16.8886  20.1466  23.1803

          k = 0.6000-0.4000 0.8000 (   237 PWs)   bands (ev):

     1.7208   6.8713  13.7099  15.3678  20.3372  22.0200

          k = 0.5000-0.3000 0.7000 (   238 PWs)   bands (ev):

     3.9454   4.1802  14.1072  14.4781  20.7589  21.1641

          k =-0.2000 0.6000 0.0000 (   233 PWs)   bands (ev):

     0.3169  11.6001  12.9087  14.1270  18.2606  20.3045

          k = 0.7000-0.3000 0.9000 (   238 PWs)   bands (ev):

     1.9793   8.7404  12.1312  12.6241  18.9458  22.5041

          k = 0.6000-0.2000 0.8000 (   239 PWs)   bands (ev):

     4.1257   5.8543  11.0935  12.7957  19.4855  24.0645

          k = 0.5000-0.1000 0.7000 (   236 PWs)   bands (ev):

     3.3658   6.7289  10.4223  13.6701  20.4071  23.3696

          k = 0.4000 0.0000 0.6000 (   235 PWs)   bands (ev):

     1.3710   9.2633  10.7470  15.0457  21.7152  22.5118

          k = 0.8000-0.2000 1.0000 (   236 PWs)   bands (ev):

     2.7512   9.7328  10.5985  12.0350  17.2828  19.4346

          k = 0.7000-0.1000 0.9000 (   234 PWs)   bands (ev):

     4.6815   7.9843   8.4724  11.7681  18.3107  21.9647

          k = 0.6000 0.0000 0.8000 (   232 PWs)   bands (ev):

     5.4871   6.5980   8.0460  12.4538  19.1810  25.3462

          k =-0.2000-1.0000 0.0000 (   236 PWs)   bands (ev):

     5.2690   6.6051  10.2639  11.6945  16.9545  19.1352

          k = 0.6000-0.2000 1.0000 (   243 PWs)   bands (ev):

     3.7858   8.2623   9.6608  10.8950  21.5862  22.9289

          k = 0.5000-0.1000 0.9000 (   236 PWs)   bands (ev):

     5.9269   6.1570   9.4632  10.0901  22.5470  23.0154

          k =-0.4000-1.0000 0.0000 (   234 PWs)   bands (ev):

     6.2653   7.5954   7.9294   9.5248  21.2693  22.8377

     the Fermi energy is     7.9874 ev

!    total energy              =     -39.50112830 Ry
     Harris-Foulkes estimate   =     -39.50112830 Ry
     estimated scf accuracy    <          7.8E-09 Ry

     total all-electron energy =      -485.643909 Ry

     The total energy is the sum of the following terms:

     one-electron contribution =       3.15235941 Ry
     hartree contribution      =       0.00590979 Ry
     xc contribution           =      -2.58784100 Ry
     ewald contribution        =      -5.39395546 Ry
     one-center paw contrib.   =     -34.67699752 Ry
     smearing contrib. (-TS)   =      -0.00060352 Ry

     convergence has been achieved in   5 iterations

     Forces acting on atoms (cartesian axes, Ry/au):

     atom    1 type  1   force =     0.00000000    0.00000000    0.00000000

     Total force =     0.000000     Total SCF correction =     0.000000


     Computing stress (Cartesian axis) and pressure

          total   stress  (Ry/bohr**3)                   (kbar)     P=   -5.43
  -0.00003692  -0.00000000  -0.00000000         -5.43     -0.00     -0.00
  -0.00000000  -0.00003692   0.00000000         -0.00     -5.43      0.00
  -0.00000000   0.00000000  -0.00003692         -0.00      0.00     -5.43


     Writing output data file Al.save/

     init_run     :      0.13s CPU      0.14s WALL (       1 calls)
     electrons    :      0.90s CPU      1.03s WALL (       1 calls)
     forces       :      0.01s CPU      0.01s WALL (       1 calls)
     stress       :      0.05s CPU      0.05s WALL (       1 calls)

     Called by init_run:
     wfcinit      :      0.04s CPU      0.04s WALL (       1 calls)
     potinit      :      0.04s CPU      0.04s WALL (       1 calls)
     hinit0       :      0.06s CPU      0.06s WALL (       1 calls)

     Called by electrons:
     c_bands      :      0.66s CPU      0.74s WALL (       6 calls)
     sum_band     :      0.10s CPU      0.12s WALL (       6 calls)
     v_of_rho     :      0.01s CPU      0.01s WALL (       6 calls)
     newd         :      0.00s CPU      0.00s WALL (       6 calls)
     PAW_pot      :      0.15s CPU      0.19s WALL (       6 calls)
     mix_rho      :      0.00s CPU      0.00s WALL (       6 calls)

     Called by c_bands:
     init_us_2    :      0.01s CPU      0.01s WALL (     705 calls)
     cegterg      :      0.64s CPU      0.72s WALL (     282 calls)

     Called by sum_band:
     sum_band:bec :      0.00s CPU      0.00s WALL (     282 calls)
     addusdens    :      0.00s CPU      0.00s WALL (       6 calls)

     Called by *egterg:
     h_psi        :      0.49s CPU      0.56s WALL (     969 calls)
     s_psi        :      0.01s CPU      0.01s WALL (     969 calls)
     g_psi        :      0.00s CPU      0.00s WALL (     640 calls)
     cdiaghg      :      0.08s CPU      0.09s WALL (     875 calls)

     Called by h_psi:
     h_psi:pot    :      0.49s CPU      0.55s WALL (     969 calls)
     h_psi:calbec :      0.03s CPU      0.03s WALL (     969 calls)
     vloc_psi     :      0.45s CPU      0.50s WALL (     969 calls)
     add_vuspsi   :      0.01s CPU      0.01s WALL (     969 calls)

     General routines
     calbec       :      0.05s CPU      0.06s WALL (    1486 calls)
     fft          :      0.01s CPU      0.01s WALL (      93 calls)
     ffts         :      0.00s CPU      0.00s WALL (       6 calls)
     fftw         :      0.49s CPU      0.55s WALL (   10696 calls)

     Parallel routines
     fft_scatt_xy :      0.04s CPU      0.04s WALL (   10795 calls)
     fft_scatt_yz :      0.22s CPU      0.24s WALL (   10795 calls)

     PWSCF        :     1.67s CPU         1.88s WALL


   This run was terminated on:  19:56:14  25Mar2024            

=------------------------------------------------------------------------------=
   JOB DONE.
=------------------------------------------------------------------------------=
