
     Program PWSCF v.6.3MaX starts on 25Mar2024 at 19:54:10 

     This program is part of the open-source Quantum ESPRESSO suite
     for quantum simulation of materials; please cite
         "P. Giannozzi et al., J. Phys.:Condens. Matter 21 395502 (2009);
         "P. Giannozzi et al., J. Phys.:Condens. Matter 29 465901 (2017);
          URL http://www.quantum-espresso.org", 
     in publications or presentations arising from this work. More details at
     http://www.quantum-espresso.org/quote

     Parallel version (MPI), running on     5 processors

     MPI processes distributed on     1 nodes
     R & G space division:  proc/nbgrp/npool/nimage =       5
     Waiting for input...
     Reading input from standard input

     Current dimensions of program PWSCF are:
     Max number of different atomic species (ntypx) = 10
     Max number of k-points (npk) =  40000
     Max angular momentum in pseudopotentials (lmaxx) =  3
               file Al.pbe-n-kjpaw_psl.1.0.0.UPF: wavefunction(s)  3S 3P renormalized

     Subspace diagonalization in iterative solution of the eigenvalue problem:
     a serial algorithm will be used


     Parallelization info
     --------------------
     sticks:   dense  smooth     PW     G-vecs:    dense   smooth      PW
     Min          17      17      7                  106      106      27
     Max          17      17      8                  107      107      28
     Sum          85      85     37                  531      531     137



     bravais-lattice index     =            2
     lattice parameter (alat)  =       7.6500  a.u.
     unit-cell volume          =     111.9243 (a.u.)^3
     number of atoms/cell      =            1
     number of atomic types    =            1
     number of electrons       =         3.00
     number of Kohn-Sham states=            6
     kinetic-energy cutoff     =      10.0000  Ry
     charge density cutoff     =      40.0000  Ry
     convergence threshold     =      1.0E-08
     mixing beta               =       0.7000
     number of iterations used =            8  plain     mixing
     Exchange-correlation      = SLA PW PBX PBC ( 1  4  3  4 0 0)

     celldm(1)=   7.650000  celldm(2)=   0.000000  celldm(3)=   0.000000
     celldm(4)=   0.000000  celldm(5)=   0.000000  celldm(6)=   0.000000

     crystal axes: (cart. coord. in units of alat)
               a(1) = (  -0.500000   0.000000   0.500000 )  
               a(2) = (   0.000000   0.500000   0.500000 )  
               a(3) = (  -0.500000   0.500000   0.000000 )  

     reciprocal axes: (cart. coord. in units 2 pi/alat)
               b(1) = ( -1.000000 -1.000000  1.000000 )  
               b(2) = (  1.000000  1.000000  1.000000 )  
               b(3) = ( -1.000000  1.000000 -1.000000 )  


     PseudoPot. # 1 for Al read from file:
     /home/lorenzo/pseudos/Al/Al.pbe-n-kjpaw_psl.1.0.0.UPF
     MD5 check sum: 502b6b27b9c6270cab5dd1084b96fa6d
     Pseudo is Projector augmented-wave + core cor, Zval =  3.0
     Generated using "atomic" code by A. Dal Corso v.6.3
     Shape of augmentation charge: PSQ
     Using radial grid of 1135 points,  6 beta functions with: 
                l(1) =   0
                l(2) =   0
                l(3) =   1
                l(4) =   1
                l(5) =   2
                l(6) =   2
     Q(r) pseudized with 0 coefficients 


     atomic species   valence    mass     pseudopotential
        Al             3.00    26.98150     Al( 1.00)

     48 Sym. Ops., with inversion, found



   Cartesian axes

     site n.     atom                  positions (alat units)
         1           Al  tau(   1) = (   0.0000000   0.0000000   0.0000000  )

     number of k points=    35  gaussian smearing, width (Ry)=  0.0100
                       cart. coord. in units 2pi/alat
        k(    1) = (   0.0000000   0.0000000   0.0000000), wk =   0.0027435
        k(    2) = (  -0.1111111   0.1111111  -0.1111111), wk =   0.0219479
        k(    3) = (  -0.2222222   0.2222222  -0.2222222), wk =   0.0219479
        k(    4) = (  -0.3333333   0.3333333  -0.3333333), wk =   0.0219479
        k(    5) = (  -0.4444444   0.4444444  -0.4444444), wk =   0.0219479
        k(    6) = (   0.0000000   0.2222222   0.0000000), wk =   0.0164609
        k(    7) = (  -0.1111111   0.3333333  -0.1111111), wk =   0.0658436
        k(    8) = (  -0.2222222   0.4444444  -0.2222222), wk =   0.0658436
        k(    9) = (  -0.3333333   0.5555556  -0.3333333), wk =   0.0658436
        k(   10) = (   0.5555556  -0.3333333   0.5555556), wk =   0.0658436
        k(   11) = (   0.4444444  -0.2222222   0.4444444), wk =   0.0658436
        k(   12) = (   0.3333333  -0.1111111   0.3333333), wk =   0.0658436
        k(   13) = (   0.2222222  -0.0000000   0.2222222), wk =   0.0329218
        k(   14) = (   0.0000000   0.4444444   0.0000000), wk =   0.0164609
        k(   15) = (  -0.1111111   0.5555556  -0.1111111), wk =   0.0658436
        k(   16) = (  -0.2222222   0.6666667  -0.2222222), wk =   0.0658436
        k(   17) = (   0.6666667  -0.2222222   0.6666667), wk =   0.0658436
        k(   18) = (   0.5555556  -0.1111111   0.5555556), wk =   0.0658436
        k(   19) = (   0.4444444   0.0000000   0.4444444), wk =   0.0329218
        k(   20) = (   0.0000000   0.6666667   0.0000000), wk =   0.0164609
        k(   21) = (  -0.1111111   0.7777778  -0.1111111), wk =   0.0658436
        k(   22) = (   0.7777778  -0.1111111   0.7777778), wk =   0.0658436
        k(   23) = (   0.6666667  -0.0000000   0.6666667), wk =   0.0329218
        k(   24) = (   0.0000000   0.8888889   0.0000000), wk =   0.0164609
        k(   25) = (   0.8888889   0.0000000   0.8888889), wk =   0.0329218
        k(   26) = (  -0.2222222   0.4444444   0.0000000), wk =   0.0658436
        k(   27) = (  -0.3333333   0.5555556  -0.1111111), wk =   0.1316872
        k(   28) = (   0.5555556  -0.3333333   0.7777778), wk =   0.1316872
        k(   29) = (  -0.2222222   0.6666667   0.0000000), wk =   0.0658436
        k(   30) = (   0.6666667  -0.2222222   0.8888889), wk =   0.1316872
        k(   31) = (   0.5555556  -0.1111111   0.7777778), wk =   0.1316872
        k(   32) = (   0.4444444   0.0000000   0.6666667), wk =   0.0658436
        k(   33) = (   0.7777778  -0.1111111   1.0000000), wk =   0.0658436
        k(   34) = (   0.6666667  -0.0000000   0.8888889), wk =   0.0658436
        k(   35) = (   0.5555556  -0.1111111   1.0000000), wk =   0.0658436

     Dense  grid:      531 G-vectors     FFT dimensions: (  12,  12,  12)

     Estimated max dynamical RAM per process >       1.07 MB

     Estimated total dynamical RAM >       5.33 MB

     Initial potential from superposition of free atoms

     starting charge    2.99771, renormalised to    3.00000
     Starting wfcs are    4 randomized atomic wfcs +    2 random wfcs
     Checking if some PAW data can be deallocated... 

     total cpu time spent up to now is        0.9 secs

     Self-consistent Calculation

     iteration #  1     ecut=    10.00 Ry     beta= 0.70
     Davidson diagonalization with overlap
     ethr =  1.00E-02,  avg # of iterations =  4.3

     Threshold (ethr) on eigenvalues was too large:
     Diagonalizing with lowered threshold

     Davidson diagonalization with overlap
     ethr =  1.87E-04,  avg # of iterations =  1.1

     total cpu time spent up to now is        1.2 secs

     total energy              =     -39.49753171 Ry
     Harris-Foulkes estimate   =     -39.49873815 Ry
     estimated scf accuracy    <       0.00557278 Ry

     iteration #  2     ecut=    10.00 Ry     beta= 0.70
     Davidson diagonalization with overlap
     ethr =  1.86E-04,  avg # of iterations =  1.0

     total cpu time spent up to now is        1.3 secs

     total energy              =     -39.49748171 Ry
     Harris-Foulkes estimate   =     -39.49757535 Ry
     estimated scf accuracy    <       0.00041016 Ry

     iteration #  3     ecut=    10.00 Ry     beta= 0.70
     Davidson diagonalization with overlap
     ethr =  1.37E-05,  avg # of iterations =  1.3

     total cpu time spent up to now is        1.5 secs

     total energy              =     -39.49748950 Ry
     Harris-Foulkes estimate   =     -39.49748964 Ry
     estimated scf accuracy    <       0.00000048 Ry

     iteration #  4     ecut=    10.00 Ry     beta= 0.70
     Davidson diagonalization with overlap
     ethr =  1.60E-08,  avg # of iterations =  2.7

     total cpu time spent up to now is        1.7 secs

     End of self-consistent calculation

          k = 0.0000 0.0000 0.0000 (    59 PWs)   bands (ev):

    -3.2463  20.7213  20.7213  21.8944  21.8944  21.8944

          k =-0.1111 0.1111-0.1111 (    59 PWs)   bands (ev):

    -2.9120  16.8183  19.7700  19.7700  22.6588  23.3448

          k =-0.2222 0.2222-0.2222 (    62 PWs)   bands (ev):

    -1.9143  12.3783  18.9485  18.9485  22.3712  23.2590

          k =-0.3333 0.3333-0.3333 (    64 PWs)   bands (ev):

    -0.2654   8.3767  18.6788  18.6788  21.3374  21.3375

          k =-0.4444 0.4444-0.4444 (    61 PWs)   bands (ev):

     2.0138   4.9145  18.9709  18.9709  19.9154  19.9155

          k = 0.0000 0.2222 0.0000 (    60 PWs)   bands (ev):

    -2.8009  18.1562  18.1562  18.5418  20.9700  23.4063

          k =-0.1111 0.3333-0.1111 (    60 PWs)   bands (ev):

    -2.0245  14.0386  17.1052  18.6478  20.5309  22.0330

          k =-0.2222 0.4444-0.2222 (    60 PWs)   bands (ev):

    -0.5938   9.9195  16.6273  18.2736  18.3922  24.4967

          k =-0.3333 0.5556-0.3333 (    61 PWs)   bands (ev):

     1.4742   6.2837  16.6086  16.7390  18.5285  22.9286

          k = 0.5556-0.3333 0.5556 (    61 PWs)   bands (ev):

     3.1864   4.1758  15.4950  17.4247  19.2728  21.8693

          k = 0.4444-0.2222 0.4444 (    62 PWs)   bands (ev):

     0.7157   7.4294  14.9946  18.6787  20.5906  21.3837

          k = 0.3333-0.1111 0.3333 (    60 PWs)   bands (ev):

    -1.1424  11.2214  15.1147  20.4294  21.5041  22.4849

          k = 0.2222-0.0000 0.2222 (    61 PWs)   bands (ev):

    -2.3569  15.0855  16.2007  21.6015  22.1485  23.6299

          k = 0.0000 0.4444 0.0000 (    60 PWs)   bands (ev):

    -1.4725  15.8425  15.8425  16.0176  17.5708  19.3008

          k =-0.1111 0.5556-0.1111 (    58 PWs)   bands (ev):

    -0.2651  11.9929  15.0522  15.1690  16.7275  20.3661

          k =-0.2222 0.6667-0.2222 (    62 PWs)   bands (ev):

     1.5801   8.2502  13.1130  15.0826  16.8614  23.4294

          k = 0.6667-0.2222 0.6667 (    60 PWs)   bands (ev):

     4.0251   5.0260  11.7959  15.5722  17.4705  25.3132

          k = 0.5556-0.1111 0.5556 (    61 PWs)   bands (ev):

     2.3364   7.0612  11.1240  16.6381  18.6370  24.6413

          k = 0.4444 0.0000 0.4444 (    57 PWs)   bands (ev):

     0.2808  10.1236  11.5987  18.2982  20.3889  24.2330

          k = 0.0000 0.6667 0.0000 (    52 PWs)   bands (ev):

     0.7147  12.2959  14.2874  14.3039  14.3039  17.9686

          k =-0.1111 0.7778-0.1111 (    58 PWs)   bands (ev):

     2.3277  10.0876  10.7993  14.0130  15.4847  19.2806

          k = 0.7778-0.1111 0.7778 (    59 PWs)   bands (ev):

     4.5244   7.3882   8.6542  14.3088  16.0493  22.7441

          k = 0.6667-0.0000 0.6667 (    63 PWs)   bands (ev):

     4.5703   6.7968   8.2741  15.1747  17.0516  26.7439

          k = 0.0000 0.8889 0.0000 (    64 PWs)   bands (ev):

     3.6778   7.7530  13.3809  13.5260  13.5260  17.0953

          k = 0.8889 0.0000 0.8889 (    60 PWs)   bands (ev):

     5.1471   6.5134  10.3527  13.6244  15.0602  18.8746

          k =-0.2222 0.4444 0.0000 (    59 PWs)   bands (ev):

    -1.0323  12.6196  13.9213  17.9433  20.0428  21.7450

          k =-0.3333 0.5556-0.1111 (    61 PWs)   bands (ev):

     0.6069   9.1481  13.1331  15.8521  20.4565  23.1655

          k = 0.5556-0.3333 0.7778 (    60 PWs)   bands (ev):

     2.8711   5.7478  13.3798  14.3630  20.8018  21.9190

          k =-0.2222 0.6667 0.0000 (    58 PWs)   bands (ev):

     1.1476  10.9549  12.2147  12.8546  18.4485  20.4867

          k = 0.6667-0.2222 0.8889 (    57 PWs)   bands (ev):

     3.1843   7.8945  10.9280  12.0036  19.3465  23.2020

          k = 0.5556-0.1111 0.7778 (    60 PWs)   bands (ev):

     4.8717   5.8147   9.8731  12.6334  20.1545  24.4759

          k = 0.4444 0.0000 0.6667 (    61 PWs)   bands (ev):

     2.4421   8.4577   9.9420  13.9401  21.4323  23.4010

          k = 0.7778-0.1111 1.0000 (    58 PWs)   bands (ev):

     4.1034   8.1713  10.1248  11.5762  17.6418  19.7435

          k = 0.6667-0.0000 0.8889 (    60 PWs)   bands (ev):

     5.9733   7.1961   7.6705  11.5521  18.9582  22.8725

          k = 0.5556-0.1111 1.0000 (    61 PWs)   bands (ev):

     5.3649   7.6298   8.9061   9.7028  22.6257  23.5289

     the Fermi energy is     7.8546 ev

!    total energy              =     -39.49749011 Ry
     Harris-Foulkes estimate   =     -39.49749011 Ry
     estimated scf accuracy    <          4.2E-09 Ry

     total all-electron energy =      -485.640270 Ry

     The total energy is the sum of the following terms:

     one-electron contribution =       3.15716659 Ry
     hartree contribution      =       0.00610692 Ry
     xc contribution           =      -2.58754056 Ry
     ewald contribution        =      -5.39395546 Ry
     one-center paw contrib.   =     -34.67885745 Ry
     smearing contrib. (-TS)   =      -0.00041015 Ry

     convergence has been achieved in   4 iterations

     Forces acting on atoms (cartesian axes, Ry/au):

     atom    1 type  1   force =     0.00000000    0.00000000    0.00000000

     Total force =     0.000000     Total SCF correction =     0.000000


     Computing stress (Cartesian axis) and pressure

          total   stress  (Ry/bohr**3)                   (kbar)     P=   -3.48
  -0.00002363  -0.00000000  -0.00000000         -3.48     -0.00     -0.00
  -0.00000000  -0.00002363   0.00000000         -0.00     -3.48      0.00
  -0.00000000   0.00000000  -0.00002363         -0.00      0.00     -3.48


     Writing output data file Al.save/

     init_run     :      0.18s CPU      0.20s WALL (       1 calls)
     electrons    :      0.67s CPU      0.79s WALL (       1 calls)
     forces       :      0.01s CPU      0.01s WALL (       1 calls)
     stress       :      0.03s CPU      0.03s WALL (       1 calls)

     Called by init_run:
     wfcinit      :      0.02s CPU      0.02s WALL (       1 calls)
     potinit      :      0.09s CPU      0.10s WALL (       1 calls)
     hinit0       :      0.06s CPU      0.06s WALL (       1 calls)

     Called by electrons:
     c_bands      :      0.23s CPU      0.26s WALL (       5 calls)
     sum_band     :      0.04s CPU      0.05s WALL (       5 calls)
     v_of_rho     :      0.00s CPU      0.00s WALL (       5 calls)
     newd         :      0.01s CPU      0.01s WALL (       5 calls)
     PAW_pot      :      0.48s CPU      0.55s WALL (       5 calls)
     mix_rho      :      0.00s CPU      0.00s WALL (       5 calls)

     Called by c_bands:
     init_us_2    :      0.01s CPU      0.01s WALL (     455 calls)
     cegterg      :      0.21s CPU      0.25s WALL (     175 calls)

     Called by sum_band:
     sum_band:bec :      0.00s CPU      0.00s WALL (     175 calls)
     addusdens    :      0.00s CPU      0.00s WALL (       5 calls)

     Called by *egterg:
     h_psi        :      0.14s CPU      0.17s WALL (     575 calls)
     s_psi        :      0.00s CPU      0.01s WALL (     575 calls)
     g_psi        :      0.00s CPU      0.00s WALL (     365 calls)
     cdiaghg      :      0.04s CPU      0.05s WALL (     505 calls)

     Called by h_psi:
     h_psi:pot    :      0.14s CPU      0.16s WALL (     575 calls)
     h_psi:calbec :      0.01s CPU      0.01s WALL (     575 calls)
     vloc_psi     :      0.12s CPU      0.14s WALL (     575 calls)
     add_vuspsi   :      0.00s CPU      0.01s WALL (     575 calls)

     General routines
     calbec       :      0.02s CPU      0.02s WALL (     925 calls)
     fft          :      0.00s CPU      0.00s WALL (      82 calls)
     ffts         :      0.00s CPU      0.00s WALL (       5 calls)
     fftw         :      0.13s CPU      0.15s WALL (    6644 calls)

     Parallel routines
     fft_scatt_xy :      0.01s CPU      0.02s WALL (    6731 calls)
     fft_scatt_yz :      0.06s CPU      0.07s WALL (    6731 calls)

     PWSCF        :     1.60s CPU         1.80s WALL


   This run was terminated on:  19:54:12  25Mar2024            

=------------------------------------------------------------------------------=
   JOB DONE.
=------------------------------------------------------------------------------=
