
     Program PWSCF v.6.3MaX starts on 25Mar2024 at 20: 0:23 

     This program is part of the open-source Quantum ESPRESSO suite
     for quantum simulation of materials; please cite
         "P. Giannozzi et al., J. Phys.:Condens. Matter 21 395502 (2009);
         "P. Giannozzi et al., J. Phys.:Condens. Matter 29 465901 (2017);
          URL http://www.quantum-espresso.org", 
     in publications or presentations arising from this work. More details at
     http://www.quantum-espresso.org/quote

     Parallel version (MPI), running on     5 processors

     MPI processes distributed on     1 nodes
     R & G space division:  proc/nbgrp/npool/nimage =       5
     Waiting for input...
     Reading input from standard input

     Current dimensions of program PWSCF are:
     Max number of different atomic species (ntypx) = 10
     Max number of k-points (npk) =  40000
     Max angular momentum in pseudopotentials (lmaxx) =  3
               file Al.pbe-nl-kjpaw_psl.1.0.0.UPF: wavefunction(s)  3S 3P renormalized

     Subspace diagonalization in iterative solution of the eigenvalue problem:
     a serial algorithm will be used


     Parallelization info
     --------------------
     sticks:   dense  smooth     PW     G-vecs:    dense   smooth      PW
     Min          72      72     24                  914      914     178
     Max          73      73     25                  916      916     181
     Sum         361     361    121                 4573     4573     893



     bravais-lattice index     =            2
     lattice parameter (alat)  =       7.6500  a.u.
     unit-cell volume          =     111.9243 (a.u.)^3
     number of atoms/cell      =            1
     number of atomic types    =            1
     number of electrons       =         3.00
     number of Kohn-Sham states=            6
     kinetic-energy cutoff     =      45.0000  Ry
     charge density cutoff     =     180.0000  Ry
     convergence threshold     =      1.0E-08
     mixing beta               =       0.7000
     number of iterations used =            8  plain     mixing
     Exchange-correlation      = SLA PW PBX PBC ( 1  4  3  4 0 0)

     celldm(1)=   7.650000  celldm(2)=   0.000000  celldm(3)=   0.000000
     celldm(4)=   0.000000  celldm(5)=   0.000000  celldm(6)=   0.000000

     crystal axes: (cart. coord. in units of alat)
               a(1) = (  -0.500000   0.000000   0.500000 )  
               a(2) = (   0.000000   0.500000   0.500000 )  
               a(3) = (  -0.500000   0.500000   0.000000 )  

     reciprocal axes: (cart. coord. in units 2 pi/alat)
               b(1) = ( -1.000000 -1.000000  1.000000 )  
               b(2) = (  1.000000  1.000000  1.000000 )  
               b(3) = ( -1.000000  1.000000 -1.000000 )  


     PseudoPot. # 1 for Al read from file:
     /home/lorenzo/pseudos/Al/Al.pbe-nl-kjpaw_psl.1.0.0.UPF
     MD5 check sum: 8cf6d98cc7ef3f4b729b574060f3a10f
     Pseudo is Projector augmented-wave + core cor, Zval =  3.0
     Generated using "atomic" code by A. Dal Corso v.6.3
     Shape of augmentation charge: PSQ
     Using radial grid of 1135 points,  4 beta functions with: 
                l(1) =   0
                l(2) =   0
                l(3) =   1
                l(4) =   1
     Q(r) pseudized with 0 coefficients 


     atomic species   valence    mass     pseudopotential
        Al             3.00    26.98150     Al( 1.00)

     48 Sym. Ops., with inversion, found



   Cartesian axes

     site n.     atom                  positions (alat units)
         1           Al  tau(   1) = (   0.0000000   0.0000000   0.0000000  )

     number of k points=    47  gaussian smearing, width (Ry)=  0.0100
                       cart. coord. in units 2pi/alat
        k(    1) = (   0.0000000   0.0000000   0.0000000), wk =   0.0020000
        k(    2) = (  -0.1000000   0.1000000  -0.1000000), wk =   0.0160000
        k(    3) = (  -0.2000000   0.2000000  -0.2000000), wk =   0.0160000
        k(    4) = (  -0.3000000   0.3000000  -0.3000000), wk =   0.0160000
        k(    5) = (  -0.4000000   0.4000000  -0.4000000), wk =   0.0160000
        k(    6) = (   0.5000000  -0.5000000   0.5000000), wk =   0.0080000
        k(    7) = (   0.0000000   0.2000000   0.0000000), wk =   0.0120000
        k(    8) = (  -0.1000000   0.3000000  -0.1000000), wk =   0.0480000
        k(    9) = (  -0.2000000   0.4000000  -0.2000000), wk =   0.0480000
        k(   10) = (  -0.3000000   0.5000000  -0.3000000), wk =   0.0480000
        k(   11) = (   0.6000000  -0.4000000   0.6000000), wk =   0.0480000
        k(   12) = (   0.5000000  -0.3000000   0.5000000), wk =   0.0480000
        k(   13) = (   0.4000000  -0.2000000   0.4000000), wk =   0.0480000
        k(   14) = (   0.3000000  -0.1000000   0.3000000), wk =   0.0480000
        k(   15) = (   0.2000000   0.0000000   0.2000000), wk =   0.0240000
        k(   16) = (   0.0000000   0.4000000   0.0000000), wk =   0.0120000
        k(   17) = (  -0.1000000   0.5000000  -0.1000000), wk =   0.0480000
        k(   18) = (  -0.2000000   0.6000000  -0.2000000), wk =   0.0480000
        k(   19) = (   0.7000000  -0.3000000   0.7000000), wk =   0.0480000
        k(   20) = (   0.6000000  -0.2000000   0.6000000), wk =   0.0480000
        k(   21) = (   0.5000000  -0.1000000   0.5000000), wk =   0.0480000
        k(   22) = (   0.4000000   0.0000000   0.4000000), wk =   0.0240000
        k(   23) = (   0.0000000   0.6000000   0.0000000), wk =   0.0120000
        k(   24) = (  -0.1000000   0.7000000  -0.1000000), wk =   0.0480000
        k(   25) = (   0.8000000  -0.2000000   0.8000000), wk =   0.0480000
        k(   26) = (   0.7000000  -0.1000000   0.7000000), wk =   0.0480000
        k(   27) = (   0.6000000  -0.0000000   0.6000000), wk =   0.0240000
        k(   28) = (   0.0000000   0.8000000   0.0000000), wk =   0.0120000
        k(   29) = (   0.9000000  -0.1000000   0.9000000), wk =   0.0480000
        k(   30) = (   0.8000000   0.0000000   0.8000000), wk =   0.0240000
        k(   31) = (   0.0000000  -1.0000000   0.0000000), wk =   0.0060000
        k(   32) = (  -0.2000000   0.4000000   0.0000000), wk =   0.0480000
        k(   33) = (  -0.3000000   0.5000000  -0.1000000), wk =   0.0960000
        k(   34) = (   0.6000000  -0.4000000   0.8000000), wk =   0.0960000
        k(   35) = (   0.5000000  -0.3000000   0.7000000), wk =   0.0480000
        k(   36) = (  -0.2000000   0.6000000   0.0000000), wk =   0.0480000
        k(   37) = (   0.7000000  -0.3000000   0.9000000), wk =   0.0960000
        k(   38) = (   0.6000000  -0.2000000   0.8000000), wk =   0.0960000
        k(   39) = (   0.5000000  -0.1000000   0.7000000), wk =   0.0960000
        k(   40) = (   0.4000000   0.0000000   0.6000000), wk =   0.0480000
        k(   41) = (   0.8000000  -0.2000000   1.0000000), wk =   0.0480000
        k(   42) = (   0.7000000  -0.1000000   0.9000000), wk =   0.0960000
        k(   43) = (   0.6000000   0.0000000   0.8000000), wk =   0.0480000
        k(   44) = (  -0.2000000  -1.0000000   0.0000000), wk =   0.0240000
        k(   45) = (   0.6000000  -0.2000000   1.0000000), wk =   0.0480000
        k(   46) = (   0.5000000  -0.1000000   0.9000000), wk =   0.0480000
        k(   47) = (  -0.4000000  -1.0000000   0.0000000), wk =   0.0240000

     Dense  grid:     4573 G-vectors     FFT dimensions: (  24,  24,  24)

     Estimated max dynamical RAM per process >       2.17 MB

     Estimated total dynamical RAM >      10.83 MB

     Initial potential from superposition of free atoms

     starting charge    2.99771, renormalised to    3.00000
     Starting wfcs are    4 randomized atomic wfcs +    2 random wfcs
     Checking if some PAW data can be deallocated... 

     total cpu time spent up to now is        0.7 secs

     Self-consistent Calculation

     iteration #  1     ecut=    45.00 Ry     beta= 0.70
     Davidson diagonalization with overlap
     ethr =  1.00E-02,  avg # of iterations =  4.8

     Threshold (ethr) on eigenvalues was too large:
     Diagonalizing with lowered threshold

     Davidson diagonalization with overlap
     ethr =  1.93E-04,  avg # of iterations =  1.9

     total cpu time spent up to now is        1.4 secs

     total energy              =     -39.50145281 Ry
     Harris-Foulkes estimate   =     -39.50300248 Ry
     estimated scf accuracy    <       0.00571943 Ry

     iteration #  2     ecut=    45.00 Ry     beta= 0.70
     Davidson diagonalization with overlap
     ethr =  1.91E-04,  avg # of iterations =  1.1

     total cpu time spent up to now is        1.7 secs

     total energy              =     -39.50145599 Ry
     Harris-Foulkes estimate   =     -39.50155190 Ry
     estimated scf accuracy    <       0.00038622 Ry

     iteration #  3     ecut=    45.00 Ry     beta= 0.70
     Davidson diagonalization with overlap
     ethr =  1.29E-05,  avg # of iterations =  1.9

     total cpu time spent up to now is        2.0 secs

     total energy              =     -39.50147836 Ry
     Harris-Foulkes estimate   =     -39.50147899 Ry
     estimated scf accuracy    <       0.00000149 Ry

     iteration #  4     ecut=    45.00 Ry     beta= 0.70
     Davidson diagonalization with overlap
     ethr =  4.96E-08,  avg # of iterations =  3.0

     total cpu time spent up to now is        2.3 secs

     total energy              =     -39.50148030 Ry
     Harris-Foulkes estimate   =     -39.50148029 Ry
     estimated scf accuracy    <       0.00000010 Ry

     iteration #  5     ecut=    45.00 Ry     beta= 0.70
     Davidson diagonalization with overlap
     ethr =  3.31E-09,  avg # of iterations =  1.1

     total cpu time spent up to now is        2.5 secs

     total energy              =     -39.50148029 Ry
     Harris-Foulkes estimate   =     -39.50148030 Ry
     estimated scf accuracy    <       0.00000003 Ry

     iteration #  6     ecut=    45.00 Ry     beta= 0.70
     Davidson diagonalization with overlap
     ethr =  1.05E-09,  avg # of iterations =  1.0

     total cpu time spent up to now is        2.8 secs

     End of self-consistent calculation

          k = 0.0000 0.0000 0.0000 (   537 PWs)   bands (ev):

    -3.2531  20.4378  20.4378  21.8737  21.8738  21.8738

          k =-0.1000 0.1000-0.1000 (   555 PWs)   bands (ev):

    -2.9822  17.1518  19.7045  19.7045  22.5518  23.0085

          k =-0.2000 0.2000-0.2000 (   564 PWs)   bands (ev):

    -2.1728  13.1693  18.9456  18.9456  22.2725  23.4211

          k =-0.3000 0.3000-0.3000 (   571 PWs)   bands (ev):

    -0.8337   9.4856  18.5948  18.5948  21.6845  21.6845

          k =-0.4000 0.4000-0.4000 (   586 PWs)   bands (ev):

     1.0208   6.2080  18.6893  18.6893  20.2449  20.2449

          k = 0.5000-0.5000 0.5000 (   568 PWs)   bands (ev):

     3.2753   3.4772  19.1926  19.1926  19.2877  19.2877

          k = 0.0000 0.2000 0.0000 (   564 PWs)   bands (ev):

    -2.8921  18.3087  18.3087  18.6080  21.0873  23.7213

          k =-0.1000 0.3000-0.1000 (   565 PWs)   bands (ev):

    -2.2625  14.6343  17.3339  18.7379  21.1268  21.9356

          k =-0.2000 0.4000-0.2000 (   575 PWs)   bands (ev):

    -1.1006  10.8757  16.8105  18.4074  19.1264  23.9572

          k =-0.3000 0.5000-0.3000 (   575 PWs)   bands (ev):

     0.5811   7.4721  16.7446  17.4519  18.4151  22.9352

          k = 0.6000-0.4000 0.6000 (   573 PWs)   bands (ev):

     2.7617   4.5019  16.2579  17.1386  18.8545  21.8048

          k = 0.5000-0.3000 0.5000 (   575 PWs)   bands (ev):

     1.9821   5.4387  15.5357  17.9923  19.7673  21.1119

          k = 0.4000-0.2000 0.4000 (   571 PWs)   bands (ev):

    -0.0361   8.5557  15.2968  19.2937  20.8719  21.1329

          k = 0.3000-0.1000 0.3000 (   570 PWs)   bands (ev):

    -1.5464  12.0677  15.5588  20.8251  21.2329  22.8920

          k = 0.2000 0.0000 0.2000 (   559 PWs)   bands (ev):

    -2.5320  15.5582  16.6298  21.1382  22.1877  23.3759

          k = 0.0000 0.4000 0.0000 (   572 PWs)   bands (ev):

    -1.8145  16.1828  16.1828  16.2815  18.5644  19.5549

          k =-0.1000 0.5000-0.1000 (   572 PWs)   bands (ev):

    -0.8339  12.6700  15.4951  16.2261  16.9226  20.2837

          k =-0.2000 0.6000-0.2000 (   572 PWs)   bands (ev):

     0.6681   9.2054  14.3779  15.2701  16.9324  22.7922

          k = 0.7000-0.3000 0.7000 (   570 PWs)   bands (ev):

     2.6732   6.1145  12.9930  15.5075  17.2605  24.8067

          k = 0.6000-0.2000 0.6000 (   572 PWs)   bands (ev):

     3.4509   5.1725  12.1035  16.2078  18.0545  23.9855

          k = 0.5000-0.1000 0.5000 (   570 PWs)   bands (ev):

     1.2831   8.0737  11.7533  17.3698  19.3187  23.5848

          k = 0.4000 0.0000 0.4000 (   562 PWs)   bands (ev):

    -0.3901  10.9226  12.3882  18.9842  21.0028  23.2246

          k = 0.0000 0.6000 0.0000 (   568 PWs)   bands (ev):

    -0.0371  13.7199  14.5338  14.6476  14.6476  18.1328

          k =-0.1000 0.7000-0.1000 (   573 PWs)   bands (ev):

     1.2796  11.2911  11.7197  14.2649  15.5741  19.1172

          k = 0.8000-0.2000 0.8000 (   570 PWs)   bands (ev):

     3.0957   8.1845  10.1165  14.3456  15.9345  21.9573

          k = 0.7000-0.1000 0.7000 (   571 PWs)   bands (ev):

     5.2670   5.5203   9.0826  14.8896  16.6116  25.3285

          k = 0.6000-0.0000 0.6000 (   572 PWs)   bands (ev):

     3.1082   7.5929   9.0712  15.8978  17.7484  26.8795

          k = 0.0000 0.8000 0.0000 (   568 PWs)   bands (ev):

     2.4036   9.4108  13.4707  13.7257  13.7257  17.1891

          k = 0.9000-0.1000 0.9000 (   568 PWs)   bands (ev):

     3.9992   7.6841  10.6955  13.6501  14.8922  18.5022

          k = 0.8000 0.0000 0.8000 (   580 PWs)   bands (ev):

     5.5995   6.9076   7.9304  14.0376  15.5931  21.6676

          k = 0.0000-1.0000 0.0000 (   588 PWs)   bands (ev):

     4.9363   6.2525  13.1148  13.4185  13.4185  16.8615

          k =-0.2000 0.4000 0.0000 (   570 PWs)   bands (ev):

    -1.4571  13.2514  14.5308  18.8487  19.8084  21.5995

          k =-0.3000 0.5000-0.1000 (   571 PWs)   bands (ev):

    -0.1247  10.0784  13.6727  16.8763  20.1257  23.1602

          k = 0.6000-0.4000 0.8000 (   569 PWs)   bands (ev):

     1.7197   6.8683  13.7017  15.3590  20.3182  21.9945

          k = 0.5000-0.3000 0.7000 (   564 PWs)   bands (ev):

     3.9444   4.1783  14.0956  14.4736  20.7482  21.1318

          k =-0.2000 0.6000 0.0000 (   573 PWs)   bands (ev):

     0.3159  11.5908  12.9026  14.1198  18.2402  20.2947

          k = 0.7000-0.3000 0.9000 (   570 PWs)   bands (ev):

     1.9782   8.7362  12.1224  12.6212  18.9282  22.4876

          k = 0.6000-0.2000 0.8000 (   570 PWs)   bands (ev):

     4.1243   5.8519  11.0873  12.7906  19.4688  24.0371

          k = 0.5000-0.1000 0.7000 (   569 PWs)   bands (ev):

     3.3645   6.7260  10.4169  13.6632  20.3882  23.3372

          k = 0.4000 0.0000 0.6000 (   568 PWs)   bands (ev):

     1.3700   9.2576  10.7424  15.0369  21.6961  22.4775

          k = 0.8000-0.2000 1.0000 (   577 PWs)   bands (ev):

     2.7501   9.7275  10.5914  12.0326  17.2668  19.4244

          k = 0.7000-0.1000 0.9000 (   574 PWs)   bands (ev):

     4.6797   7.9799   8.4685  11.7638  18.2941  21.9463

          k = 0.6000 0.0000 0.8000 (   569 PWs)   bands (ev):

     5.4848   6.5956   8.0418  12.4479  19.1630  25.3133

          k =-0.2000-1.0000 0.0000 (   578 PWs)   bands (ev):

     5.2678   6.6001  10.2579  11.6923  16.9399  19.1226

          k = 0.6000-0.2000 1.0000 (   565 PWs)   bands (ev):

     3.7845   8.2587   9.6562  10.8917  21.5623  22.9181

          k = 0.5000-0.1000 0.9000 (   570 PWs)   bands (ev):

     5.9242   6.1545   9.4571  10.0881  22.5296  22.9803

          k =-0.4000-1.0000 0.0000 (   568 PWs)   bands (ev):

     6.2634   7.5899   7.9259   9.5222  21.2458  22.8199

     the Fermi energy is     7.9832 ev

!    total energy              =     -39.50148029 Ry
     Harris-Foulkes estimate   =     -39.50148029 Ry
     estimated scf accuracy    <          2.2E-11 Ry

     total all-electron energy =      -485.644261 Ry

     The total energy is the sum of the following terms:

     one-electron contribution =       3.15173878 Ry
     hartree contribution      =       0.00590854 Ry
     xc contribution           =      -2.58782080 Ry
     ewald contribution        =      -5.39395545 Ry
     one-center paw contrib.   =     -34.67674773 Ry
     smearing contrib. (-TS)   =      -0.00060363 Ry

     convergence has been achieved in   6 iterations

     Forces acting on atoms (cartesian axes, Ry/au):

     atom    1 type  1   force =     0.00000000    0.00000000    0.00000000

     Total force =     0.000000     Total SCF correction =     0.000000


     Computing stress (Cartesian axis) and pressure

          total   stress  (Ry/bohr**3)                   (kbar)     P=   -4.82
  -0.00003280  -0.00000000  -0.00000000         -4.82     -0.00     -0.00
  -0.00000000  -0.00003280   0.00000000         -0.00     -4.82      0.00
  -0.00000000   0.00000000  -0.00003280         -0.00      0.00     -4.82


     Writing output data file Al.save/

     init_run     :      0.19s CPU      0.21s WALL (       1 calls)
     electrons    :      1.94s CPU      2.09s WALL (       1 calls)
     forces       :      0.03s CPU      0.04s WALL (       1 calls)
     stress       :      0.11s CPU      0.11s WALL (       1 calls)

     Called by init_run:
     wfcinit      :      0.07s CPU      0.08s WALL (       1 calls)
     potinit      :      0.03s CPU      0.04s WALL (       1 calls)
     hinit0       :      0.08s CPU      0.08s WALL (       1 calls)

     Called by electrons:
     c_bands      :      1.46s CPU      1.56s WALL (       7 calls)
     sum_band     :      0.26s CPU      0.27s WALL (       7 calls)
     v_of_rho     :      0.03s CPU      0.03s WALL (       7 calls)
     newd         :      0.01s CPU      0.01s WALL (       7 calls)
     PAW_pot      :      0.20s CPU      0.25s WALL (       7 calls)
     mix_rho      :      0.00s CPU      0.00s WALL (       7 calls)

     Called by c_bands:
     init_us_2    :      0.03s CPU      0.04s WALL (     799 calls)
     cegterg      :      1.40s CPU      1.48s WALL (     329 calls)

     Called by sum_band:
     sum_band:bec :      0.00s CPU      0.00s WALL (     329 calls)
     addusdens    :      0.01s CPU      0.01s WALL (       7 calls)

     Called by *egterg:
     h_psi        :      1.13s CPU      1.21s WALL (    1070 calls)
     s_psi        :      0.01s CPU      0.01s WALL (    1070 calls)
     g_psi        :      0.00s CPU      0.00s WALL (     694 calls)
     cdiaghg      :      0.13s CPU      0.13s WALL (     976 calls)

     Called by h_psi:
     h_psi:pot    :      1.13s CPU      1.20s WALL (    1070 calls)
     h_psi:calbec :      0.07s CPU      0.07s WALL (    1070 calls)
     vloc_psi     :      1.04s CPU      1.11s WALL (    1070 calls)
     add_vuspsi   :      0.01s CPU      0.01s WALL (    1070 calls)

     General routines
     calbec       :      0.12s CPU      0.13s WALL (    1634 calls)
     fft          :      0.03s CPU      0.03s WALL (     104 calls)
     ffts         :      0.00s CPU      0.00s WALL (       7 calls)
     fftw         :      1.18s CPU      1.25s WALL (   12162 calls)

     Parallel routines
     fft_scatt_xy :      0.08s CPU      0.09s WALL (   12273 calls)
     fft_scatt_yz :      0.60s CPU      0.63s WALL (   12273 calls)

     PWSCF        :     2.88s CPU         3.14s WALL


   This run was terminated on:  20: 0:27  25Mar2024            

=------------------------------------------------------------------------------=
   JOB DONE.
=------------------------------------------------------------------------------=
