
     Program PWSCF v.6.3MaX starts on 25Mar2024 at 19:57:54 

     This program is part of the open-source Quantum ESPRESSO suite
     for quantum simulation of materials; please cite
         "P. Giannozzi et al., J. Phys.:Condens. Matter 21 395502 (2009);
         "P. Giannozzi et al., J. Phys.:Condens. Matter 29 465901 (2017);
          URL http://www.quantum-espresso.org", 
     in publications or presentations arising from this work. More details at
     http://www.quantum-espresso.org/quote

     Parallel version (MPI), running on     5 processors

     MPI processes distributed on     1 nodes
     R & G space division:  proc/nbgrp/npool/nimage =       5
     Waiting for input...
     Reading input from standard input

     Current dimensions of program PWSCF are:
     Max number of different atomic species (ntypx) = 10
     Max number of k-points (npk) =  40000
     Max angular momentum in pseudopotentials (lmaxx) =  3
               file Al.pbe-n-kjpaw_psl.1.0.0.UPF: wavefunction(s)  3S 3P renormalized

     Subspace diagonalization in iterative solution of the eigenvalue problem:
     a serial algorithm will be used


     Parallelization info
     --------------------
     sticks:   dense  smooth     PW     G-vecs:    dense   smooth      PW
     Min          48      48     17                  488      488     106
     Max          49      49     17                  491      491     107
     Sum         241     241     85                 2445     2445     531



     bravais-lattice index     =            2
     lattice parameter (alat)  =       7.6500  a.u.
     unit-cell volume          =     111.9243 (a.u.)^3
     number of atoms/cell      =            1
     number of atomic types    =            1
     number of electrons       =         3.00
     number of Kohn-Sham states=            6
     kinetic-energy cutoff     =      30.0000  Ry
     charge density cutoff     =     120.0000  Ry
     convergence threshold     =      1.0E-08
     mixing beta               =       0.7000
     number of iterations used =            8  plain     mixing
     Exchange-correlation      = SLA PW PBX PBC ( 1  4  3  4 0 0)

     celldm(1)=   7.650000  celldm(2)=   0.000000  celldm(3)=   0.000000
     celldm(4)=   0.000000  celldm(5)=   0.000000  celldm(6)=   0.000000

     crystal axes: (cart. coord. in units of alat)
               a(1) = (  -0.500000   0.000000   0.500000 )  
               a(2) = (   0.000000   0.500000   0.500000 )  
               a(3) = (  -0.500000   0.500000   0.000000 )  

     reciprocal axes: (cart. coord. in units 2 pi/alat)
               b(1) = ( -1.000000 -1.000000  1.000000 )  
               b(2) = (  1.000000  1.000000  1.000000 )  
               b(3) = ( -1.000000  1.000000 -1.000000 )  


     PseudoPot. # 1 for Al read from file:
     /home/lorenzo/pseudos/Al/Al.pbe-n-kjpaw_psl.1.0.0.UPF
     MD5 check sum: 502b6b27b9c6270cab5dd1084b96fa6d
     Pseudo is Projector augmented-wave + core cor, Zval =  3.0
     Generated using "atomic" code by A. Dal Corso v.6.3
     Shape of augmentation charge: PSQ
     Using radial grid of 1135 points,  6 beta functions with: 
                l(1) =   0
                l(2) =   0
                l(3) =   1
                l(4) =   1
                l(5) =   2
                l(6) =   2
     Q(r) pseudized with 0 coefficients 


     atomic species   valence    mass     pseudopotential
        Al             3.00    26.98150     Al( 1.00)

     48 Sym. Ops., with inversion, found



   Cartesian axes

     site n.     atom                  positions (alat units)
         1           Al  tau(   1) = (   0.0000000   0.0000000   0.0000000  )

     number of k points=    29  gaussian smearing, width (Ry)=  0.0100
                       cart. coord. in units 2pi/alat
        k(    1) = (   0.0000000   0.0000000   0.0000000), wk =   0.0039062
        k(    2) = (  -0.1250000   0.1250000  -0.1250000), wk =   0.0312500
        k(    3) = (  -0.2500000   0.2500000  -0.2500000), wk =   0.0312500
        k(    4) = (  -0.3750000   0.3750000  -0.3750000), wk =   0.0312500
        k(    5) = (   0.5000000  -0.5000000   0.5000000), wk =   0.0156250
        k(    6) = (   0.0000000   0.2500000   0.0000000), wk =   0.0234375
        k(    7) = (  -0.1250000   0.3750000  -0.1250000), wk =   0.0937500
        k(    8) = (  -0.2500000   0.5000000  -0.2500000), wk =   0.0937500
        k(    9) = (   0.6250000  -0.3750000   0.6250000), wk =   0.0937500
        k(   10) = (   0.5000000  -0.2500000   0.5000000), wk =   0.0937500
        k(   11) = (   0.3750000  -0.1250000   0.3750000), wk =   0.0937500
        k(   12) = (   0.2500000   0.0000000   0.2500000), wk =   0.0468750
        k(   13) = (   0.0000000   0.5000000   0.0000000), wk =   0.0234375
        k(   14) = (  -0.1250000   0.6250000  -0.1250000), wk =   0.0937500
        k(   15) = (   0.7500000  -0.2500000   0.7500000), wk =   0.0937500
        k(   16) = (   0.6250000  -0.1250000   0.6250000), wk =   0.0937500
        k(   17) = (   0.5000000   0.0000000   0.5000000), wk =   0.0468750
        k(   18) = (   0.0000000   0.7500000   0.0000000), wk =   0.0234375
        k(   19) = (   0.8750000  -0.1250000   0.8750000), wk =   0.0937500
        k(   20) = (   0.7500000   0.0000000   0.7500000), wk =   0.0468750
        k(   21) = (   0.0000000  -1.0000000   0.0000000), wk =   0.0117188
        k(   22) = (  -0.2500000   0.5000000   0.0000000), wk =   0.0937500
        k(   23) = (   0.6250000  -0.3750000   0.8750000), wk =   0.1875000
        k(   24) = (   0.5000000  -0.2500000   0.7500000), wk =   0.0937500
        k(   25) = (   0.7500000  -0.2500000   1.0000000), wk =   0.0937500
        k(   26) = (   0.6250000  -0.1250000   0.8750000), wk =   0.1875000
        k(   27) = (   0.5000000   0.0000000   0.7500000), wk =   0.0937500
        k(   28) = (  -0.2500000  -1.0000000   0.0000000), wk =   0.0468750
        k(   29) = (  -0.5000000  -1.0000000   0.0000000), wk =   0.0234375

     Dense  grid:     2445 G-vectors     FFT dimensions: (  20,  20,  20)

     Estimated max dynamical RAM per process >       3.07 MB

     Estimated total dynamical RAM >      15.36 MB

     Initial potential from superposition of free atoms

     starting charge    2.99771, renormalised to    3.00000
     Starting wfcs are    4 randomized atomic wfcs +    2 random wfcs
     Checking if some PAW data can be deallocated... 

     total cpu time spent up to now is        1.2 secs

     Self-consistent Calculation

     iteration #  1     ecut=    30.00 Ry     beta= 0.70
     Davidson diagonalization with overlap
     ethr =  1.00E-02,  avg # of iterations =  4.6

     Threshold (ethr) on eigenvalues was too large:
     Diagonalizing with lowered threshold

     Davidson diagonalization with overlap
     ethr =  1.86E-04,  avg # of iterations =  1.8

     total cpu time spent up to now is        1.5 secs

     total energy              =     -39.50252176 Ry
     Harris-Foulkes estimate   =     -39.50365624 Ry
     estimated scf accuracy    <       0.00550219 Ry

     iteration #  2     ecut=    30.00 Ry     beta= 0.70
     Davidson diagonalization with overlap
     ethr =  1.83E-04,  avg # of iterations =  1.1

     total cpu time spent up to now is        1.7 secs

     total energy              =     -39.50247854 Ry
     Harris-Foulkes estimate   =     -39.50256653 Ry
     estimated scf accuracy    <       0.00040790 Ry

     iteration #  3     ecut=    30.00 Ry     beta= 0.70
     Davidson diagonalization with overlap
     ethr =  1.36E-05,  avg # of iterations =  1.7

     total cpu time spent up to now is        1.9 secs

     total energy              =     -39.50248658 Ry
     Harris-Foulkes estimate   =     -39.50248669 Ry
     estimated scf accuracy    <       0.00000046 Ry

     iteration #  4     ecut=    30.00 Ry     beta= 0.70
     Davidson diagonalization with overlap
     ethr =  1.53E-08,  avg # of iterations =  3.0

     total cpu time spent up to now is        2.2 secs

     total energy              =     -39.50248789 Ry
     Harris-Foulkes estimate   =     -39.50248791 Ry
     estimated scf accuracy    <       0.00000002 Ry

     iteration #  5     ecut=    30.00 Ry     beta= 0.70
     Davidson diagonalization with overlap
     ethr =  7.29E-10,  avg # of iterations =  1.3

     total cpu time spent up to now is        2.3 secs

     End of self-consistent calculation

          k = 0.0000 0.0000 0.0000 (   331 PWs)   bands (ev):

    -3.2485  20.4353  20.4353  21.8951  21.8952  21.8952

          k =-0.1250 0.1250-0.1250 (   316 PWs)   bands (ev):

    -2.8254  16.1469  19.4878  19.4878  22.5337  23.4317

          k =-0.2500 0.2500-0.2500 (   311 PWs)   bands (ev):

    -1.5638  11.2843  18.7232  18.7232  22.1778  22.5523

          k =-0.3750 0.3750-0.3750 (   308 PWs)   bands (ev):

     0.5145   6.9896  18.6321  18.6321  20.5729  20.5729

          k = 0.5000-0.5000 0.5000 (   302 PWs)   bands (ev):

     3.2789   3.4814  19.2130  19.2130  19.2836  19.2836

          k = 0.0000 0.2500 0.0000 (   307 PWs)   bands (ev):

    -2.6847  17.7324  17.7324  17.9958  20.7433  22.4495

          k =-0.1250 0.3750-0.1250 (   308 PWs)   bands (ev):

    -1.7034  13.1423  16.6705  18.1910  19.4196  21.9477

          k =-0.2500 0.5000-0.2500 (   317 PWs)   bands (ev):

     0.1009   8.6857  16.3234  17.0488  18.0275  24.0349

          k = 0.6250-0.3750 0.6250 (   312 PWs)   bands (ev):

     2.6956   4.8627  15.4246  16.6951  18.4657  22.5264

          k = 0.5000-0.2500 0.5000 (   308 PWs)   bands (ev):

     1.7466   6.0549  14.5448  17.7865  19.6486  21.6857

          k = 0.3750-0.1250 0.3750 (   309 PWs)   bands (ev):

    -0.5903  10.0844  14.4454  19.5788  21.5327  21.5328

          k = 0.2500 0.0000 0.2500 (   317 PWs)   bands (ev):

    -2.1231  14.2880  15.5216  21.5339  21.8335  23.1734

          k = 0.0000 0.5000 0.0000 (   311 PWs)   bands (ev):

    -1.0068  15.3271  15.3478  15.3478  16.0904  18.8092

          k =-0.1250 0.6250-0.1250 (   316 PWs)   bands (ev):

     0.5130  11.0700  13.4222  14.7515  16.2171  20.2253

          k = 0.7500-0.2500 0.7500 (   311 PWs)   bands (ev):

     2.8254   7.1010  11.4992  14.8779  16.5585  23.8911

          k = 0.6250-0.1250 0.6250 (   307 PWs)   bands (ev):

     3.7718   5.8829  10.3779  15.7273  17.5491  25.4414

          k = 0.5000 0.0000 0.5000 (   307 PWs)   bands (ev):

     1.2000   9.0930  10.5932  17.3004  19.2647  24.7879

          k = 0.0000 0.7500 0.0000 (   322 PWs)   bands (ev):

     1.7399  10.4332  13.6682  13.9098  13.9098  17.3771

          k = 0.8750-0.1250 0.8750 (   314 PWs)   bands (ev):

     3.7376   8.2251  10.0597  13.7920  15.1523  19.2872

          k = 0.7500 0.0000 0.7500 (   308 PWs)   bands (ev):

     5.9771   6.5013   7.4484  14.3967  16.0329  23.4761

          k = 0.0000-1.0000 0.0000 (   302 PWs)   bands (ev):

     4.9421   6.2532  13.1106  13.4309  13.4309  16.8661

          k =-0.2500 0.5000 0.0000 (   311 PWs)   bands (ev):

    -0.4519  11.6962  13.0928  16.6066  19.9663  21.7209

          k = 0.6250-0.3750 0.8750 (   313 PWs)   bands (ev):

     1.6090   7.9895  12.4189  14.4739  20.5874  22.6682

          k = 0.5000-0.2500 0.7500 (   308 PWs)   bands (ev):

     4.3224   4.5715  12.8172  13.2792  21.1144  21.5356

          k = 0.7500-0.2500 1.0000 (   309 PWs)   bands (ev):

     2.2837  10.1351  10.8460  11.7293  18.4766  20.4682

          k = 0.6250-0.1250 0.8750 (   308 PWs)   bands (ev):

     4.8016   6.9283   9.3063  11.4627  19.6556  23.7759

          k = 0.5000 0.0000 0.7500 (   311 PWs)   bands (ev):

     3.9023   7.5335   8.9974  12.5664  20.8682  24.1093

          k =-0.2500-1.0000 0.0000 (   308 PWs)   bands (ev):

     5.4594   6.7943   9.6143  11.1168  17.9685  20.0130

          k =-0.5000-1.0000 0.0000 (   308 PWs)   bands (ev):

     7.0143   7.0143   8.0308   8.9359  23.6372  23.6372

     the Fermi energy is     7.8846 ev

!    total energy              =     -39.50248789 Ry
     Harris-Foulkes estimate   =     -39.50248789 Ry
     estimated scf accuracy    <          1.3E-10 Ry

     total all-electron energy =      -485.645268 Ry

     The total energy is the sum of the following terms:

     one-electron contribution =       3.15291439 Ry
     hartree contribution      =       0.00618406 Ry
     xc contribution           =      -2.58822845 Ry
     ewald contribution        =      -5.39395543 Ry
     one-center paw contrib.   =     -34.67908890 Ry
     smearing contrib. (-TS)   =      -0.00031357 Ry

     convergence has been achieved in   5 iterations

     Forces acting on atoms (cartesian axes, Ry/au):

     atom    1 type  1   force =     0.00000000    0.00000000    0.00000000

     Total force =     0.000000     Total SCF correction =     0.000000


     Computing stress (Cartesian axis) and pressure

          total   stress  (Ry/bohr**3)                   (kbar)     P=   -4.07
  -0.00002770   0.00000000   0.00000000         -4.07      0.00      0.00
   0.00000000  -0.00002770  -0.00000000          0.00     -4.07     -0.00
   0.00000000  -0.00000000  -0.00002770          0.00     -0.00     -4.07


     Writing output data file Al.save/

     init_run     :      0.25s CPU      0.27s WALL (       1 calls)
     electrons    :      1.05s CPU      1.18s WALL (       1 calls)
     forces       :      0.02s CPU      0.02s WALL (       1 calls)
     stress       :      0.05s CPU      0.05s WALL (       1 calls)

     Called by init_run:
     wfcinit      :      0.03s CPU      0.03s WALL (       1 calls)
     potinit      :      0.09s CPU      0.11s WALL (       1 calls)
     hinit0       :      0.11s CPU      0.11s WALL (       1 calls)

     Called by electrons:
     c_bands      :      0.45s CPU      0.48s WALL (       6 calls)
     sum_band     :      0.10s CPU      0.11s WALL (       6 calls)
     v_of_rho     :      0.01s CPU      0.01s WALL (       6 calls)
     newd         :      0.02s CPU      0.02s WALL (       6 calls)
     PAW_pot      :      0.57s CPU      0.66s WALL (       6 calls)
     mix_rho      :      0.00s CPU      0.00s WALL (       6 calls)

     Called by c_bands:
     init_us_2    :      0.02s CPU      0.02s WALL (     435 calls)
     cegterg      :      0.42s CPU      0.45s WALL (     174 calls)

     Called by sum_band:
     sum_band:bec :      0.00s CPU      0.00s WALL (     174 calls)
     addusdens    :      0.01s CPU      0.01s WALL (       6 calls)

     Called by *egterg:
     h_psi        :      0.33s CPU      0.36s WALL (     595 calls)
     s_psi        :      0.01s CPU      0.01s WALL (     595 calls)
     g_psi        :      0.00s CPU      0.00s WALL (     392 calls)
     cdiaghg      :      0.05s CPU      0.05s WALL (     537 calls)

     Called by h_psi:
     h_psi:pot    :      0.33s CPU      0.36s WALL (     595 calls)
     h_psi:calbec :      0.02s CPU      0.02s WALL (     595 calls)
     vloc_psi     :      0.30s CPU      0.32s WALL (     595 calls)
     add_vuspsi   :      0.01s CPU      0.01s WALL (     595 calls)

     General routines
     calbec       :      0.04s CPU      0.04s WALL (     914 calls)
     fft          :      0.01s CPU      0.01s WALL (      93 calls)
     ffts         :      0.00s CPU      0.00s WALL (       6 calls)
     fftw         :      0.33s CPU      0.35s WALL (    6588 calls)

     Parallel routines
     fft_scatt_xy :      0.03s CPU      0.03s WALL (    6687 calls)
     fft_scatt_yz :      0.14s CPU      0.15s WALL (    6687 calls)

     PWSCF        :     2.28s CPU         2.48s WALL


   This run was terminated on:  19:57:56  25Mar2024            

=------------------------------------------------------------------------------=
   JOB DONE.
=------------------------------------------------------------------------------=
