
     Program PWSCF v.6.3MaX starts on 25Mar2024 at 20:16: 2 

     This program is part of the open-source Quantum ESPRESSO suite
     for quantum simulation of materials; please cite
         "P. Giannozzi et al., J. Phys.:Condens. Matter 21 395502 (2009);
         "P. Giannozzi et al., J. Phys.:Condens. Matter 29 465901 (2017);
          URL http://www.quantum-espresso.org", 
     in publications or presentations arising from this work. More details at
     http://www.quantum-espresso.org/quote

     Parallel version (MPI), running on     5 processors

     MPI processes distributed on     1 nodes
     R & G space division:  proc/nbgrp/npool/nimage =       5
     Waiting for input...
     Reading input from standard input

     Current dimensions of program PWSCF are:
     Max number of different atomic species (ntypx) = 10
     Max number of k-points (npk) =  40000
     Max angular momentum in pseudopotentials (lmaxx) =  3

     Subspace diagonalization in iterative solution of the eigenvalue problem:
     a serial algorithm will be used


     Parallelization info
     --------------------
     sticks:   dense  smooth     PW     G-vecs:    dense   smooth      PW
     Min         153     153     48                 2813     2813     479
     Max         155     155     49                 2814     2814     480
     Sum         769     769    241                14067    14067    2397



     bravais-lattice index     =            2
     lattice parameter (alat)  =       7.6500  a.u.
     unit-cell volume          =     111.9243 (a.u.)^3
     number of atoms/cell      =            1
     number of atomic types    =            1
     number of electrons       =         3.00
     number of Kohn-Sham states=            6
     kinetic-energy cutoff     =      95.0000  Ry
     charge density cutoff     =     380.0000  Ry
     convergence threshold     =      1.0E-08
     mixing beta               =       0.7000
     number of iterations used =            8  plain     mixing
     Exchange-correlation      = PBE ( 1  4  3  4 0 0)

     celldm(1)=   7.650000  celldm(2)=   0.000000  celldm(3)=   0.000000
     celldm(4)=   0.000000  celldm(5)=   0.000000  celldm(6)=   0.000000

     crystal axes: (cart. coord. in units of alat)
               a(1) = (  -0.500000   0.000000   0.500000 )  
               a(2) = (   0.000000   0.500000   0.500000 )  
               a(3) = (  -0.500000   0.500000   0.000000 )  

     reciprocal axes: (cart. coord. in units 2 pi/alat)
               b(1) = ( -1.000000 -1.000000  1.000000 )  
               b(2) = (  1.000000  1.000000  1.000000 )  
               b(3) = ( -1.000000  1.000000 -1.000000 )  


     PseudoPot. # 1 for Al read from file:
     /home/lorenzo/pseudos/Al/Al.pbe-nl-rrkjus_psl.1.0.0.UPF
     MD5 check sum: 6db8691240a1c860ce6448702d298c4b
     Pseudo is Ultrasoft + core correction, Zval =  3.0
     Generated using "atomic" code by A. Dal Corso v.6.3
     Using radial grid of 1135 points,  4 beta functions with: 
                l(1) =   0
                l(2) =   0
                l(3) =   1
                l(4) =   1
     Q(r) pseudized with 0 coefficients 


     atomic species   valence    mass     pseudopotential
        Al             3.00    26.98150     Al( 1.00)

     48 Sym. Ops., with inversion, found



   Cartesian axes

     site n.     atom                  positions (alat units)
         1           Al  tau(   1) = (   0.0000000   0.0000000   0.0000000  )

     number of k points=    20  gaussian smearing, width (Ry)=  0.0100
                       cart. coord. in units 2pi/alat
        k(    1) = (   0.0000000   0.0000000   0.0000000), wk =   0.0058309
        k(    2) = (  -0.1428571   0.1428571  -0.1428571), wk =   0.0466472
        k(    3) = (  -0.2857143   0.2857143  -0.2857143), wk =   0.0466472
        k(    4) = (  -0.4285714   0.4285714  -0.4285714), wk =   0.0466472
        k(    5) = (   0.0000000   0.2857143   0.0000000), wk =   0.0349854
        k(    6) = (  -0.1428571   0.4285714  -0.1428571), wk =   0.1399417
        k(    7) = (  -0.2857143   0.5714286  -0.2857143), wk =   0.1399417
        k(    8) = (   0.5714286  -0.2857143   0.5714286), wk =   0.1399417
        k(    9) = (   0.4285714  -0.1428571   0.4285714), wk =   0.1399417
        k(   10) = (   0.2857143  -0.0000000   0.2857143), wk =   0.0699708
        k(   11) = (   0.0000000   0.5714286   0.0000000), wk =   0.0349854
        k(   12) = (  -0.1428571   0.7142857  -0.1428571), wk =   0.1399417
        k(   13) = (   0.7142857  -0.1428571   0.7142857), wk =   0.1399417
        k(   14) = (   0.5714286   0.0000000   0.5714286), wk =   0.0699708
        k(   15) = (   0.0000000   0.8571429   0.0000000), wk =   0.0349854
        k(   16) = (   0.8571429  -0.0000000   0.8571429), wk =   0.0699708
        k(   17) = (  -0.2857143   0.5714286   0.0000000), wk =   0.1399417
        k(   18) = (   0.5714286  -0.2857143   0.8571429), wk =   0.2798834
        k(   19) = (   0.7142857  -0.1428571   1.0000000), wk =   0.1399417
        k(   20) = (   0.5714286   0.0000000   0.8571429), wk =   0.1399417

     Dense  grid:    14067 G-vectors     FFT dimensions: (  36,  36,  36)

     Estimated max dynamical RAM per process >       5.29 MB

     Estimated total dynamical RAM >      26.44 MB

     Initial potential from superposition of free atoms

     starting charge    2.99771, renormalised to    3.00000
     Starting wfcs are    4 randomized atomic wfcs +    2 random wfcs

     total cpu time spent up to now is        1.0 secs

     Self-consistent Calculation

     iteration #  1     ecut=    95.00 Ry     beta= 0.70
     Davidson diagonalization with overlap
     ethr =  1.00E-02,  avg # of iterations =  4.9

     Threshold (ethr) on eigenvalues was too large:
     Diagonalizing with lowered threshold

     Davidson diagonalization with overlap
     ethr =  1.95E-04,  avg # of iterations =  1.6

     total cpu time spent up to now is        1.5 secs

     total energy              =      -5.04231541 Ry
     Harris-Foulkes estimate   =      -5.04367174 Ry
     estimated scf accuracy    <       0.00578044 Ry

     iteration #  2     ecut=    95.00 Ry     beta= 0.70
     Davidson diagonalization with overlap
     ethr =  1.93E-04,  avg # of iterations =  1.0

     total cpu time spent up to now is        1.8 secs

     total energy              =      -5.04230594 Ry
     Harris-Foulkes estimate   =      -5.04239622 Ry
     estimated scf accuracy    <       0.00041428 Ry

     iteration #  3     ecut=    95.00 Ry     beta= 0.70
     Davidson diagonalization with overlap
     ethr =  1.38E-05,  avg # of iterations =  2.1

     total cpu time spent up to now is        2.1 secs

     total energy              =      -5.04232699 Ry
     Harris-Foulkes estimate   =      -5.04232713 Ry
     estimated scf accuracy    <       0.00000138 Ry

     iteration #  4     ecut=    95.00 Ry     beta= 0.70
     Davidson diagonalization with overlap
     ethr =  4.61E-08,  avg # of iterations =  3.1

     total cpu time spent up to now is        2.3 secs

     total energy              =      -5.04232876 Ry
     Harris-Foulkes estimate   =      -5.04232875 Ry
     estimated scf accuracy    <       0.00000007 Ry

     iteration #  5     ecut=    95.00 Ry     beta= 0.70
     Davidson diagonalization with overlap
     ethr =  2.22E-09,  avg # of iterations =  1.1

     total cpu time spent up to now is        2.5 secs

     total energy              =      -5.04232876 Ry
     Harris-Foulkes estimate   =      -5.04232876 Ry
     estimated scf accuracy    <       0.00000002 Ry

     iteration #  6     ecut=    95.00 Ry     beta= 0.70
     Davidson diagonalization with overlap
     ethr =  6.59E-10,  avg # of iterations =  1.0

     total cpu time spent up to now is        2.7 secs

     End of self-consistent calculation

          k = 0.0000 0.0000 0.0000 (  1807 PWs)   bands (ev):

    -3.2491  20.4398  20.4398  21.8753  21.8753  21.8753

          k =-0.1429 0.1429-0.1429 (  1774 PWs)   bands (ev):

    -2.6971  15.4244  19.3372  19.3372  22.4573  23.6712

          k =-0.2857 0.2857-0.2857 (  1763 PWs)   bands (ev):

    -1.0534   9.9907  18.6195  18.6195  21.9242  21.9242

          k =-0.4286 0.4286-0.4286 (  1748 PWs)   bands (ev):

     1.6455   5.3559  18.8008  18.8008  19.9144  19.9144

          k = 0.0000 0.2857 0.0000 (  1776 PWs)   bands (ev):

    -2.5135  17.3310  17.3310  17.5604  20.4529  21.5149

          k =-0.1429 0.4286-0.1429 (  1764 PWs)   bands (ev):

    -1.2352  12.1249  16.2474  17.7906  18.1891  22.0504

          k =-0.2857 0.5714-0.2857 (  1760 PWs)   bands (ev):

     1.1090   7.2525  15.6911  16.1027  17.8404  23.8408

          k = 0.5714-0.2857 0.5714 (  1753 PWs)   bands (ev):

     3.2343   4.4835  14.2092  16.8997  18.7357  22.4605

          k = 0.4286-0.1429 0.4286 (  1758 PWs)   bands (ev):

     0.2122   8.7674  13.7390  18.6324  20.5843  21.9682

          k = 0.2857-0.0000 0.2857 (  1759 PWs)   bands (ev):

    -1.7816  13.4209  14.7359  21.1937  21.8668  23.2129

          k = 0.0000 0.5714 0.0000 (  1728 PWs)   bands (ev):

    -0.3295  14.3841  14.7455  14.8307  14.8307  18.3155

          k =-0.1429 0.7143-0.1429 (  1738 PWs)   bands (ev):

     1.6405  10.0750  11.5532  14.3633  15.8535  20.3388

          k = 0.7143-0.1429 0.7143 (  1739 PWs)   bands (ev):

     4.6015   5.8698   9.7138  14.8413  16.5522  24.8823

          k = 0.5714 0.0000 0.5714 (  1762 PWs)   bands (ev):

     2.5322   7.9886   9.4764  16.2662  18.1535  26.4321

          k = 0.0000 0.8571 0.0000 (  1748 PWs)   bands (ev):

     3.2102   8.3030  13.2995  13.5763  13.5763  17.0343

          k = 0.8571-0.0000 0.8571 (  1730 PWs)   bands (ev):

     5.2764   6.6073   9.4324  13.7354  15.1552  19.7256

          k =-0.2857 0.5714 0.0000 (  1742 PWs)   bands (ev):

     0.3915  10.7081  12.1419  15.0851  20.1788  21.8867

          k = 0.5714-0.2857 0.8571 (  1753 PWs)   bands (ev):

     3.0583   6.7028  11.7059  12.9565  21.0774  22.3427

          k = 0.7143-0.1429 1.0000 (  1746 PWs)   bands (ev):

     3.9109   8.9581   9.3485  10.8967  18.8774  20.8089

          k = 0.5714 0.0000 0.8571 (  1755 PWs)   bands (ev):

     5.9831   6.6313   8.0698  11.1232  20.4969  24.8943

     the Fermi energy is     7.9586 ev

!    total energy              =      -5.04232876 Ry
     Harris-Foulkes estimate   =      -5.04232876 Ry
     estimated scf accuracy    <          1.3E-10 Ry

     The total energy is the sum of the following terms:

     one-electron contribution =       2.93377691 Ry
     hartree contribution      =       0.00649958 Ry
     xc contribution           =      -2.58825941 Ry
     ewald contribution        =      -5.39395538 Ry
     smearing contrib. (-TS)   =      -0.00039045 Ry

     convergence has been achieved in   6 iterations

     Forces acting on atoms (cartesian axes, Ry/au):

     atom    1 type  1   force =     0.00000000    0.00000000    0.00000000

     Total force =     0.000000     Total SCF correction =     0.000000


     Computing stress (Cartesian axis) and pressure

          total   stress  (Ry/bohr**3)                   (kbar)     P=   -9.00
  -0.00006120   0.00000000   0.00000000         -9.00      0.00      0.00
   0.00000000  -0.00006120  -0.00000000          0.00     -9.00     -0.00
   0.00000000  -0.00000000  -0.00006120          0.00     -0.00     -9.00


     Writing output data file Al.save/

     init_run     :      0.29s CPU      0.29s WALL (       1 calls)
     electrons    :      1.58s CPU      1.69s WALL (       1 calls)
     forces       :      0.04s CPU      0.04s WALL (       1 calls)
     stress       :      0.10s CPU      0.10s WALL (       1 calls)

     Called by init_run:
     wfcinit      :      0.10s CPU      0.10s WALL (       1 calls)
     potinit      :      0.02s CPU      0.02s WALL (       1 calls)
     hinit0       :      0.15s CPU      0.16s WALL (       1 calls)

     Called by electrons:
     c_bands      :      1.21s CPU      1.30s WALL (       7 calls)
     sum_band     :      0.28s CPU      0.30s WALL (       7 calls)
     v_of_rho     :      0.07s CPU      0.07s WALL (       7 calls)
     newd         :      0.02s CPU      0.03s WALL (       7 calls)
     mix_rho      :      0.00s CPU      0.01s WALL (       7 calls)

     Called by c_bands:
     init_us_2    :      0.04s CPU      0.04s WALL (     340 calls)
     cegterg      :      1.17s CPU      1.25s WALL (     140 calls)

     Called by sum_band:
     sum_band:bec :      0.00s CPU      0.00s WALL (     140 calls)
     addusdens    :      0.02s CPU      0.02s WALL (       7 calls)

     Called by *egterg:
     h_psi        :      1.08s CPU      1.15s WALL (     459 calls)
     s_psi        :      0.01s CPU      0.02s WALL (     459 calls)
     g_psi        :      0.00s CPU      0.00s WALL (     299 calls)
     cdiaghg      :      0.05s CPU      0.05s WALL (     419 calls)

     Called by h_psi:
     h_psi:pot    :      1.08s CPU      1.15s WALL (     459 calls)
     h_psi:calbec :      0.03s CPU      0.03s WALL (     459 calls)
     vloc_psi     :      1.03s CPU      1.10s WALL (     459 calls)
     add_vuspsi   :      0.01s CPU      0.02s WALL (     459 calls)

     General routines
     calbec       :      0.06s CPU      0.06s WALL (     699 calls)
     fft          :      0.04s CPU      0.05s WALL (     104 calls)
     ffts         :      0.00s CPU      0.00s WALL (       7 calls)
     fftw         :      1.16s CPU      1.24s WALL (    5198 calls)

     Parallel routines
     fft_scatt_xy :      0.09s CPU      0.10s WALL (    5309 calls)
     fft_scatt_yz :      0.34s CPU      0.37s WALL (    5309 calls)

     PWSCF        :     2.71s CPU         2.86s WALL


   This run was terminated on:  20:16: 5  25Mar2024            

=------------------------------------------------------------------------------=
   JOB DONE.
=------------------------------------------------------------------------------=
