
     Program PWSCF v.6.3MaX starts on 25Mar2024 at 19:58: 4 

     This program is part of the open-source Quantum ESPRESSO suite
     for quantum simulation of materials; please cite
         "P. Giannozzi et al., J. Phys.:Condens. Matter 21 395502 (2009);
         "P. Giannozzi et al., J. Phys.:Condens. Matter 29 465901 (2017);
          URL http://www.quantum-espresso.org", 
     in publications or presentations arising from this work. More details at
     http://www.quantum-espresso.org/quote

     Parallel version (MPI), running on     5 processors

     MPI processes distributed on     1 nodes
     R & G space division:  proc/nbgrp/npool/nimage =       5
     Waiting for input...
     Reading input from standard input

     Current dimensions of program PWSCF are:
     Max number of different atomic species (ntypx) = 10
     Max number of k-points (npk) =  40000
     Max angular momentum in pseudopotentials (lmaxx) =  3

     Subspace diagonalization in iterative solution of the eigenvalue problem:
     a serial algorithm will be used


     Parallelization info
     --------------------
     sticks:   dense  smooth     PW     G-vecs:    dense   smooth      PW
     Min          48      48     17                  488      488     106
     Max          49      49     17                  491      491     107
     Sum         241     241     85                 2445     2445     531



     bravais-lattice index     =            2
     lattice parameter (alat)  =       7.6500  a.u.
     unit-cell volume          =     111.9243 (a.u.)^3
     number of atoms/cell      =            1
     number of atomic types    =            1
     number of electrons       =         3.00
     number of Kohn-Sham states=            6
     kinetic-energy cutoff     =      30.0000  Ry
     charge density cutoff     =     120.0000  Ry
     convergence threshold     =      1.0E-08
     mixing beta               =       0.7000
     number of iterations used =            8  plain     mixing
     Exchange-correlation      = PBE ( 1  4  3  4 0 0)

     celldm(1)=   7.650000  celldm(2)=   0.000000  celldm(3)=   0.000000
     celldm(4)=   0.000000  celldm(5)=   0.000000  celldm(6)=   0.000000

     crystal axes: (cart. coord. in units of alat)
               a(1) = (  -0.500000   0.000000   0.500000 )  
               a(2) = (   0.000000   0.500000   0.500000 )  
               a(3) = (  -0.500000   0.500000   0.000000 )  

     reciprocal axes: (cart. coord. in units 2 pi/alat)
               b(1) = ( -1.000000 -1.000000  1.000000 )  
               b(2) = (  1.000000  1.000000  1.000000 )  
               b(3) = ( -1.000000  1.000000 -1.000000 )  


     PseudoPot. # 1 for Al read from file:
     /home/lorenzo/pseudos/Al/Al.pbe-nl-rrkjus_psl.1.0.0.UPF
     MD5 check sum: 6db8691240a1c860ce6448702d298c4b
     Pseudo is Ultrasoft + core correction, Zval =  3.0
     Generated using "atomic" code by A. Dal Corso v.6.3
     Using radial grid of 1135 points,  4 beta functions with: 
                l(1) =   0
                l(2) =   0
                l(3) =   1
                l(4) =   1
     Q(r) pseudized with 0 coefficients 


     atomic species   valence    mass     pseudopotential
        Al             3.00    26.98150     Al( 1.00)

     48 Sym. Ops., with inversion, found



   Cartesian axes

     site n.     atom                  positions (alat units)
         1           Al  tau(   1) = (   0.0000000   0.0000000   0.0000000  )

     number of k points=    35  gaussian smearing, width (Ry)=  0.0100
                       cart. coord. in units 2pi/alat
        k(    1) = (   0.0000000   0.0000000   0.0000000), wk =   0.0027435
        k(    2) = (  -0.1111111   0.1111111  -0.1111111), wk =   0.0219479
        k(    3) = (  -0.2222222   0.2222222  -0.2222222), wk =   0.0219479
        k(    4) = (  -0.3333333   0.3333333  -0.3333333), wk =   0.0219479
        k(    5) = (  -0.4444444   0.4444444  -0.4444444), wk =   0.0219479
        k(    6) = (   0.0000000   0.2222222   0.0000000), wk =   0.0164609
        k(    7) = (  -0.1111111   0.3333333  -0.1111111), wk =   0.0658436
        k(    8) = (  -0.2222222   0.4444444  -0.2222222), wk =   0.0658436
        k(    9) = (  -0.3333333   0.5555556  -0.3333333), wk =   0.0658436
        k(   10) = (   0.5555556  -0.3333333   0.5555556), wk =   0.0658436
        k(   11) = (   0.4444444  -0.2222222   0.4444444), wk =   0.0658436
        k(   12) = (   0.3333333  -0.1111111   0.3333333), wk =   0.0658436
        k(   13) = (   0.2222222  -0.0000000   0.2222222), wk =   0.0329218
        k(   14) = (   0.0000000   0.4444444   0.0000000), wk =   0.0164609
        k(   15) = (  -0.1111111   0.5555556  -0.1111111), wk =   0.0658436
        k(   16) = (  -0.2222222   0.6666667  -0.2222222), wk =   0.0658436
        k(   17) = (   0.6666667  -0.2222222   0.6666667), wk =   0.0658436
        k(   18) = (   0.5555556  -0.1111111   0.5555556), wk =   0.0658436
        k(   19) = (   0.4444444   0.0000000   0.4444444), wk =   0.0329218
        k(   20) = (   0.0000000   0.6666667   0.0000000), wk =   0.0164609
        k(   21) = (  -0.1111111   0.7777778  -0.1111111), wk =   0.0658436
        k(   22) = (   0.7777778  -0.1111111   0.7777778), wk =   0.0658436
        k(   23) = (   0.6666667  -0.0000000   0.6666667), wk =   0.0329218
        k(   24) = (   0.0000000   0.8888889   0.0000000), wk =   0.0164609
        k(   25) = (   0.8888889   0.0000000   0.8888889), wk =   0.0329218
        k(   26) = (  -0.2222222   0.4444444   0.0000000), wk =   0.0658436
        k(   27) = (  -0.3333333   0.5555556  -0.1111111), wk =   0.1316872
        k(   28) = (   0.5555556  -0.3333333   0.7777778), wk =   0.1316872
        k(   29) = (  -0.2222222   0.6666667   0.0000000), wk =   0.0658436
        k(   30) = (   0.6666667  -0.2222222   0.8888889), wk =   0.1316872
        k(   31) = (   0.5555556  -0.1111111   0.7777778), wk =   0.1316872
        k(   32) = (   0.4444444   0.0000000   0.6666667), wk =   0.0658436
        k(   33) = (   0.7777778  -0.1111111   1.0000000), wk =   0.0658436
        k(   34) = (   0.6666667  -0.0000000   0.8888889), wk =   0.0658436
        k(   35) = (   0.5555556  -0.1111111   1.0000000), wk =   0.0658436

     Dense  grid:     2445 G-vectors     FFT dimensions: (  20,  20,  20)

     Estimated max dynamical RAM per process >       1.20 MB

     Estimated total dynamical RAM >       6.02 MB

     Initial potential from superposition of free atoms

     starting charge    2.99771, renormalised to    3.00000
     Starting wfcs are    4 randomized atomic wfcs +    2 random wfcs

     total cpu time spent up to now is        0.6 secs

     Self-consistent Calculation

     iteration #  1     ecut=    30.00 Ry     beta= 0.70
     Davidson diagonalization with overlap
     ethr =  1.00E-02,  avg # of iterations =  4.7

     Threshold (ethr) on eigenvalues was too large:
     Diagonalizing with lowered threshold

     Davidson diagonalization with overlap
     ethr =  1.91E-04,  avg # of iterations =  2.1

     total cpu time spent up to now is        0.8 secs

     total energy              =      -5.03660051 Ry
     Harris-Foulkes estimate   =      -5.03795899 Ry
     estimated scf accuracy    <       0.00563821 Ry

     iteration #  2     ecut=    30.00 Ry     beta= 0.70
     Davidson diagonalization with overlap
     ethr =  1.88E-04,  avg # of iterations =  1.0

     total cpu time spent up to now is        0.9 secs

     total energy              =      -5.03658695 Ry
     Harris-Foulkes estimate   =      -5.03667759 Ry
     estimated scf accuracy    <       0.00040003 Ry

     iteration #  3     ecut=    30.00 Ry     beta= 0.70
     Davidson diagonalization with overlap
     ethr =  1.33E-05,  avg # of iterations =  1.5

     total cpu time spent up to now is        1.0 secs

     total energy              =      -5.03660664 Ry
     Harris-Foulkes estimate   =      -5.03660668 Ry
     estimated scf accuracy    <       0.00000148 Ry

     iteration #  4     ecut=    30.00 Ry     beta= 0.70
     Davidson diagonalization with overlap
     ethr =  4.94E-08,  avg # of iterations =  3.5

     total cpu time spent up to now is        1.1 secs

     total energy              =      -5.03660867 Ry
     Harris-Foulkes estimate   =      -5.03660865 Ry
     estimated scf accuracy    <       0.00000009 Ry

     iteration #  5     ecut=    30.00 Ry     beta= 0.70
     Davidson diagonalization with overlap
     ethr =  2.84E-09,  avg # of iterations =  1.1

     total cpu time spent up to now is        1.2 secs

     total energy              =      -5.03660867 Ry
     Harris-Foulkes estimate   =      -5.03660867 Ry
     estimated scf accuracy    <       0.00000001 Ry

     iteration #  6     ecut=    30.00 Ry     beta= 0.70
     Davidson diagonalization with overlap
     ethr =  3.46E-10,  avg # of iterations =  1.1

     total cpu time spent up to now is        1.3 secs

     End of self-consistent calculation

          k = 0.0000 0.0000 0.0000 (   331 PWs)   bands (ev):

    -3.2491  20.4485  20.4485  21.8759  21.8759  21.8759

          k =-0.1111 0.1111-0.1111 (   316 PWs)   bands (ev):

    -2.9149  16.7093  19.6119  19.6119  22.5422  23.2004

          k =-0.2222 0.2222-0.2222 (   311 PWs)   bands (ev):

    -1.9169  12.3235  18.8371  18.8371  22.2188  23.0522

          k =-0.3333 0.3333-0.3333 (   308 PWs)   bands (ev):

    -0.2685   8.3487  18.5825  18.5825  21.1692  21.1692

          k =-0.4444 0.4444-0.4444 (   314 PWs)   bands (ev):

     2.0080   4.8981  18.8824  18.8824  19.7530  19.7530

          k = 0.0000 0.2222 0.0000 (   315 PWs)   bands (ev):

    -2.8036  18.0523  18.0523  18.3414  20.9342  23.1662

          k =-0.1111 0.3333-0.1111 (   308 PWs)   bands (ev):

    -2.0274  13.9641  17.0287  18.4960  20.3950  21.9008

          k =-0.2222 0.4444-0.2222 (   309 PWs)   bands (ev):

    -0.5968   9.8786  16.5667  18.1076  18.2981  24.2506

          k =-0.3333 0.5556-0.3333 (   312 PWs)   bands (ev):

     1.4690   6.2624  16.5078  16.6725  18.3909  22.7127

          k = 0.5556-0.3333 0.5556 (   316 PWs)   bands (ev):

     3.1787   4.1618  15.4173  17.3473  19.1296  21.6788

          k = 0.4444-0.2222 0.4444 (   311 PWs)   bands (ev):

     0.7115   7.4044  14.9230  18.5880  20.4456  21.1962

          k = 0.3333-0.1111 0.3333 (   310 PWs)   bands (ev):

    -1.1453  11.1689  15.0471  20.3426  21.2710  22.2852

          k = 0.2222-0.0000 0.2222 (   315 PWs)   bands (ev):

    -2.3596  14.9896  16.1362  21.3144  22.1226  23.3362

          k = 0.0000 0.4444 0.0000 (   303 PWs)   bands (ev):

    -1.4755  15.7932  15.7932  15.8465  17.4574  19.2150

          k =-0.1111 0.5556-0.1111 (   312 PWs)   bands (ev):

    -0.2691  11.9308  14.9601  15.1313  16.5828  20.2248

          k =-0.2222 0.6667-0.2222 (   313 PWs)   bands (ev):

     1.5746   8.2191  13.0505  15.0419  16.7184  23.2351

          k = 0.6667-0.2222 0.6667 (   307 PWs)   bands (ev):

     4.0153   5.0083  11.7401  15.5247  17.3092  25.0229

          k = 0.5556-0.1111 0.5556 (   307 PWs)   bands (ev):

     2.3293   7.0387  11.0808  16.5801  18.4828  24.3665

          k = 0.4444 0.0000 0.4444 (   315 PWs)   bands (ev):

     0.2766  10.0711  11.5593  18.2028  20.2055  23.8889

          k = 0.0000 0.6667 0.0000 (   315 PWs)   bands (ev):

     0.7090  12.2211  14.1097  14.2741  14.2741  17.7621

          k =-0.1111 0.7778-0.1111 (   316 PWs)   bands (ev):

     2.3197  10.0349  10.7485  13.9909  15.3325  19.1277

          k = 0.7778-0.1111 0.7778 (   309 PWs)   bands (ev):

     4.5118   7.3593   8.6129  14.2802  15.8923  22.5571

          k = 0.6667-0.0000 0.6667 (   309 PWs)   bands (ev):

     4.5575   6.7826   8.2407  15.1426  16.9107  26.4646

          k = 0.0000 0.8889 0.0000 (   314 PWs)   bands (ev):

     3.6698   7.7187  13.2324  13.5148  13.5148  16.9718

          k = 0.8889 0.0000 0.8889 (   310 PWs)   bands (ev):

     5.1427   6.4715  10.3068  13.6111  14.9094  18.7483

          k =-0.2222 0.4444 0.0000 (   306 PWs)   bands (ev):

    -1.0355  12.5387  13.8765  17.8405  19.8603  21.6323

          k =-0.3333 0.5556-0.1111 (   314 PWs)   bands (ev):

     0.6024   9.1113  13.0785  15.7729  20.2955  22.9803

          k = 0.5556-0.3333 0.7778 (   305 PWs)   bands (ev):

     2.8625   5.7289  13.3109  14.3015  20.6730  21.6760

          k =-0.2222 0.6667 0.0000 (   310 PWs)   bands (ev):

     1.1424  10.8955  12.1485  12.8116  18.2990  20.3269

          k = 0.6667-0.2222 0.8889 (   311 PWs)   bands (ev):

     3.1746   7.8615  10.8661  11.9596  19.1844  23.0043

          k = 0.5556-0.1111 0.7778 (   307 PWs)   bands (ev):

     4.8577   5.7964   9.8293  12.5822  19.9988  24.2098

          k = 0.4444 0.0000 0.6667 (   311 PWs)   bands (ev):

     2.4348   8.4261   9.9076  13.8796  21.2804  23.1460

          k = 0.7778-0.1111 1.0000 (   314 PWs)   bands (ev):

     4.0919   8.1291  10.0724  11.5407  17.4948  19.6074

          k = 0.6667-0.0000 0.8889 (   306 PWs)   bands (ev):

     5.9622   7.1591   7.6425  11.5091  18.7956  22.6922

          k = 0.5556-0.1111 1.0000 (   307 PWs)   bands (ev):

     5.3499   7.6042   8.8612   9.6765  22.3921  23.3992

     the Fermi energy is     7.8220 ev

!    total energy              =      -5.03660867 Ry
     Harris-Foulkes estimate   =      -5.03660867 Ry
     estimated scf accuracy    <          3.0E-10 Ry

     The total energy is the sum of the following terms:

     one-electron contribution =       2.93977298 Ry
     hartree contribution      =       0.00630446 Ry
     xc contribution           =      -2.58831497 Ry
     ewald contribution        =      -5.39395543 Ry
     smearing contrib. (-TS)   =      -0.00041572 Ry

     convergence has been achieved in   6 iterations

     Forces acting on atoms (cartesian axes, Ry/au):

     atom    1 type  1   force =     0.00000000    0.00000000    0.00000000

     Total force =     0.000000     Total SCF correction =     0.000000


     Computing stress (Cartesian axis) and pressure

          total   stress  (Ry/bohr**3)                   (kbar)     P=   -2.35
  -0.00001596  -0.00000000   0.00000000         -2.35     -0.00      0.00
  -0.00000000  -0.00001596  -0.00000000         -0.00     -2.35     -0.00
   0.00000000  -0.00000000  -0.00001596          0.00     -0.00     -2.35


     Writing output data file Al.save/

     init_run     :      0.09s CPU      0.10s WALL (       1 calls)
     electrons    :      0.62s CPU      0.70s WALL (       1 calls)
     forces       :      0.01s CPU      0.01s WALL (       1 calls)
     stress       :      0.03s CPU      0.03s WALL (       1 calls)

     Called by init_run:
     wfcinit      :      0.03s CPU      0.04s WALL (       1 calls)
     potinit      :      0.00s CPU      0.00s WALL (       1 calls)
     hinit0       :      0.05s CPU      0.06s WALL (       1 calls)

     Called by electrons:
     c_bands      :      0.52s CPU      0.58s WALL (       7 calls)
     sum_band     :      0.08s CPU      0.09s WALL (       7 calls)
     v_of_rho     :      0.02s CPU      0.02s WALL (       7 calls)
     newd         :      0.00s CPU      0.00s WALL (       7 calls)
     mix_rho      :      0.00s CPU      0.00s WALL (       7 calls)

     Called by c_bands:
     init_us_2    :      0.01s CPU      0.02s WALL (     595 calls)
     cegterg      :      0.49s CPU      0.56s WALL (     245 calls)

     Called by sum_band:
     sum_band:bec :      0.00s CPU      0.00s WALL (     245 calls)
     addusdens    :      0.00s CPU      0.00s WALL (       7 calls)

     Called by *egterg:
     h_psi        :      0.40s CPU      0.44s WALL (     801 calls)
     s_psi        :      0.01s CPU      0.01s WALL (     801 calls)
     g_psi        :      0.00s CPU      0.00s WALL (     521 calls)
     cdiaghg      :      0.06s CPU      0.07s WALL (     731 calls)

     Called by h_psi:
     h_psi:pot    :      0.39s CPU      0.44s WALL (     801 calls)
     h_psi:calbec :      0.02s CPU      0.02s WALL (     801 calls)
     vloc_psi     :      0.36s CPU      0.41s WALL (     801 calls)
     add_vuspsi   :      0.01s CPU      0.01s WALL (     801 calls)

     General routines
     calbec       :      0.03s CPU      0.03s WALL (    1221 calls)
     fft          :      0.01s CPU      0.01s WALL (     104 calls)
     ffts         :      0.00s CPU      0.00s WALL (       7 calls)
     fftw         :      0.39s CPU      0.44s WALL (    9072 calls)

     Parallel routines
     fft_scatt_xy :      0.03s CPU      0.04s WALL (    9183 calls)
     fft_scatt_yz :      0.14s CPU      0.15s WALL (    9183 calls)

     PWSCF        :     1.24s CPU         1.38s WALL


   This run was terminated on:  19:58: 5  25Mar2024            

=------------------------------------------------------------------------------=
   JOB DONE.
=------------------------------------------------------------------------------=
