
     Program PWSCF v.6.3MaX starts on 25Mar2024 at 20: 2:43 

     This program is part of the open-source Quantum ESPRESSO suite
     for quantum simulation of materials; please cite
         "P. Giannozzi et al., J. Phys.:Condens. Matter 21 395502 (2009);
         "P. Giannozzi et al., J. Phys.:Condens. Matter 29 465901 (2017);
          URL http://www.quantum-espresso.org", 
     in publications or presentations arising from this work. More details at
     http://www.quantum-espresso.org/quote

     Parallel version (MPI), running on     5 processors

     MPI processes distributed on     1 nodes
     R & G space division:  proc/nbgrp/npool/nimage =       5
     Waiting for input...
     Reading input from standard input

     Current dimensions of program PWSCF are:
     Max number of different atomic species (ntypx) = 10
     Max number of k-points (npk) =  40000
     Max angular momentum in pseudopotentials (lmaxx) =  3

     Subspace diagonalization in iterative solution of the eigenvalue problem:
     a serial algorithm will be used


     Parallelization info
     --------------------
     sticks:   dense  smooth     PW     G-vecs:    dense   smooth      PW
     Min          81      81     25                 1065     1065     192
     Max          82      82     26                 1066     1066     195
     Sum         409     409    127                 5329     5329     965



     bravais-lattice index     =            2
     lattice parameter (alat)  =       7.6500  a.u.
     unit-cell volume          =     111.9243 (a.u.)^3
     number of atoms/cell      =            1
     number of atomic types    =            1
     number of electrons       =         3.00
     number of Kohn-Sham states=            6
     kinetic-energy cutoff     =      50.0000  Ry
     charge density cutoff     =     200.0000  Ry
     convergence threshold     =      1.0E-08
     mixing beta               =       0.7000
     number of iterations used =            8  plain     mixing
     Exchange-correlation      = PBE ( 1  4  3  4 0 0)

     celldm(1)=   7.650000  celldm(2)=   0.000000  celldm(3)=   0.000000
     celldm(4)=   0.000000  celldm(5)=   0.000000  celldm(6)=   0.000000

     crystal axes: (cart. coord. in units of alat)
               a(1) = (  -0.500000   0.000000   0.500000 )  
               a(2) = (   0.000000   0.500000   0.500000 )  
               a(3) = (  -0.500000   0.500000   0.000000 )  

     reciprocal axes: (cart. coord. in units 2 pi/alat)
               b(1) = ( -1.000000 -1.000000  1.000000 )  
               b(2) = (  1.000000  1.000000  1.000000 )  
               b(3) = ( -1.000000  1.000000 -1.000000 )  


     PseudoPot. # 1 for Al read from file:
     /home/lorenzo/pseudos/Al/Al.pbe-nl-rrkjus_psl.1.0.0.UPF
     MD5 check sum: 6db8691240a1c860ce6448702d298c4b
     Pseudo is Ultrasoft + core correction, Zval =  3.0
     Generated using "atomic" code by A. Dal Corso v.6.3
     Using radial grid of 1135 points,  4 beta functions with: 
                l(1) =   0
                l(2) =   0
                l(3) =   1
                l(4) =   1
     Q(r) pseudized with 0 coefficients 


     atomic species   valence    mass     pseudopotential
        Al             3.00    26.98150     Al( 1.00)

     48 Sym. Ops., with inversion, found



   Cartesian axes

     site n.     atom                  positions (alat units)
         1           Al  tau(   1) = (   0.0000000   0.0000000   0.0000000  )

     number of k points=    35  gaussian smearing, width (Ry)=  0.0100
                       cart. coord. in units 2pi/alat
        k(    1) = (   0.0000000   0.0000000   0.0000000), wk =   0.0027435
        k(    2) = (  -0.1111111   0.1111111  -0.1111111), wk =   0.0219479
        k(    3) = (  -0.2222222   0.2222222  -0.2222222), wk =   0.0219479
        k(    4) = (  -0.3333333   0.3333333  -0.3333333), wk =   0.0219479
        k(    5) = (  -0.4444444   0.4444444  -0.4444444), wk =   0.0219479
        k(    6) = (   0.0000000   0.2222222   0.0000000), wk =   0.0164609
        k(    7) = (  -0.1111111   0.3333333  -0.1111111), wk =   0.0658436
        k(    8) = (  -0.2222222   0.4444444  -0.2222222), wk =   0.0658436
        k(    9) = (  -0.3333333   0.5555556  -0.3333333), wk =   0.0658436
        k(   10) = (   0.5555556  -0.3333333   0.5555556), wk =   0.0658436
        k(   11) = (   0.4444444  -0.2222222   0.4444444), wk =   0.0658436
        k(   12) = (   0.3333333  -0.1111111   0.3333333), wk =   0.0658436
        k(   13) = (   0.2222222  -0.0000000   0.2222222), wk =   0.0329218
        k(   14) = (   0.0000000   0.4444444   0.0000000), wk =   0.0164609
        k(   15) = (  -0.1111111   0.5555556  -0.1111111), wk =   0.0658436
        k(   16) = (  -0.2222222   0.6666667  -0.2222222), wk =   0.0658436
        k(   17) = (   0.6666667  -0.2222222   0.6666667), wk =   0.0658436
        k(   18) = (   0.5555556  -0.1111111   0.5555556), wk =   0.0658436
        k(   19) = (   0.4444444   0.0000000   0.4444444), wk =   0.0329218
        k(   20) = (   0.0000000   0.6666667   0.0000000), wk =   0.0164609
        k(   21) = (  -0.1111111   0.7777778  -0.1111111), wk =   0.0658436
        k(   22) = (   0.7777778  -0.1111111   0.7777778), wk =   0.0658436
        k(   23) = (   0.6666667  -0.0000000   0.6666667), wk =   0.0329218
        k(   24) = (   0.0000000   0.8888889   0.0000000), wk =   0.0164609
        k(   25) = (   0.8888889   0.0000000   0.8888889), wk =   0.0329218
        k(   26) = (  -0.2222222   0.4444444   0.0000000), wk =   0.0658436
        k(   27) = (  -0.3333333   0.5555556  -0.1111111), wk =   0.1316872
        k(   28) = (   0.5555556  -0.3333333   0.7777778), wk =   0.1316872
        k(   29) = (  -0.2222222   0.6666667   0.0000000), wk =   0.0658436
        k(   30) = (   0.6666667  -0.2222222   0.8888889), wk =   0.1316872
        k(   31) = (   0.5555556  -0.1111111   0.7777778), wk =   0.1316872
        k(   32) = (   0.4444444   0.0000000   0.6666667), wk =   0.0658436
        k(   33) = (   0.7777778  -0.1111111   1.0000000), wk =   0.0658436
        k(   34) = (   0.6666667  -0.0000000   0.8888889), wk =   0.0658436
        k(   35) = (   0.5555556  -0.1111111   1.0000000), wk =   0.0658436

     Dense  grid:     5329 G-vectors     FFT dimensions: (  25,  25,  25)

     Estimated max dynamical RAM per process >       2.32 MB

     Estimated total dynamical RAM >      11.60 MB

     Initial potential from superposition of free atoms

     starting charge    2.99771, renormalised to    3.00000
     Starting wfcs are    4 randomized atomic wfcs +    2 random wfcs

     total cpu time spent up to now is        0.5 secs

     Self-consistent Calculation

     iteration #  1     ecut=    50.00 Ry     beta= 0.70
     Davidson diagonalization with overlap
     ethr =  1.00E-02,  avg # of iterations =  5.0

     Threshold (ethr) on eigenvalues was too large:
     Diagonalizing with lowered threshold

     Davidson diagonalization with overlap
     ethr =  1.92E-04,  avg # of iterations =  1.9

     total cpu time spent up to now is        0.9 secs

     total energy              =      -5.03675560 Ry
     Harris-Foulkes estimate   =      -5.03810968 Ry
     estimated scf accuracy    <       0.00563833 Ry

     iteration #  2     ecut=    50.00 Ry     beta= 0.70
     Davidson diagonalization with overlap
     ethr =  1.88E-04,  avg # of iterations =  1.0

     total cpu time spent up to now is        1.1 secs

     total energy              =      -5.03674382 Ry
     Harris-Foulkes estimate   =      -5.03683362 Ry
     estimated scf accuracy    <       0.00040085 Ry

     iteration #  3     ecut=    50.00 Ry     beta= 0.70
     Davidson diagonalization with overlap
     ethr =  1.34E-05,  avg # of iterations =  1.7

     total cpu time spent up to now is        1.2 secs

     total energy              =      -5.03676402 Ry
     Harris-Foulkes estimate   =      -5.03676411 Ry
     estimated scf accuracy    <       0.00000146 Ry

     iteration #  4     ecut=    50.00 Ry     beta= 0.70
     Davidson diagonalization with overlap
     ethr =  4.86E-08,  avg # of iterations =  3.1

     total cpu time spent up to now is        1.4 secs

     total energy              =      -5.03676602 Ry
     Harris-Foulkes estimate   =      -5.03676600 Ry
     estimated scf accuracy    <       0.00000009 Ry

     iteration #  5     ecut=    50.00 Ry     beta= 0.70
     Davidson diagonalization with overlap
     ethr =  2.84E-09,  avg # of iterations =  1.0

     total cpu time spent up to now is        1.5 secs

     total energy              =      -5.03676602 Ry
     Harris-Foulkes estimate   =      -5.03676602 Ry
     estimated scf accuracy    <       0.00000002 Ry

     iteration #  6     ecut=    50.00 Ry     beta= 0.70
     Davidson diagonalization with overlap
     ethr =  5.52E-10,  avg # of iterations =  1.0

     total cpu time spent up to now is        1.6 secs

     End of self-consistent calculation

          k = 0.0000 0.0000 0.0000 (   645 PWs)   bands (ev):

    -3.2496  20.4398  20.4398  21.8751  21.8751  21.8751

          k =-0.1111 0.1111-0.1111 (   661 PWs)   bands (ev):

    -2.9154  16.7043  19.6055  19.6055  22.5379  23.1948

          k =-0.2222 0.2222-0.2222 (   658 PWs)   bands (ev):

    -1.9173  12.3210  18.8315  18.8315  22.2142  23.0424

          k =-0.3333 0.3333-0.3333 (   658 PWs)   bands (ev):

    -0.2690   8.3473  18.5776  18.5776  21.1604  21.1604

          k =-0.4444 0.4444-0.4444 (   667 PWs)   bands (ev):

     2.0074   4.8971  18.8775  18.8775  19.7459  19.7459

          k = 0.0000 0.2222 0.0000 (   665 PWs)   bands (ev):

    -2.8041  18.0473  18.0473  18.3337  20.9333  23.1557

          k =-0.1111 0.3333-0.1111 (   669 PWs)   bands (ev):

    -2.0279  13.9607  17.0245  18.4898  20.3884  21.8947

          k =-0.2222 0.4444-0.2222 (   657 PWs)   bands (ev):

    -0.5973   9.8767  16.5634  18.0995  18.2953  24.3292

          k =-0.3333 0.5556-0.3333 (   658 PWs)   bands (ev):

     1.4684   6.2612  16.5036  16.6692  18.3860  22.7025

          k = 0.5556-0.3333 0.5556 (   668 PWs)   bands (ev):

     3.1781   4.1609  15.4142  17.3437  19.1245  21.6705

          k = 0.4444-0.2222 0.4444 (   667 PWs)   bands (ev):

     0.7110   7.4031  14.9202  18.5829  20.4394  21.1872

          k = 0.3333-0.1111 0.3333 (   658 PWs)   bands (ev):

    -1.1458  11.1667  15.0443  20.3368  21.2612  22.2781

          k = 0.2222-0.0000 0.2222 (   660 PWs)   bands (ev):

    -2.3600  14.9848  16.1333  21.3042  22.1210  23.3242

          k = 0.0000 0.4444 0.0000 (   665 PWs)   bands (ev):

    -1.4760  15.7902  15.7902  15.8390  17.4513  19.2126

          k =-0.1111 0.5556-0.1111 (   671 PWs)   bands (ev):

    -0.2696  11.9285  14.9571  15.1294  16.5781  20.2211

          k =-0.2222 0.6667-0.2222 (   668 PWs)   bands (ev):

     1.5740   8.2176  13.0480  15.0402  16.7140  23.2282

          k = 0.6667-0.2222 0.6667 (   677 PWs)   bands (ev):

     4.0144   5.0072  11.7380  15.5225  17.3044  25.0089

          k = 0.5556-0.1111 0.5556 (   671 PWs)   bands (ev):

     2.3286   7.0374  11.0788  16.5766  18.4772  24.3525

          k = 0.4444 0.0000 0.4444 (   664 PWs)   bands (ev):

     0.2761  10.0689  11.5577  18.1983  20.2000  23.8739

          k = 0.0000 0.6667 0.0000 (   680 PWs)   bands (ev):

     0.7085  12.2191  14.1041  14.2729  14.2729  17.7601

          k =-0.1111 0.7778-0.1111 (   670 PWs)   bands (ev):

     2.3191  10.0330  10.7467  13.9899  15.3283  19.1244

          k = 0.7778-0.1111 0.7778 (   680 PWs)   bands (ev):

     4.5110   7.3578   8.6116  14.2789  15.8877  22.5492

          k = 0.6667-0.0000 0.6667 (   680 PWs)   bands (ev):

     4.5565   6.7815   8.2393  15.1407  16.9061  26.4506

          k = 0.0000 0.8889 0.0000 (   676 PWs)   bands (ev):

     3.6692   7.7172  13.2272  13.5142  13.5142  16.9681

          k = 0.8889 0.0000 0.8889 (   666 PWs)   bands (ev):

     5.1422   6.4699  10.3049  13.6104  14.9051  18.7439

          k =-0.2222 0.4444 0.0000 (   663 PWs)   bands (ev):

    -1.0360  12.5357  13.8745  17.8349  19.8522  21.6278

          k =-0.3333 0.5556-0.1111 (   660 PWs)   bands (ev):

     0.6019   9.1096  13.0763  15.7695  20.2892  22.9731

          k = 0.5556-0.3333 0.7778 (   672 PWs)   bands (ev):

     2.8617   5.7277  13.3082  14.2992  20.6670  21.6659

          k =-0.2222 0.6667 0.0000 (   664 PWs)   bands (ev):

     1.1419  10.8931  12.1463  12.8103  18.2925  20.3233

          k = 0.6667-0.2222 0.8889 (   669 PWs)   bands (ev):

     3.1739   7.8600  10.8640  11.9583  19.1787  22.9974

          k = 0.5556-0.1111 0.7778 (   674 PWs)   bands (ev):

     4.8567   5.7953   9.8275  12.5804  19.9926  24.1984

          k = 0.4444 0.0000 0.6667 (   670 PWs)   bands (ev):

     2.4342   8.4244   9.9062  13.8773  21.2746  23.1353

          k = 0.7778-0.1111 1.0000 (   670 PWs)   bands (ev):

     4.0912   8.1276  10.0702  11.5398  17.4902  19.6035

          k = 0.6667-0.0000 0.8889 (   674 PWs)   bands (ev):

     5.9613   7.1574   7.6413  11.5076  18.7895  22.6843

          k = 0.5556-0.1111 1.0000 (   674 PWs)   bands (ev):

     5.3489   7.6027   8.8592   9.6757  22.3823  23.3939

     the Fermi energy is     7.8205 ev

!    total energy              =      -5.03676602 Ry
     Harris-Foulkes estimate   =      -5.03676602 Ry
     estimated scf accuracy    <          2.2E-10 Ry

     The total energy is the sum of the following terms:

     one-electron contribution =       2.93959590 Ry
     hartree contribution      =       0.00630374 Ry
     xc contribution           =      -2.58829439 Ry
     ewald contribution        =      -5.39395542 Ry
     smearing contrib. (-TS)   =      -0.00041585 Ry

     convergence has been achieved in   6 iterations

     Forces acting on atoms (cartesian axes, Ry/au):

     atom    1 type  1   force =     0.00000000    0.00000000    0.00000000

     Total force =     0.000000     Total SCF correction =     0.000000


     Computing stress (Cartesian axis) and pressure

          total   stress  (Ry/bohr**3)                   (kbar)     P=   -1.84
  -0.00001254   0.00000000   0.00000000         -1.84      0.00      0.00
   0.00000000  -0.00001254  -0.00000000          0.00     -1.84     -0.00
   0.00000000  -0.00000000  -0.00001254          0.00     -0.00     -1.84


     Writing output data file Al.save/

     init_run     :      0.14s CPU      0.15s WALL (       1 calls)
     electrons    :      1.03s CPU      1.11s WALL (       1 calls)
     forces       :      0.02s CPU      0.02s WALL (       1 calls)
     stress       :      0.05s CPU      0.05s WALL (       1 calls)

     Called by init_run:
     wfcinit      :      0.05s CPU      0.06s WALL (       1 calls)
     potinit      :      0.01s CPU      0.01s WALL (       1 calls)
     hinit0       :      0.07s CPU      0.07s WALL (       1 calls)

     Called by electrons:
     c_bands      :      0.82s CPU      0.88s WALL (       7 calls)
     sum_band     :      0.17s CPU      0.18s WALL (       7 calls)
     v_of_rho     :      0.03s CPU      0.03s WALL (       7 calls)
     newd         :      0.01s CPU      0.01s WALL (       7 calls)
     mix_rho      :      0.00s CPU      0.00s WALL (       7 calls)

     Called by c_bands:
     init_us_2    :      0.03s CPU      0.03s WALL (     595 calls)
     cegterg      :      0.79s CPU      0.85s WALL (     245 calls)

     Called by sum_band:
     sum_band:bec :      0.00s CPU      0.00s WALL (     245 calls)
     addusdens    :      0.01s CPU      0.01s WALL (       7 calls)

     Called by *egterg:
     h_psi        :      0.68s CPU      0.73s WALL (     797 calls)
     s_psi        :      0.01s CPU      0.01s WALL (     797 calls)
     g_psi        :      0.00s CPU      0.00s WALL (     517 calls)
     cdiaghg      :      0.06s CPU      0.06s WALL (     727 calls)

     Called by h_psi:
     h_psi:pot    :      0.67s CPU      0.73s WALL (     797 calls)
     h_psi:calbec :      0.02s CPU      0.03s WALL (     797 calls)
     vloc_psi     :      0.63s CPU      0.68s WALL (     797 calls)
     add_vuspsi   :      0.01s CPU      0.01s WALL (     797 calls)

     General routines
     calbec       :      0.05s CPU      0.05s WALL (    1217 calls)
     fft          :      0.02s CPU      0.02s WALL (     104 calls)
     ffts         :      0.00s CPU      0.00s WALL (       7 calls)
     fftw         :      0.71s CPU      0.77s WALL (    9076 calls)

     Parallel routines
     fft_scatt_xy :      0.05s CPU      0.06s WALL (    9187 calls)
     fft_scatt_yz :      0.22s CPU      0.23s WALL (    9187 calls)

     PWSCF        :     1.67s CPU         1.82s WALL


   This run was terminated on:  20: 2:45  25Mar2024            

=------------------------------------------------------------------------------=
   JOB DONE.
=------------------------------------------------------------------------------=
