
     Program PWSCF v.6.3MaX starts on 25Mar2024 at 20: 3: 1 

     This program is part of the open-source Quantum ESPRESSO suite
     for quantum simulation of materials; please cite
         "P. Giannozzi et al., J. Phys.:Condens. Matter 21 395502 (2009);
         "P. Giannozzi et al., J. Phys.:Condens. Matter 29 465901 (2017);
          URL http://www.quantum-espresso.org", 
     in publications or presentations arising from this work. More details at
     http://www.quantum-espresso.org/quote

     Parallel version (MPI), running on     5 processors

     MPI processes distributed on     1 nodes
     R & G space division:  proc/nbgrp/npool/nimage =       5
     Waiting for input...
     Reading input from standard input

     Current dimensions of program PWSCF are:
     Max number of different atomic species (ntypx) = 10
     Max number of k-points (npk) =  40000
     Max angular momentum in pseudopotentials (lmaxx) =  3

     Subspace diagonalization in iterative solution of the eigenvalue problem:
     a serial algorithm will be used


     Parallelization info
     --------------------
     sticks:   dense  smooth     PW     G-vecs:    dense   smooth      PW
     Min          87      87     30                 1236     1236     227
     Max          89      89     31                 1238     1238     228
     Sum         439     439    151                 6183     6183    1139



     bravais-lattice index     =            2
     lattice parameter (alat)  =       7.6500  a.u.
     unit-cell volume          =     111.9243 (a.u.)^3
     number of atoms/cell      =            1
     number of atomic types    =            1
     number of electrons       =         3.00
     number of Kohn-Sham states=            6
     kinetic-energy cutoff     =      55.0000  Ry
     charge density cutoff     =     220.0000  Ry
     convergence threshold     =      1.0E-08
     mixing beta               =       0.7000
     number of iterations used =            8  plain     mixing
     Exchange-correlation      = PBE ( 1  4  3  4 0 0)

     celldm(1)=   7.650000  celldm(2)=   0.000000  celldm(3)=   0.000000
     celldm(4)=   0.000000  celldm(5)=   0.000000  celldm(6)=   0.000000

     crystal axes: (cart. coord. in units of alat)
               a(1) = (  -0.500000   0.000000   0.500000 )  
               a(2) = (   0.000000   0.500000   0.500000 )  
               a(3) = (  -0.500000   0.500000   0.000000 )  

     reciprocal axes: (cart. coord. in units 2 pi/alat)
               b(1) = ( -1.000000 -1.000000  1.000000 )  
               b(2) = (  1.000000  1.000000  1.000000 )  
               b(3) = ( -1.000000  1.000000 -1.000000 )  


     PseudoPot. # 1 for Al read from file:
     /home/lorenzo/pseudos/Al/Al.pbe-nl-rrkjus_psl.1.0.0.UPF
     MD5 check sum: 6db8691240a1c860ce6448702d298c4b
     Pseudo is Ultrasoft + core correction, Zval =  3.0
     Generated using "atomic" code by A. Dal Corso v.6.3
     Using radial grid of 1135 points,  4 beta functions with: 
                l(1) =   0
                l(2) =   0
                l(3) =   1
                l(4) =   1
     Q(r) pseudized with 0 coefficients 


     atomic species   valence    mass     pseudopotential
        Al             3.00    26.98150     Al( 1.00)

     48 Sym. Ops., with inversion, found



   Cartesian axes

     site n.     atom                  positions (alat units)
         1           Al  tau(   1) = (   0.0000000   0.0000000   0.0000000  )

     number of k points=    56  gaussian smearing, width (Ry)=  0.0100
                       cart. coord. in units 2pi/alat
        k(    1) = (   0.0000000   0.0000000   0.0000000), wk =   0.0015026
        k(    2) = (  -0.0909091   0.0909091  -0.0909091), wk =   0.0120210
        k(    3) = (  -0.1818182   0.1818182  -0.1818182), wk =   0.0120210
        k(    4) = (  -0.2727273   0.2727273  -0.2727273), wk =   0.0120210
        k(    5) = (  -0.3636364   0.3636364  -0.3636364), wk =   0.0120210
        k(    6) = (  -0.4545455   0.4545455  -0.4545455), wk =   0.0120210
        k(    7) = (   0.0000000   0.1818182   0.0000000), wk =   0.0090158
        k(    8) = (  -0.0909091   0.2727273  -0.0909091), wk =   0.0360631
        k(    9) = (  -0.1818182   0.3636364  -0.1818182), wk =   0.0360631
        k(   10) = (  -0.2727273   0.4545455  -0.2727273), wk =   0.0360631
        k(   11) = (  -0.3636364   0.5454545  -0.3636364), wk =   0.0360631
        k(   12) = (   0.5454545  -0.3636364   0.5454545), wk =   0.0360631
        k(   13) = (   0.4545455  -0.2727273   0.4545455), wk =   0.0360631
        k(   14) = (   0.3636364  -0.1818182   0.3636364), wk =   0.0360631
        k(   15) = (   0.2727273  -0.0909091   0.2727273), wk =   0.0360631
        k(   16) = (   0.1818182  -0.0000000   0.1818182), wk =   0.0180316
        k(   17) = (   0.0000000   0.3636364   0.0000000), wk =   0.0090158
        k(   18) = (  -0.0909091   0.4545455  -0.0909091), wk =   0.0360631
        k(   19) = (  -0.1818182   0.5454545  -0.1818182), wk =   0.0360631
        k(   20) = (  -0.2727273   0.6363636  -0.2727273), wk =   0.0360631
        k(   21) = (   0.6363636  -0.2727273   0.6363636), wk =   0.0360631
        k(   22) = (   0.5454545  -0.1818182   0.5454545), wk =   0.0360631
        k(   23) = (   0.4545455  -0.0909091   0.4545455), wk =   0.0360631
        k(   24) = (   0.3636364   0.0000000   0.3636364), wk =   0.0180316
        k(   25) = (   0.0000000   0.5454545   0.0000000), wk =   0.0090158
        k(   26) = (  -0.0909091   0.6363636  -0.0909091), wk =   0.0360631
        k(   27) = (  -0.1818182   0.7272727  -0.1818182), wk =   0.0360631
        k(   28) = (   0.7272727  -0.1818182   0.7272727), wk =   0.0360631
        k(   29) = (   0.6363636  -0.0909091   0.6363636), wk =   0.0360631
        k(   30) = (   0.5454545   0.0000000   0.5454545), wk =   0.0180316
        k(   31) = (   0.0000000   0.7272727   0.0000000), wk =   0.0090158
        k(   32) = (  -0.0909091   0.8181818  -0.0909091), wk =   0.0360631
        k(   33) = (   0.8181818  -0.0909091   0.8181818), wk =   0.0360631
        k(   34) = (   0.7272727   0.0000000   0.7272727), wk =   0.0180316
        k(   35) = (   0.0000000   0.9090909   0.0000000), wk =   0.0090158
        k(   36) = (   0.9090909  -0.0000000   0.9090909), wk =   0.0180316
        k(   37) = (  -0.1818182   0.3636364   0.0000000), wk =   0.0360631
        k(   38) = (  -0.2727273   0.4545455  -0.0909091), wk =   0.0721262
        k(   39) = (  -0.3636364   0.5454545  -0.1818182), wk =   0.0721262
        k(   40) = (   0.5454545  -0.3636364   0.7272727), wk =   0.0721262
        k(   41) = (  -0.1818182   0.5454545   0.0000000), wk =   0.0360631
        k(   42) = (  -0.2727273   0.6363636  -0.0909091), wk =   0.0721262
        k(   43) = (   0.6363636  -0.2727273   0.8181818), wk =   0.0721262
        k(   44) = (   0.5454545  -0.1818182   0.7272727), wk =   0.0721262
        k(   45) = (   0.4545455  -0.0909091   0.6363636), wk =   0.0721262
        k(   46) = (   0.3636364   0.0000000   0.5454545), wk =   0.0360631
        k(   47) = (  -0.1818182   0.7272727   0.0000000), wk =   0.0360631
        k(   48) = (   0.7272727  -0.1818182   0.9090909), wk =   0.0721262
        k(   49) = (   0.6363636  -0.0909091   0.8181818), wk =   0.0721262
        k(   50) = (   0.5454545   0.0000000   0.7272727), wk =   0.0360631
        k(   51) = (   0.8181818  -0.0909091   1.0000000), wk =   0.0360631
        k(   52) = (   0.7272727   0.0000000   0.9090909), wk =   0.0360631
        k(   53) = (   0.6363636  -0.2727273   1.0000000), wk =   0.0360631
        k(   54) = (   0.5454545  -0.1818182   0.9090909), wk =   0.0721262
        k(   55) = (   0.6363636  -0.0909091   1.0000000), wk =   0.0360631
        k(   56) = (   0.5454545   0.0000000   0.9090909), wk =   0.0360631

     Dense  grid:     6183 G-vectors     FFT dimensions: (  25,  25,  25)

     Estimated max dynamical RAM per process >       2.91 MB

     Estimated total dynamical RAM >      14.54 MB

     Initial potential from superposition of free atoms

     starting charge    2.99771, renormalised to    3.00000
     Starting wfcs are    4 randomized atomic wfcs +    2 random wfcs

     total cpu time spent up to now is        0.6 secs

     Self-consistent Calculation

     iteration #  1     ecut=    55.00 Ry     beta= 0.70
     Davidson diagonalization with overlap
     ethr =  1.00E-02,  avg # of iterations =  4.8

     Threshold (ethr) on eigenvalues was too large:
     Diagonalizing with lowered threshold

     Davidson diagonalization with overlap
     ethr =  1.90E-04,  avg # of iterations =  2.2

     total cpu time spent up to now is        1.4 secs

     total energy              =      -5.03950251 Ry
     Harris-Foulkes estimate   =      -5.04088266 Ry
     estimated scf accuracy    <       0.00561124 Ry

     iteration #  2     ecut=    55.00 Ry     beta= 0.70
     Davidson diagonalization with overlap
     ethr =  1.87E-04,  avg # of iterations =  1.0

     total cpu time spent up to now is        1.7 secs

     total energy              =      -5.03949158 Ry
     Harris-Foulkes estimate   =      -5.03958220 Ry
     estimated scf accuracy    <       0.00039470 Ry

     iteration #  3     ecut=    55.00 Ry     beta= 0.70
     Davidson diagonalization with overlap
     ethr =  1.32E-05,  avg # of iterations =  1.9

     total cpu time spent up to now is        2.1 secs

     total energy              =      -5.03951131 Ry
     Harris-Foulkes estimate   =      -5.03951138 Ry
     estimated scf accuracy    <       0.00000140 Ry

     iteration #  4     ecut=    55.00 Ry     beta= 0.70
     Davidson diagonalization with overlap
     ethr =  4.65E-08,  avg # of iterations =  3.0

     total cpu time spent up to now is        2.5 secs

     total energy              =      -5.03951325 Ry
     Harris-Foulkes estimate   =      -5.03951324 Ry
     estimated scf accuracy    <       0.00000007 Ry

     iteration #  5     ecut=    55.00 Ry     beta= 0.70
     Davidson diagonalization with overlap
     ethr =  2.33E-09,  avg # of iterations =  1.1

     total cpu time spent up to now is        2.7 secs

     total energy              =      -5.03951326 Ry
     Harris-Foulkes estimate   =      -5.03951325 Ry
     estimated scf accuracy    <       0.00000001 Ry

     iteration #  6     ecut=    55.00 Ry     beta= 0.70
     Davidson diagonalization with overlap
     ethr =  4.53E-10,  avg # of iterations =  1.2

     total cpu time spent up to now is        3.0 secs

     End of self-consistent calculation

          k = 0.0000 0.0000 0.0000 (   749 PWs)   bands (ev):

    -3.2503  20.4388  20.4388  21.8740  21.8740  21.8740

          k =-0.0909 0.0909-0.0909 (   770 PWs)   bands (ev):

    -3.0264  17.5195  19.7894  19.7894  22.5584  22.8596

          k =-0.1818 0.1818-0.1818 (   779 PWs)   bands (ev):

    -2.3571  13.8774  19.0561  19.0561  22.3310  23.6800

          k =-0.2727 0.2727-0.2727 (   775 PWs)   bands (ev):

    -1.2483  10.4536  18.6474  18.6474  22.1212  22.1451

          k =-0.3636 0.3636-0.3636 (   769 PWs)   bands (ev):

     0.2901   7.3509  18.6032  18.6032  20.7203  20.7204

          k =-0.4545 0.4545-0.4545 (   772 PWs)   bands (ev):

     2.2435   4.6110  18.9312  18.9312  19.6439  19.6439

          k = 0.0000 0.1818 0.0000 (   773 PWs)   bands (ev):

    -2.9519  18.5283  18.5283  18.8356  21.2098  24.2117

          k =-0.0909 0.2727-0.0909 (   781 PWs)   bands (ev):

    -2.4313  15.1988  17.6030  18.9464  21.5443  22.1779

          k =-0.1818 0.3636-0.1818 (   780 PWs)   bands (ev):

    -1.4694  11.7256  17.0472  18.6057  19.9091  23.6772

          k =-0.2727 0.4545-0.2727 (   777 PWs)   bands (ev):

    -0.0748   8.5249  16.8680  18.2678  18.5118  23.1829

          k =-0.3636 0.5455-0.3636 (   772 PWs)   bands (ev):

     1.7396   5.6678  17.0424  17.0679  18.7308  22.0097

          k = 0.5455-0.3636 0.5455 (   774 PWs)   bands (ev):

     3.1659   3.9796  16.1845  17.6481  19.3556  21.1889

          k = 0.4545-0.2727 0.4545 (   776 PWs)   bands (ev):

     1.0893   6.5778  15.7200  18.6053  20.3642  20.7388

          k = 0.3636-0.1818 0.3636 (   778 PWs)   bands (ev):

    -0.5870   9.5497  15.6544  19.9080  20.6802  21.7328

          k = 0.2727-0.0909 0.2727 (   775 PWs)   bands (ev):

    -1.8386  12.8302  16.0024  20.8270  21.6408  23.3310

          k = 0.1818-0.0000 0.1818 (   771 PWs)   bands (ev):

    -2.6542  16.0389  17.0397  21.0178  22.1778  23.2599

          k = 0.0000 0.3636 0.0000 (   785 PWs)   bands (ev):

    -2.0606  16.5272  16.5272  16.6690  19.4836  19.8524

          k =-0.0909 0.4545-0.0909 (   776 PWs)   bands (ev):

    -1.2484  13.3146  15.8333  17.1293  17.4029  20.3785

          k =-0.1818 0.5455-0.1818 (   775 PWs)   bands (ev):

    -0.0022  10.0777  15.5213  15.5230  17.1759  22.4976

          k =-0.2727 0.6364-0.2727 (   775 PWs)   bands (ev):

     1.6660   7.1294  14.1189  15.5912  17.3277  24.7331

          k = 0.6364-0.2727 0.6364 (   767 PWs)   bands (ev):

     3.7276   4.5487  13.1114  16.0432  17.8533  23.8147

          k = 0.5455-0.1818 0.5455 (   773 PWs)   bands (ev):

     2.3148   6.2100  12.5188  16.8773  18.7730  23.2469

          k = 0.4545-0.0909 0.4545 (   775 PWs)   bands (ev):

     0.5082   8.9967  12.3812  18.0904  20.0703  23.0234

          k = 0.3636 0.0000 0.3636 (   775 PWs)   bands (ev):

    -0.8806  11.6714  13.1065  19.6667  21.6902  22.7450

          k = 0.0000 0.5455 0.0000 (   777 PWs)   bands (ev):

    -0.5875  14.9455  14.9947  15.0059  15.0059  18.4853

          k =-0.0909 0.6364-0.0909 (   777 PWs)   bands (ev):

     0.5067  11.9380  13.0473  14.5628  15.8470  19.1960

          k =-0.1818 0.7273-0.1818 (   772 PWs)   bands (ev):

     2.0223   8.9632  11.4828  14.5027  16.0850  21.5769

          k = 0.7273-0.1818 0.7273 (   767 PWs)   bands (ev):

     3.9364   6.2872  10.3308  14.8254  16.5256  24.4961

          k = 0.6364-0.0909 0.6364 (   767 PWs)   bands (ev):

     3.9524   6.2185   9.6413  15.5313  17.3397  26.1129

          k = 0.5455 0.0000 0.5455 (   776 PWs)   bands (ev):

     2.0272   8.3689   9.8631  16.6207  18.5371  26.0413

          k = 0.0000 0.7273 0.0000 (   769 PWs)   bands (ev):

     1.4456  10.9084  13.7773  13.9898  13.9898  17.4696

          k =-0.0909 0.8182-0.0909 (   771 PWs)   bands (ev):

     2.7998   9.1843  11.1438  13.8004  15.0066  18.4402

          k = 0.8182-0.0909 0.8182 (   760 PWs)   bands (ev):

     4.5235   7.8586   8.5040  13.9938  15.5221  21.0945

          k = 0.7273 0.0000 0.7273 (   762 PWs)   bands (ev):

     5.9691   6.1704   7.6216  14.5704  16.2492  24.2905

          k = 0.0000 0.9091 0.0000 (   769 PWs)   bands (ev):

     3.9614   7.3597  13.1895  13.4820  13.4820  16.9340

          k = 0.9091-0.0000 0.9091 (   768 PWs)   bands (ev):

     5.0736   6.3990  10.8638  13.5464  14.7242  18.1814

          k =-0.1818 0.3636 0.0000 (   776 PWs)   bands (ev):

    -1.7647  13.8681  15.0871  19.6921  19.8019  21.6078

          k =-0.2727 0.4545-0.0909 (   774 PWs)   bands (ev):

    -0.6605  10.9211  14.2073  17.8253  20.0387  23.0923

          k =-0.3636 0.5455-0.1818 (   774 PWs)   bands (ev):

     0.8713   7.8855  14.0942  16.3141  20.1014  22.3437

          k = 0.5455-0.3636 0.7273 (   777 PWs)   bands (ev):

     2.8148   5.1713  14.3952  15.2075  20.4523  21.2781

          k =-0.1818 0.5455 0.0000 (   773 PWs)   bands (ev):

    -0.2946  12.2242  13.5116  15.3047  18.2587  20.3299

          k =-0.2727 0.6364-0.0909 (   776 PWs)   bands (ev):

     1.0875   9.5407  12.8220  13.6678  18.8086  22.1498

          k = 0.6364-0.2727 0.8182 (   772 PWs)   bands (ev):

     2.8828   6.7666  12.2460  13.1115  19.1610  23.9593

          k = 0.5455-0.1818 0.7273 (   766 PWs)   bands (ev):

     4.2922   5.0984  11.4168  13.6650  19.8100  23.2387

          k = 0.4545-0.0909 0.6364 (   768 PWs)   bands (ev):

     2.2420   7.6090  11.0149  14.6610  20.8068  22.7120

          k = 0.3636 0.0000 0.5455 (   770 PWs)   bands (ev):

     0.5807  10.0206  11.4990  16.0562  22.0145  22.0855

          k =-0.1818 0.7273 0.0000 (   768 PWs)   bands (ev):

     1.7343  11.1237  11.1452  12.5431  17.1883  19.3815

          k = 0.7273-0.1818 0.9091 (   768 PWs)   bands (ev):

     3.3701   8.6878   9.7735  12.1173  18.0217  21.4665

          k = 0.6364-0.0909 0.8182 (   763 PWs)   bands (ev):

     5.3526   6.2084   8.8002  12.5279  18.6501  24.4214

          k = 0.5455 0.0000 0.7273 (   765 PWs)   bands (ev):

     4.0214   7.2690   8.7350  13.3904  19.5672  25.2766

          k = 0.8182-0.0909 1.0000 (   763 PWs)   bands (ev):

     4.2429   7.6379  10.5725  11.9765  16.6480  18.8826

          k = 0.7273 0.0000 0.9091 (   764 PWs)   bands (ev):

     5.6217   6.9556   8.4722  11.8362  17.7551  21.2289

          k = 0.6364-0.2727 1.0000 (   770 PWs)   bands (ev):

     2.5968   8.9197  10.3587  12.1012  21.0099  22.5332

          k = 0.5455-0.1818 0.9091 (   760 PWs)   bands (ev):

     4.5021   6.7731  10.0982  11.0087  21.9371  22.8309

          k = 0.6364-0.0909 1.0000 (   762 PWs)   bands (ev):

     5.0841   8.3693   8.4252   9.9712  20.4849  22.1876

          k = 0.5455 0.0000 0.9091 (   765 PWs)   bands (ev):

     6.4654   6.7195   8.1274  10.0053  21.7284  24.5529

     the Fermi energy is     7.8628 ev

!    total energy              =      -5.03951326 Ry
     Harris-Foulkes estimate   =      -5.03951326 Ry
     estimated scf accuracy    <          1.4E-10 Ry

     The total energy is the sum of the following terms:

     one-electron contribution =       2.93675928 Ry
     hartree contribution      =       0.00608628 Ry
     xc contribution           =      -2.58808653 Ry
     ewald contribution        =      -5.39395539 Ry
     smearing contrib. (-TS)   =      -0.00031690 Ry

     convergence has been achieved in   6 iterations

     Forces acting on atoms (cartesian axes, Ry/au):

     atom    1 type  1   force =     0.00000000    0.00000000    0.00000000

     Total force =     0.000000     Total SCF correction =     0.000000


     Computing stress (Cartesian axis) and pressure

          total   stress  (Ry/bohr**3)                   (kbar)     P=   -4.13
  -0.00002809   0.00000000   0.00000000         -4.13      0.00      0.00
   0.00000000  -0.00002809  -0.00000000          0.00     -4.13     -0.00
   0.00000000  -0.00000000  -0.00002809          0.00     -0.00     -4.13


     Writing output data file Al.save/

     init_run     :      0.16s CPU      0.16s WALL (       1 calls)
     electrons    :      2.17s CPU      2.33s WALL (       1 calls)
     forces       :      0.02s CPU      0.02s WALL (       1 calls)
     stress       :      0.07s CPU      0.08s WALL (       1 calls)

     Called by init_run:
     wfcinit      :      0.07s CPU      0.08s WALL (       1 calls)
     potinit      :      0.01s CPU      0.01s WALL (       1 calls)
     hinit0       :      0.07s CPU      0.07s WALL (       1 calls)

     Called by electrons:
     c_bands      :      1.81s CPU      1.94s WALL (       7 calls)
     sum_band     :      0.32s CPU      0.35s WALL (       7 calls)
     v_of_rho     :      0.03s CPU      0.03s WALL (       7 calls)
     newd         :      0.01s CPU      0.01s WALL (       7 calls)
     mix_rho      :      0.00s CPU      0.00s WALL (       7 calls)

     Called by c_bands:
     init_us_2    :      0.05s CPU      0.06s WALL (     952 calls)
     cegterg      :      1.75s CPU      1.87s WALL (     392 calls)

     Called by sum_band:
     sum_band:bec :      0.00s CPU      0.00s WALL (     392 calls)
     addusdens    :      0.01s CPU      0.01s WALL (       7 calls)

     Called by *egterg:
     h_psi        :      1.43s CPU      1.53s WALL (    1300 calls)
     s_psi        :      0.02s CPU      0.02s WALL (    1300 calls)
     g_psi        :      0.00s CPU      0.01s WALL (     852 calls)
     cdiaghg      :      0.12s CPU      0.13s WALL (    1188 calls)

     Called by h_psi:
     h_psi:pot    :      1.43s CPU      1.52s WALL (    1300 calls)
     h_psi:calbec :      0.06s CPU      0.06s WALL (    1300 calls)
     vloc_psi     :      1.33s CPU      1.43s WALL (    1300 calls)
     add_vuspsi   :      0.02s CPU      0.02s WALL (    1300 calls)

     General routines
     calbec       :      0.08s CPU      0.09s WALL (    1972 calls)
     fft          :      0.02s CPU      0.02s WALL (     104 calls)
     ffts         :      0.00s CPU      0.00s WALL (       7 calls)
     fftw         :      1.50s CPU      1.60s WALL (   14580 calls)

     Parallel routines
     fft_scatt_xy :      0.11s CPU      0.12s WALL (   14691 calls)
     fft_scatt_yz :      0.46s CPU      0.49s WALL (   14691 calls)

     PWSCF        :     2.97s CPU         3.24s WALL


   This run was terminated on:  20: 3: 5  25Mar2024            

=------------------------------------------------------------------------------=
   JOB DONE.
=------------------------------------------------------------------------------=
