
     Program PWSCF v.6.3MaX starts on 25Mar2024 at 19:58:10 

     This program is part of the open-source Quantum ESPRESSO suite
     for quantum simulation of materials; please cite
         "P. Giannozzi et al., J. Phys.:Condens. Matter 21 395502 (2009);
         "P. Giannozzi et al., J. Phys.:Condens. Matter 29 465901 (2017);
          URL http://www.quantum-espresso.org", 
     in publications or presentations arising from this work. More details at
     http://www.quantum-espresso.org/quote

     Parallel version (MPI), running on     5 processors

     MPI processes distributed on     1 nodes
     R & G space division:  proc/nbgrp/npool/nimage =       5
     Waiting for input...
     Reading input from standard input

     Current dimensions of program PWSCF are:
     Max number of different atomic species (ntypx) = 10
     Max number of k-points (npk) =  40000
     Max angular momentum in pseudopotentials (lmaxx) =  3
               file Al.pbe-nl-kjpaw_psl.1.0.0.UPF: wavefunction(s)  3S 3P renormalized

     Subspace diagonalization in iterative solution of the eigenvalue problem:
     a serial algorithm will be used


     Parallelization info
     --------------------
     sticks:   dense  smooth     PW     G-vecs:    dense   smooth      PW
     Min          56      56     19                  623      623     128
     Max          57      57     20                  625      625     130
     Sum         283     283     97                 3119     3119     645



     bravais-lattice index     =            2
     lattice parameter (alat)  =       7.6500  a.u.
     unit-cell volume          =     111.9243 (a.u.)^3
     number of atoms/cell      =            1
     number of atomic types    =            1
     number of electrons       =         3.00
     number of Kohn-Sham states=            6
     kinetic-energy cutoff     =      35.0000  Ry
     charge density cutoff     =     140.0000  Ry
     convergence threshold     =      1.0E-08
     mixing beta               =       0.7000
     number of iterations used =            8  plain     mixing
     Exchange-correlation      = SLA PW PBX PBC ( 1  4  3  4 0 0)

     celldm(1)=   7.650000  celldm(2)=   0.000000  celldm(3)=   0.000000
     celldm(4)=   0.000000  celldm(5)=   0.000000  celldm(6)=   0.000000

     crystal axes: (cart. coord. in units of alat)
               a(1) = (  -0.500000   0.000000   0.500000 )  
               a(2) = (   0.000000   0.500000   0.500000 )  
               a(3) = (  -0.500000   0.500000   0.000000 )  

     reciprocal axes: (cart. coord. in units 2 pi/alat)
               b(1) = ( -1.000000 -1.000000  1.000000 )  
               b(2) = (  1.000000  1.000000  1.000000 )  
               b(3) = ( -1.000000  1.000000 -1.000000 )  


     PseudoPot. # 1 for Al read from file:
     /home/lorenzo/pseudos/Al/Al.pbe-nl-kjpaw_psl.1.0.0.UPF
     MD5 check sum: 8cf6d98cc7ef3f4b729b574060f3a10f
     Pseudo is Projector augmented-wave + core cor, Zval =  3.0
     Generated using "atomic" code by A. Dal Corso v.6.3
     Shape of augmentation charge: PSQ
     Using radial grid of 1135 points,  4 beta functions with: 
                l(1) =   0
                l(2) =   0
                l(3) =   1
                l(4) =   1
     Q(r) pseudized with 0 coefficients 


     atomic species   valence    mass     pseudopotential
        Al             3.00    26.98150     Al( 1.00)

     48 Sym. Ops., with inversion, found



   Cartesian axes

     site n.     atom                  positions (alat units)
         1           Al  tau(   1) = (   0.0000000   0.0000000   0.0000000  )

     number of k points=    47  gaussian smearing, width (Ry)=  0.0100
                       cart. coord. in units 2pi/alat
        k(    1) = (   0.0000000   0.0000000   0.0000000), wk =   0.0020000
        k(    2) = (  -0.1000000   0.1000000  -0.1000000), wk =   0.0160000
        k(    3) = (  -0.2000000   0.2000000  -0.2000000), wk =   0.0160000
        k(    4) = (  -0.3000000   0.3000000  -0.3000000), wk =   0.0160000
        k(    5) = (  -0.4000000   0.4000000  -0.4000000), wk =   0.0160000
        k(    6) = (   0.5000000  -0.5000000   0.5000000), wk =   0.0080000
        k(    7) = (   0.0000000   0.2000000   0.0000000), wk =   0.0120000
        k(    8) = (  -0.1000000   0.3000000  -0.1000000), wk =   0.0480000
        k(    9) = (  -0.2000000   0.4000000  -0.2000000), wk =   0.0480000
        k(   10) = (  -0.3000000   0.5000000  -0.3000000), wk =   0.0480000
        k(   11) = (   0.6000000  -0.4000000   0.6000000), wk =   0.0480000
        k(   12) = (   0.5000000  -0.3000000   0.5000000), wk =   0.0480000
        k(   13) = (   0.4000000  -0.2000000   0.4000000), wk =   0.0480000
        k(   14) = (   0.3000000  -0.1000000   0.3000000), wk =   0.0480000
        k(   15) = (   0.2000000   0.0000000   0.2000000), wk =   0.0240000
        k(   16) = (   0.0000000   0.4000000   0.0000000), wk =   0.0120000
        k(   17) = (  -0.1000000   0.5000000  -0.1000000), wk =   0.0480000
        k(   18) = (  -0.2000000   0.6000000  -0.2000000), wk =   0.0480000
        k(   19) = (   0.7000000  -0.3000000   0.7000000), wk =   0.0480000
        k(   20) = (   0.6000000  -0.2000000   0.6000000), wk =   0.0480000
        k(   21) = (   0.5000000  -0.1000000   0.5000000), wk =   0.0480000
        k(   22) = (   0.4000000   0.0000000   0.4000000), wk =   0.0240000
        k(   23) = (   0.0000000   0.6000000   0.0000000), wk =   0.0120000
        k(   24) = (  -0.1000000   0.7000000  -0.1000000), wk =   0.0480000
        k(   25) = (   0.8000000  -0.2000000   0.8000000), wk =   0.0480000
        k(   26) = (   0.7000000  -0.1000000   0.7000000), wk =   0.0480000
        k(   27) = (   0.6000000  -0.0000000   0.6000000), wk =   0.0240000
        k(   28) = (   0.0000000   0.8000000   0.0000000), wk =   0.0120000
        k(   29) = (   0.9000000  -0.1000000   0.9000000), wk =   0.0480000
        k(   30) = (   0.8000000   0.0000000   0.8000000), wk =   0.0240000
        k(   31) = (   0.0000000  -1.0000000   0.0000000), wk =   0.0060000
        k(   32) = (  -0.2000000   0.4000000   0.0000000), wk =   0.0480000
        k(   33) = (  -0.3000000   0.5000000  -0.1000000), wk =   0.0960000
        k(   34) = (   0.6000000  -0.4000000   0.8000000), wk =   0.0960000
        k(   35) = (   0.5000000  -0.3000000   0.7000000), wk =   0.0480000
        k(   36) = (  -0.2000000   0.6000000   0.0000000), wk =   0.0480000
        k(   37) = (   0.7000000  -0.3000000   0.9000000), wk =   0.0960000
        k(   38) = (   0.6000000  -0.2000000   0.8000000), wk =   0.0960000
        k(   39) = (   0.5000000  -0.1000000   0.7000000), wk =   0.0960000
        k(   40) = (   0.4000000   0.0000000   0.6000000), wk =   0.0480000
        k(   41) = (   0.8000000  -0.2000000   1.0000000), wk =   0.0480000
        k(   42) = (   0.7000000  -0.1000000   0.9000000), wk =   0.0960000
        k(   43) = (   0.6000000   0.0000000   0.8000000), wk =   0.0480000
        k(   44) = (  -0.2000000  -1.0000000   0.0000000), wk =   0.0240000
        k(   45) = (   0.6000000  -0.2000000   1.0000000), wk =   0.0480000
        k(   46) = (   0.5000000  -0.1000000   0.9000000), wk =   0.0480000
        k(   47) = (  -0.4000000  -1.0000000   0.0000000), wk =   0.0240000

     Dense  grid:     3119 G-vectors     FFT dimensions: (  24,  24,  24)

     Estimated max dynamical RAM per process >       1.62 MB

     Estimated total dynamical RAM >       8.08 MB

     Initial potential from superposition of free atoms

     starting charge    2.99771, renormalised to    3.00000
     Starting wfcs are    4 randomized atomic wfcs +    2 random wfcs
     Checking if some PAW data can be deallocated... 

     total cpu time spent up to now is        0.6 secs

     Self-consistent Calculation

     iteration #  1     ecut=    35.00 Ry     beta= 0.70
     Davidson diagonalization with overlap
     ethr =  1.00E-02,  avg # of iterations =  4.7

     Threshold (ethr) on eigenvalues was too large:
     Diagonalizing with lowered threshold

     Davidson diagonalization with overlap
     ethr =  1.93E-04,  avg # of iterations =  2.0

     total cpu time spent up to now is        1.1 secs

     total energy              =     -39.50140468 Ry
     Harris-Foulkes estimate   =     -39.50295788 Ry
     estimated scf accuracy    <       0.00571656 Ry

     iteration #  2     ecut=    35.00 Ry     beta= 0.70
     Davidson diagonalization with overlap
     ethr =  1.91E-04,  avg # of iterations =  1.0

     total cpu time spent up to now is        1.3 secs

     total energy              =     -39.50140586 Ry
     Harris-Foulkes estimate   =     -39.50150278 Ry
     estimated scf accuracy    <       0.00038817 Ry

     iteration #  3     ecut=    35.00 Ry     beta= 0.70
     Davidson diagonalization with overlap
     ethr =  1.29E-05,  avg # of iterations =  1.7

     total cpu time spent up to now is        1.4 secs

     total energy              =     -39.50142879 Ry
     Harris-Foulkes estimate   =     -39.50142946 Ry
     estimated scf accuracy    <       0.00000163 Ry

     iteration #  4     ecut=    35.00 Ry     beta= 0.70
     Davidson diagonalization with overlap
     ethr =  5.44E-08,  avg # of iterations =  3.0

     total cpu time spent up to now is        1.6 secs

     total energy              =     -39.50143101 Ry
     Harris-Foulkes estimate   =     -39.50143100 Ry
     estimated scf accuracy    <       0.00000013 Ry

     iteration #  5     ecut=    35.00 Ry     beta= 0.70
     Davidson diagonalization with overlap
     ethr =  4.45E-09,  avg # of iterations =  1.0

     total cpu time spent up to now is        1.8 secs

     total energy              =     -39.50143100 Ry
     Harris-Foulkes estimate   =     -39.50143101 Ry
     estimated scf accuracy    <       0.00000002 Ry

     iteration #  6     ecut=    35.00 Ry     beta= 0.70
     Davidson diagonalization with overlap
     ethr =  7.58E-10,  avg # of iterations =  1.0

     total cpu time spent up to now is        2.0 secs

     End of self-consistent calculation

          k = 0.0000 0.0000 0.0000 (   387 PWs)   bands (ev):

    -3.2528  20.4420  20.4420  21.8740  21.8741  21.8741

          k =-0.1000 0.1000-0.1000 (   381 PWs)   bands (ev):

    -2.9819  17.1537  19.7070  19.7070  22.5532  23.0105

          k =-0.2000 0.2000-0.2000 (   386 PWs)   bands (ev):

    -2.1725  13.1702  18.9473  18.9473  22.2740  23.4244

          k =-0.3000 0.3000-0.3000 (   395 PWs)   bands (ev):

    -0.8334   9.4860  18.5962  18.5962  21.6871  22.1048

          k =-0.4000 0.4000-0.4000 (   389 PWs)   bands (ev):

     1.0210   6.2084  18.6909  18.6909  20.2472  20.2472

          k = 0.5000-0.5000 0.5000 (   392 PWs)   bands (ev):

     3.2754   3.4776  19.1930  19.1930  19.2907  19.2907

          k = 0.0000 0.2000 0.0000 (   383 PWs)   bands (ev):

    -2.8918  18.3106  18.3106  18.6113  21.0877  23.7248

          k =-0.1000 0.3000-0.1000 (   380 PWs)   bands (ev):

    -2.2622  14.6357  17.3353  18.7402  21.1286  21.9379

          k =-0.2000 0.4000-0.2000 (   384 PWs)   bands (ev):

    -1.1003  10.8765  16.8117  18.4095  19.1281  23.9591

          k =-0.3000 0.5000-0.3000 (   389 PWs)   bands (ev):

     0.5814   7.4725  16.7458  17.4535  18.4167  22.9386

          k = 0.6000-0.4000 0.6000 (   391 PWs)   bands (ev):

     2.7620   4.5023  16.2592  17.1398  18.8562  21.8076

          k = 0.5000-0.3000 0.5000 (   393 PWs)   bands (ev):

     1.9823   5.4390  15.5368  17.9935  19.7691  21.1144

          k = 0.4000-0.2000 0.4000 (   396 PWs)   bands (ev):

    -0.0359   8.5561  15.2977  19.2950  20.8745  21.1349

          k = 0.3000-0.1000 0.3000 (   384 PWs)   bands (ev):

    -1.5461  12.0686  15.5599  20.8264  21.2369  22.8942

          k = 0.2000 0.0000 0.2000 (   381 PWs)   bands (ev):

    -2.5317  15.5600  16.6309  21.1425  22.1882  23.3776

          k = 0.0000 0.4000 0.0000 (   379 PWs)   bands (ev):

    -1.8142  16.1838  16.1838  16.2847  18.5664  19.5556

          k =-0.1000 0.5000-0.1000 (   392 PWs)   bands (ev):

    -0.8336  12.6710  15.4959  16.2275  16.9244  20.2847

          k =-0.2000 0.6000-0.2000 (   394 PWs)   bands (ev):

     0.6684   9.2059  14.3789  15.2708  16.9340  22.7939

          k = 0.7000-0.3000 0.7000 (   393 PWs)   bands (ev):

     2.6734   6.1149  12.9938  15.5083  17.2622  24.8105

          k = 0.6000-0.2000 0.6000 (   389 PWs)   bands (ev):

     3.4512   5.1728  12.1043  16.2086  18.0564  23.9888

          k = 0.5000-0.1000 0.5000 (   393 PWs)   bands (ev):

     1.2834   8.0741  11.7539  17.3710  19.3202  23.5883

          k = 0.4000 0.0000 0.4000 (   395 PWs)   bands (ev):

    -0.3899  10.9233  12.3887  18.9856  21.0045  23.2290

          k = 0.0000 0.6000 0.0000 (   391 PWs)   bands (ev):

    -0.0368  13.7207  14.5366  14.6481  14.6481  18.1332

          k =-0.1000 0.7000-0.1000 (   395 PWs)   bands (ev):

     1.2798  11.2919  11.7204  14.2654  15.5759  19.1181

          k = 0.8000-0.2000 0.8000 (   393 PWs)   bands (ev):

     3.0959   8.1849  10.1171  14.3460  15.9364  21.9589

          k = 0.7000-0.1000 0.7000 (   392 PWs)   bands (ev):

     5.2673   5.5206   9.0831  14.8901  16.6133  25.3314

          k = 0.6000-0.0000 0.6000 (   395 PWs)   bands (ev):

     3.1085   7.5933   9.0717  15.8986  17.7499  26.8827

          k = 0.0000 0.8000 0.0000 (   396 PWs)   bands (ev):

     2.4038   9.4113  13.4731  13.7260  13.7260  17.1898

          k = 0.9000-0.1000 0.9000 (   393 PWs)   bands (ev):

     3.9994   7.6846  10.6962  13.6504  14.8939  18.5033

          k = 0.8000 0.0000 0.8000 (   391 PWs)   bands (ev):

     5.5997   6.9082   7.9308  14.0380  15.5949  21.6695

          k = 0.0000-1.0000 0.0000 (   388 PWs)   bands (ev):

     4.9365   6.2530  13.1171  13.4189  13.4189  16.8626

          k =-0.2000 0.4000 0.0000 (   381 PWs)   bands (ev):

    -1.4568  13.2528  14.5316  18.8505  19.8114  21.6008

          k =-0.3000 0.5000-0.1000 (   388 PWs)   bands (ev):

    -0.1245  10.0790  13.6735  16.8776  20.1279  23.1621

          k = 0.6000-0.4000 0.8000 (   392 PWs)   bands (ev):

     1.7199   6.8687  13.7026  15.3599  20.3201  21.9971

          k = 0.5000-0.3000 0.7000 (   388 PWs)   bands (ev):

     3.9446   4.1787  14.0969  14.4742  20.7495  21.1350

          k =-0.2000 0.6000 0.0000 (   393 PWs)   bands (ev):

     0.3162  11.5917  12.9032  14.1206  18.2423  20.2955

          k = 0.7000-0.3000 0.9000 (   399 PWs)   bands (ev):

     1.9785   8.7366  12.1232  12.6215  18.9300  22.4891

          k = 0.6000-0.2000 0.8000 (   392 PWs)   bands (ev):

     4.1245   5.8522  11.0879  12.7912  19.4707  24.0397

          k = 0.5000-0.1000 0.7000 (   392 PWs)   bands (ev):

     3.3648   6.7263  10.4175  13.6639  20.3902  23.3400

          k = 0.4000 0.0000 0.6000 (   392 PWs)   bands (ev):

     1.3702   9.2581  10.7430  15.0378  21.6981  22.4805

          k = 0.8000-0.2000 1.0000 (   396 PWs)   bands (ev):

     2.7503   9.7281  10.5921  12.0329  17.2686  19.4253

          k = 0.7000-0.1000 0.9000 (   393 PWs)   bands (ev):

     4.6800   7.9803   8.4690  11.7643  18.2959  21.9479

          k = 0.6000 0.0000 0.8000 (   389 PWs)   bands (ev):

     5.4851   6.5958   8.0423  12.4485  19.1650  25.3161

          k =-0.2000-1.0000 0.0000 (   392 PWs)   bands (ev):

     5.2680   6.6006  10.2587  11.6926  16.9418  19.1237

          k = 0.6000-0.2000 1.0000 (   392 PWs)   bands (ev):

     3.7848   8.2592   9.6567  10.8921  21.5649  22.9195

          k = 0.5000-0.1000 0.9000 (   396 PWs)   bands (ev):

     5.9245   6.1548   9.4576  10.0883  22.5311  22.9832

          k =-0.4000-1.0000 0.0000 (   394 PWs)   bands (ev):

     6.2636   7.5903   7.9263   9.5225  21.2483  22.8212

     the Fermi energy is     7.9837 ev

!    total energy              =     -39.50143101 Ry
     Harris-Foulkes estimate   =     -39.50143101 Ry
     estimated scf accuracy    <          1.2E-10 Ry

     total all-electron energy =      -485.644212 Ry

     The total energy is the sum of the following terms:

     one-electron contribution =       3.15181303 Ry
     hartree contribution      =       0.00591003 Ry
     xc contribution           =      -2.58782724 Ry
     ewald contribution        =      -5.39395543 Ry
     one-center paw contrib.   =     -34.67676780 Ry
     smearing contrib. (-TS)   =      -0.00060360 Ry

     convergence has been achieved in   6 iterations

     Forces acting on atoms (cartesian axes, Ry/au):

     atom    1 type  1   force =     0.00000000    0.00000000    0.00000000

     Total force =     0.000000     Total SCF correction =     0.000000


     Computing stress (Cartesian axis) and pressure

          total   stress  (Ry/bohr**3)                   (kbar)     P=   -5.03
  -0.00003417   0.00000000  -0.00000000         -5.03      0.00     -0.00
   0.00000000  -0.00003417  -0.00000000          0.00     -5.03     -0.00
  -0.00000000   0.00000000  -0.00003417         -0.00      0.00     -5.03


     Writing output data file Al.save/

     init_run     :      0.16s CPU      0.17s WALL (       1 calls)
     electrons    :      1.22s CPU      1.36s WALL (       1 calls)
     forces       :      0.01s CPU      0.01s WALL (       1 calls)
     stress       :      0.04s CPU      0.04s WALL (       1 calls)

     Called by init_run:
     wfcinit      :      0.05s CPU      0.06s WALL (       1 calls)
     potinit      :      0.03s CPU      0.04s WALL (       1 calls)
     hinit0       :      0.06s CPU      0.06s WALL (       1 calls)

     Called by electrons:
     c_bands      :      0.91s CPU      0.99s WALL (       7 calls)
     sum_band     :      0.16s CPU      0.18s WALL (       7 calls)
     v_of_rho     :      0.02s CPU      0.02s WALL (       7 calls)
     newd         :      0.01s CPU      0.01s WALL (       7 calls)
     PAW_pot      :      0.16s CPU      0.19s WALL (       7 calls)
     mix_rho      :      0.00s CPU      0.00s WALL (       7 calls)

     Called by c_bands:
     init_us_2    :      0.02s CPU      0.02s WALL (     799 calls)
     cegterg      :      0.88s CPU      0.96s WALL (     329 calls)

     Called by sum_band:
     sum_band:bec :      0.00s CPU      0.00s WALL (     329 calls)
     addusdens    :      0.00s CPU      0.01s WALL (       7 calls)

     Called by *egterg:
     h_psi        :      0.73s CPU      0.80s WALL (    1060 calls)
     s_psi        :      0.01s CPU      0.01s WALL (    1060 calls)
     g_psi        :      0.00s CPU      0.00s WALL (     684 calls)
     cdiaghg      :      0.08s CPU      0.09s WALL (     966 calls)

     Called by h_psi:
     h_psi:pot    :      0.72s CPU      0.79s WALL (    1060 calls)
     h_psi:calbec :      0.03s CPU      0.03s WALL (    1060 calls)
     vloc_psi     :      0.68s CPU      0.74s WALL (    1060 calls)
     add_vuspsi   :      0.01s CPU      0.01s WALL (    1060 calls)

     General routines
     calbec       :      0.04s CPU      0.04s WALL (    1624 calls)
     fft          :      0.01s CPU      0.01s WALL (     104 calls)
     ffts         :      0.00s CPU      0.00s WALL (       7 calls)
     fftw         :      0.74s CPU      0.82s WALL (   12126 calls)

     Parallel routines
     fft_scatt_xy :      0.07s CPU      0.08s WALL (   12237 calls)
     fft_scatt_yz :      0.24s CPU      0.27s WALL (   12237 calls)

     PWSCF        :     1.89s CPU         2.10s WALL


   This run was terminated on:  19:58:12  25Mar2024            

=------------------------------------------------------------------------------=
   JOB DONE.
=------------------------------------------------------------------------------=
