
     Program PWSCF v.6.3MaX starts on 25Mar2024 at 20: 0: 2 

     This program is part of the open-source Quantum ESPRESSO suite
     for quantum simulation of materials; please cite
         "P. Giannozzi et al., J. Phys.:Condens. Matter 21 395502 (2009);
         "P. Giannozzi et al., J. Phys.:Condens. Matter 29 465901 (2017);
          URL http://www.quantum-espresso.org", 
     in publications or presentations arising from this work. More details at
     http://www.quantum-espresso.org/quote

     Parallel version (MPI), running on     5 processors

     MPI processes distributed on     1 nodes
     R & G space division:  proc/nbgrp/npool/nimage =       5
     Waiting for input...
     Reading input from standard input

     Current dimensions of program PWSCF are:
     Max number of different atomic species (ntypx) = 10
     Max number of k-points (npk) =  40000
     Max angular momentum in pseudopotentials (lmaxx) =  3
               file Al.pbe-n-kjpaw_psl.1.0.0.UPF: wavefunction(s)  3S 3P renormalized

     Subspace diagonalization in iterative solution of the eigenvalue problem:
     a serial algorithm will be used


     Parallelization info
     --------------------
     sticks:   dense  smooth     PW     G-vecs:    dense   smooth      PW
     Min          62      62     21                  765      765     148
     Max          63      63     22                  770      770     151
     Sum         313     313    109                 3839     3839     749



     bravais-lattice index     =            2
     lattice parameter (alat)  =       7.6500  a.u.
     unit-cell volume          =     111.9243 (a.u.)^3
     number of atoms/cell      =            1
     number of atomic types    =            1
     number of electrons       =         3.00
     number of Kohn-Sham states=            6
     kinetic-energy cutoff     =      40.0000  Ry
     charge density cutoff     =     160.0000  Ry
     convergence threshold     =      1.0E-08
     mixing beta               =       0.7000
     number of iterations used =            8  plain     mixing
     Exchange-correlation      = SLA PW PBX PBC ( 1  4  3  4 0 0)

     celldm(1)=   7.650000  celldm(2)=   0.000000  celldm(3)=   0.000000
     celldm(4)=   0.000000  celldm(5)=   0.000000  celldm(6)=   0.000000

     crystal axes: (cart. coord. in units of alat)
               a(1) = (  -0.500000   0.000000   0.500000 )  
               a(2) = (   0.000000   0.500000   0.500000 )  
               a(3) = (  -0.500000   0.500000   0.000000 )  

     reciprocal axes: (cart. coord. in units 2 pi/alat)
               b(1) = ( -1.000000 -1.000000  1.000000 )  
               b(2) = (  1.000000  1.000000  1.000000 )  
               b(3) = ( -1.000000  1.000000 -1.000000 )  


     PseudoPot. # 1 for Al read from file:
     /home/lorenzo/pseudos/Al/Al.pbe-n-kjpaw_psl.1.0.0.UPF
     MD5 check sum: 502b6b27b9c6270cab5dd1084b96fa6d
     Pseudo is Projector augmented-wave + core cor, Zval =  3.0
     Generated using "atomic" code by A. Dal Corso v.6.3
     Shape of augmentation charge: PSQ
     Using radial grid of 1135 points,  6 beta functions with: 
                l(1) =   0
                l(2) =   0
                l(3) =   1
                l(4) =   1
                l(5) =   2
                l(6) =   2
     Q(r) pseudized with 0 coefficients 


     atomic species   valence    mass     pseudopotential
        Al             3.00    26.98150     Al( 1.00)

     48 Sym. Ops., with inversion, found



   Cartesian axes

     site n.     atom                  positions (alat units)
         1           Al  tau(   1) = (   0.0000000   0.0000000   0.0000000  )

     number of k points=    29  gaussian smearing, width (Ry)=  0.0100
                       cart. coord. in units 2pi/alat
        k(    1) = (   0.0000000   0.0000000   0.0000000), wk =   0.0039062
        k(    2) = (  -0.1250000   0.1250000  -0.1250000), wk =   0.0312500
        k(    3) = (  -0.2500000   0.2500000  -0.2500000), wk =   0.0312500
        k(    4) = (  -0.3750000   0.3750000  -0.3750000), wk =   0.0312500
        k(    5) = (   0.5000000  -0.5000000   0.5000000), wk =   0.0156250
        k(    6) = (   0.0000000   0.2500000   0.0000000), wk =   0.0234375
        k(    7) = (  -0.1250000   0.3750000  -0.1250000), wk =   0.0937500
        k(    8) = (  -0.2500000   0.5000000  -0.2500000), wk =   0.0937500
        k(    9) = (   0.6250000  -0.3750000   0.6250000), wk =   0.0937500
        k(   10) = (   0.5000000  -0.2500000   0.5000000), wk =   0.0937500
        k(   11) = (   0.3750000  -0.1250000   0.3750000), wk =   0.0937500
        k(   12) = (   0.2500000   0.0000000   0.2500000), wk =   0.0468750
        k(   13) = (   0.0000000   0.5000000   0.0000000), wk =   0.0234375
        k(   14) = (  -0.1250000   0.6250000  -0.1250000), wk =   0.0937500
        k(   15) = (   0.7500000  -0.2500000   0.7500000), wk =   0.0937500
        k(   16) = (   0.6250000  -0.1250000   0.6250000), wk =   0.0937500
        k(   17) = (   0.5000000   0.0000000   0.5000000), wk =   0.0468750
        k(   18) = (   0.0000000   0.7500000   0.0000000), wk =   0.0234375
        k(   19) = (   0.8750000  -0.1250000   0.8750000), wk =   0.0937500
        k(   20) = (   0.7500000   0.0000000   0.7500000), wk =   0.0468750
        k(   21) = (   0.0000000  -1.0000000   0.0000000), wk =   0.0117188
        k(   22) = (  -0.2500000   0.5000000   0.0000000), wk =   0.0937500
        k(   23) = (   0.6250000  -0.3750000   0.8750000), wk =   0.1875000
        k(   24) = (   0.5000000  -0.2500000   0.7500000), wk =   0.0937500
        k(   25) = (   0.7500000  -0.2500000   1.0000000), wk =   0.0937500
        k(   26) = (   0.6250000  -0.1250000   0.8750000), wk =   0.1875000
        k(   27) = (   0.5000000   0.0000000   0.7500000), wk =   0.0937500
        k(   28) = (  -0.2500000  -1.0000000   0.0000000), wk =   0.0468750
        k(   29) = (  -0.5000000  -1.0000000   0.0000000), wk =   0.0234375

     Dense  grid:     3839 G-vectors     FFT dimensions: (  24,  24,  24)

     Estimated max dynamical RAM per process >       4.40 MB

     Estimated total dynamical RAM >      22.02 MB

     Initial potential from superposition of free atoms

     starting charge    2.99771, renormalised to    3.00000
     Starting wfcs are    4 randomized atomic wfcs +    2 random wfcs
     Checking if some PAW data can be deallocated... 

     total cpu time spent up to now is        1.0 secs

     Self-consistent Calculation

     iteration #  1     ecut=    40.00 Ry     beta= 0.70
     Davidson diagonalization with overlap
     ethr =  1.00E-02,  avg # of iterations =  4.6

     Threshold (ethr) on eigenvalues was too large:
     Diagonalizing with lowered threshold

     Davidson diagonalization with overlap
     ethr =  1.86E-04,  avg # of iterations =  1.9

     total cpu time spent up to now is        1.5 secs

     total energy              =     -39.50255257 Ry
     Harris-Foulkes estimate   =     -39.50368412 Ry
     estimated scf accuracy    <       0.00550271 Ry

     iteration #  2     ecut=    40.00 Ry     beta= 0.70
     Davidson diagonalization with overlap
     ethr =  1.83E-04,  avg # of iterations =  1.1

     total cpu time spent up to now is        1.7 secs

     total energy              =     -39.50250967 Ry
     Harris-Foulkes estimate   =     -39.50259739 Ry
     estimated scf accuracy    <       0.00040901 Ry

     iteration #  3     ecut=    40.00 Ry     beta= 0.70
     Davidson diagonalization with overlap
     ethr =  1.36E-05,  avg # of iterations =  2.0

     total cpu time spent up to now is        2.0 secs

     total energy              =     -39.50251821 Ry
     Harris-Foulkes estimate   =     -39.50251831 Ry
     estimated scf accuracy    <       0.00000047 Ry

     iteration #  4     ecut=    40.00 Ry     beta= 0.70
     Davidson diagonalization with overlap
     ethr =  1.57E-08,  avg # of iterations =  2.8

     total cpu time spent up to now is        2.2 secs

     total energy              =     -39.50251968 Ry
     Harris-Foulkes estimate   =     -39.50251970 Ry
     estimated scf accuracy    <       0.00000003 Ry

     iteration #  5     ecut=    40.00 Ry     beta= 0.70
     Davidson diagonalization with overlap
     ethr =  9.65E-10,  avg # of iterations =  1.1

     total cpu time spent up to now is        2.4 secs

     End of self-consistent calculation

          k = 0.0000 0.0000 0.0000 (   531 PWs)   bands (ev):

    -3.2488  20.4351  20.4351  21.8951  21.8951  21.8951

          k =-0.1250 0.1250-0.1250 (   495 PWs)   bands (ev):

    -2.8257  16.1468  19.4877  19.4877  22.5334  23.4316

          k =-0.2500 0.2500-0.2500 (   483 PWs)   bands (ev):

    -1.5641  11.2842  18.7231  18.7231  22.1776  22.5521

          k =-0.3750 0.3750-0.3750 (   477 PWs)   bands (ev):

     0.5143   6.9895  18.6319  18.6319  20.5727  20.5727

          k = 0.5000-0.5000 0.5000 (   476 PWs)   bands (ev):

     3.2788   3.4812  19.2129  19.2129  19.2833  19.2833

          k = 0.0000 0.2500 0.0000 (   495 PWs)   bands (ev):

    -2.6849  17.7322  17.7322  17.9956  20.7433  22.4494

          k =-0.1250 0.3750-0.1250 (   484 PWs)   bands (ev):

    -1.7037  13.1422  16.6704  18.1908  19.4195  21.9476

          k =-0.2500 0.5000-0.2500 (   471 PWs)   bands (ev):

     0.1008   8.6856  16.3233  17.0487  18.0274  24.0348

          k = 0.6250-0.3750 0.6250 (   473 PWs)   bands (ev):

     2.6954   4.8625  15.4245  16.6949  18.4656  22.5262

          k = 0.5000-0.2500 0.5000 (   477 PWs)   bands (ev):

     1.7465   6.0548  14.5447  17.7864  19.6484  21.6854

          k = 0.3750-0.1250 0.3750 (   481 PWs)   bands (ev):

    -0.5905  10.0844  14.4453  19.5786  21.5326  21.5326

          k = 0.2500 0.0000 0.2500 (   489 PWs)   bands (ev):

    -2.1234  14.2879  15.5215  21.5338  21.8334  23.1733

          k = 0.0000 0.5000 0.0000 (   480 PWs)   bands (ev):

    -1.0070  15.3270  15.3477  15.3477  16.0904  18.8091

          k =-0.1250 0.6250-0.1250 (   478 PWs)   bands (ev):

     0.5128  11.0699  13.4221  14.7514  16.2170  20.2252

          k = 0.7500-0.2500 0.7500 (   477 PWs)   bands (ev):

     2.8252   7.1009  11.4991  14.8778  16.5584  23.8909

          k = 0.6250-0.1250 0.6250 (   473 PWs)   bands (ev):

     3.7717   5.8828  10.3777  15.7272  17.5490  25.4411

          k = 0.5000 0.0000 0.5000 (   481 PWs)   bands (ev):

     1.1998   9.0929  10.5931  17.3002  19.2646  25.4116

          k = 0.0000 0.7500 0.0000 (   472 PWs)   bands (ev):

     1.7397  10.4332  13.6681  13.9097  13.9097  17.3771

          k = 0.8750-0.1250 0.8750 (   472 PWs)   bands (ev):

     3.7375   8.2250  10.0596  13.7919  15.1522  19.2871

          k = 0.7500 0.0000 0.7500 (   478 PWs)   bands (ev):

     5.9770   6.5012   7.4483  14.3966  16.0328  23.4759

          k = 0.0000-1.0000 0.0000 (   468 PWs)   bands (ev):

     4.9420   6.2531  13.1105  13.4308  13.4308  16.8660

          k =-0.2500 0.5000 0.0000 (   478 PWs)   bands (ev):

    -0.4521  11.6961  13.0927  16.6065  19.9661  21.7208

          k = 0.6250-0.3750 0.8750 (   479 PWs)   bands (ev):

     1.6088   7.9894  12.4188  14.4738  20.5873  22.6681

          k = 0.5000-0.2500 0.7500 (   476 PWs)   bands (ev):

     4.3223   4.5713  12.8171  13.2791  21.1143  21.5354

          k = 0.7500-0.2500 1.0000 (   471 PWs)   bands (ev):

     2.2836  10.1350  10.8460  11.7292  18.4765  20.4681

          k = 0.6250-0.1250 0.8750 (   478 PWs)   bands (ev):

     4.8015   6.9282   9.3062  11.4626  19.6554  23.7758

          k = 0.5000 0.0000 0.7500 (   479 PWs)   bands (ev):

     3.9022   7.5334   8.9973  12.5663  20.8681  24.1091

          k =-0.2500-1.0000 0.0000 (   478 PWs)   bands (ev):

     5.4593   6.7942   9.6142  11.1167  17.9684  20.0128

          k =-0.5000-1.0000 0.0000 (   488 PWs)   bands (ev):

     7.0142   7.0142   8.0307   8.9357  23.6369  23.6369

     the Fermi energy is     7.8845 ev

!    total energy              =     -39.50251968 Ry
     Harris-Foulkes estimate   =     -39.50251968 Ry
     estimated scf accuracy    <          1.4E-10 Ry

     total all-electron energy =      -485.645300 Ry

     The total energy is the sum of the following terms:

     one-electron contribution =       3.15285639 Ry
     hartree contribution      =       0.00618370 Ry
     xc contribution           =      -2.58822792 Ry
     ewald contribution        =      -5.39395543 Ry
     one-center paw contrib.   =     -34.67906285 Ry
     smearing contrib. (-TS)   =      -0.00031357 Ry

     convergence has been achieved in   5 iterations

     Forces acting on atoms (cartesian axes, Ry/au):

     atom    1 type  1   force =     0.00000000    0.00000000    0.00000000

     Total force =     0.000000     Total SCF correction =     0.000000


     Computing stress (Cartesian axis) and pressure

          total   stress  (Ry/bohr**3)                   (kbar)     P=   -4.13
  -0.00002809   0.00000000   0.00000000         -4.13      0.00      0.00
   0.00000000  -0.00002809  -0.00000000          0.00     -4.13     -0.00
   0.00000000  -0.00000000  -0.00002809          0.00     -0.00     -4.13


     Writing output data file Al.save/

     init_run     :      0.27s CPU      0.28s WALL (       1 calls)
     electrons    :      1.27s CPU      1.38s WALL (       1 calls)
     forces       :      0.02s CPU      0.02s WALL (       1 calls)
     stress       :      0.07s CPU      0.07s WALL (       1 calls)

     Called by init_run:
     wfcinit      :      0.03s CPU      0.04s WALL (       1 calls)
     potinit      :      0.10s CPU      0.11s WALL (       1 calls)
     hinit0       :      0.11s CPU      0.11s WALL (       1 calls)

     Called by electrons:
     c_bands      :      0.63s CPU      0.66s WALL (       6 calls)
     sum_band     :      0.14s CPU      0.15s WALL (       6 calls)
     v_of_rho     :      0.02s CPU      0.02s WALL (       6 calls)
     newd         :      0.03s CPU      0.03s WALL (       6 calls)
     PAW_pot      :      0.55s CPU      0.63s WALL (       6 calls)
     mix_rho      :      0.00s CPU      0.00s WALL (       6 calls)

     Called by c_bands:
     init_us_2    :      0.03s CPU      0.03s WALL (     435 calls)
     cegterg      :      0.59s CPU      0.63s WALL (     174 calls)

     Called by sum_band:
     sum_band:bec :      0.00s CPU      0.00s WALL (     174 calls)
     addusdens    :      0.02s CPU      0.02s WALL (       6 calls)

     Called by *egterg:
     h_psi        :      0.48s CPU      0.51s WALL (     597 calls)
     s_psi        :      0.01s CPU      0.01s WALL (     597 calls)
     g_psi        :      0.00s CPU      0.00s WALL (     394 calls)
     cdiaghg      :      0.05s CPU      0.05s WALL (     539 calls)

     Called by h_psi:
     h_psi:pot    :      0.48s CPU      0.51s WALL (     597 calls)
     h_psi:calbec :      0.03s CPU      0.03s WALL (     597 calls)
     vloc_psi     :      0.44s CPU      0.46s WALL (     597 calls)
     add_vuspsi   :      0.01s CPU      0.01s WALL (     597 calls)

     General routines
     calbec       :      0.05s CPU      0.05s WALL (     916 calls)
     fft          :      0.02s CPU      0.02s WALL (      93 calls)
     ffts         :      0.00s CPU      0.00s WALL (       6 calls)
     fftw         :      0.49s CPU      0.52s WALL (    6586 calls)

     Parallel routines
     fft_scatt_xy :      0.04s CPU      0.04s WALL (    6685 calls)
     fft_scatt_yz :      0.21s CPU      0.22s WALL (    6685 calls)

     PWSCF        :     2.40s CPU         2.58s WALL


   This run was terminated on:  20: 0: 5  25Mar2024            

=------------------------------------------------------------------------------=
   JOB DONE.
=------------------------------------------------------------------------------=
