
     Program PWSCF v.6.3MaX starts on 25Mar2024 at 20: 4:36 

     This program is part of the open-source Quantum ESPRESSO suite
     for quantum simulation of materials; please cite
         "P. Giannozzi et al., J. Phys.:Condens. Matter 21 395502 (2009);
         "P. Giannozzi et al., J. Phys.:Condens. Matter 29 465901 (2017);
          URL http://www.quantum-espresso.org", 
     in publications or presentations arising from this work. More details at
     http://www.quantum-espresso.org/quote

     Parallel version (MPI), running on     5 processors

     MPI processes distributed on     1 nodes
     R & G space division:  proc/nbgrp/npool/nimage =       5
     Waiting for input...
     Reading input from standard input

     Current dimensions of program PWSCF are:
     Max number of different atomic species (ntypx) = 10
     Max number of k-points (npk) =  40000
     Max angular momentum in pseudopotentials (lmaxx) =  3

     Subspace diagonalization in iterative solution of the eigenvalue problem:
     a serial algorithm will be used


     Parallelization info
     --------------------
     sticks:   dense  smooth     PW     G-vecs:    dense   smooth      PW
     Min          99      99     30                 1395     1395     241
     Max         101     101     31                 1395     1395     244
     Sum         499     499    151                 6975     6975    1211



     bravais-lattice index     =            2
     lattice parameter (alat)  =       7.6500  a.u.
     unit-cell volume          =     111.9243 (a.u.)^3
     number of atoms/cell      =            1
     number of atomic types    =            1
     number of electrons       =         3.00
     number of Kohn-Sham states=            6
     kinetic-energy cutoff     =      60.0000  Ry
     charge density cutoff     =     240.0000  Ry
     convergence threshold     =      1.0E-08
     mixing beta               =       0.7000
     number of iterations used =            8  plain     mixing
     Exchange-correlation      = PBE ( 1  4  3  4 0 0)

     celldm(1)=   7.650000  celldm(2)=   0.000000  celldm(3)=   0.000000
     celldm(4)=   0.000000  celldm(5)=   0.000000  celldm(6)=   0.000000

     crystal axes: (cart. coord. in units of alat)
               a(1) = (  -0.500000   0.000000   0.500000 )  
               a(2) = (   0.000000   0.500000   0.500000 )  
               a(3) = (  -0.500000   0.500000   0.000000 )  

     reciprocal axes: (cart. coord. in units 2 pi/alat)
               b(1) = ( -1.000000 -1.000000  1.000000 )  
               b(2) = (  1.000000  1.000000  1.000000 )  
               b(3) = ( -1.000000  1.000000 -1.000000 )  


     PseudoPot. # 1 for Al read from file:
     /home/lorenzo/pseudos/Al/Al.pbe-nl-rrkjus_psl.1.0.0.UPF
     MD5 check sum: 6db8691240a1c860ce6448702d298c4b
     Pseudo is Ultrasoft + core correction, Zval =  3.0
     Generated using "atomic" code by A. Dal Corso v.6.3
     Using radial grid of 1135 points,  4 beta functions with: 
                l(1) =   0
                l(2) =   0
                l(3) =   1
                l(4) =   1
     Q(r) pseudized with 0 coefficients 


     atomic species   valence    mass     pseudopotential
        Al             3.00    26.98150     Al( 1.00)

     48 Sym. Ops., with inversion, found



   Cartesian axes

     site n.     atom                  positions (alat units)
         1           Al  tau(   1) = (   0.0000000   0.0000000   0.0000000  )

     number of k points=     4  gaussian smearing, width (Ry)=  0.0100
                       cart. coord. in units 2pi/alat
        k(    1) = (   0.0000000   0.0000000   0.0000000), wk =   0.0740741
        k(    2) = (  -0.3333333   0.3333333  -0.3333333), wk =   0.5925926
        k(    3) = (   0.0000000   0.6666667   0.0000000), wk =   0.4444444
        k(    4) = (   0.6666667  -0.0000000   0.6666667), wk =   0.8888889

     Dense  grid:     6975 G-vectors     FFT dimensions: (  27,  27,  27)

     Estimated max dynamical RAM per process >       2.48 MB

     Estimated total dynamical RAM >      12.39 MB

     Initial potential from superposition of free atoms

     starting charge    2.99771, renormalised to    3.00000
     Starting wfcs are    4 randomized atomic wfcs +    2 random wfcs

     total cpu time spent up to now is        0.5 secs

     Self-consistent Calculation

     iteration #  1     ecut=    60.00 Ry     beta= 0.70
     Davidson diagonalization with overlap
     ethr =  1.00E-02,  avg # of iterations =  4.8

     Threshold (ethr) on eigenvalues was too large:
     Diagonalizing with lowered threshold

     Davidson diagonalization with overlap
     ethr =  2.85E-04,  avg # of iterations =  3.0

     total cpu time spent up to now is        0.5 secs

     total energy              =      -4.99704812 Ry
     Harris-Foulkes estimate   =      -4.99841453 Ry
     estimated scf accuracy    <       0.00832520 Ry

     iteration #  2     ecut=    60.00 Ry     beta= 0.70
     Davidson diagonalization with overlap
     ethr =  2.78E-04,  avg # of iterations =  1.0

     total cpu time spent up to now is        0.6 secs

     total energy              =      -4.99701803 Ry
     Harris-Foulkes estimate   =      -4.99712481 Ry
     estimated scf accuracy    <       0.00063904 Ry

     iteration #  3     ecut=    60.00 Ry     beta= 0.70
     Davidson diagonalization with overlap
     ethr =  2.13E-05,  avg # of iterations =  2.2

     total cpu time spent up to now is        0.6 secs

     total energy              =      -4.99703597 Ry
     Harris-Foulkes estimate   =      -4.99703611 Ry
     estimated scf accuracy    <       0.00000158 Ry

     iteration #  4     ecut=    60.00 Ry     beta= 0.70
     Davidson diagonalization with overlap
     ethr =  5.27E-08,  avg # of iterations =  2.5

     total cpu time spent up to now is        0.6 secs

     total energy              =      -4.99703763 Ry
     Harris-Foulkes estimate   =      -4.99703763 Ry
     estimated scf accuracy    <       0.00000007 Ry

     iteration #  5     ecut=    60.00 Ry     beta= 0.70
     Davidson diagonalization with overlap
     ethr =  2.34E-09,  avg # of iterations =  1.2

     total cpu time spent up to now is        0.7 secs

     total energy              =      -4.99703765 Ry
     Harris-Foulkes estimate   =      -4.99703764 Ry
     estimated scf accuracy    <       0.00000005 Ry

     iteration #  6     ecut=    60.00 Ry     beta= 0.70
     Davidson diagonalization with overlap
     ethr =  1.60E-09,  avg # of iterations =  1.2

     total cpu time spent up to now is        0.7 secs

     End of self-consistent calculation

          k = 0.0000 0.0000 0.0000 (   893 PWs)   bands (ev):

    -3.2392  20.4494  20.4494  21.8808  21.8809  21.8809

          k =-0.3333 0.3333-0.3333 (   878 PWs)   bands (ev):

    -0.2588   8.3574  18.5852  18.5852  21.1679  21.1679

          k = 0.0000 0.6667 0.0000 (   866 PWs)   bands (ev):

     0.7187  12.2278  14.1207  14.2799  14.2799  17.7671

          k = 0.6667-0.0000 0.6667 (   873 PWs)   bands (ev):

     4.5665   6.7933   8.2467  15.1478  16.9179  26.4598

     the Fermi energy is     8.1329 ev

!    total energy              =      -4.99703765 Ry
     Harris-Foulkes estimate   =      -4.99703765 Ry
     estimated scf accuracy    <          3.9E-09 Ry

     The total energy is the sum of the following terms:

     one-electron contribution =       2.97724991 Ry
     hartree contribution      =       0.01013382 Ry
     xc contribution           =      -2.58911023 Ry
     ewald contribution        =      -5.39395538 Ry
     smearing contrib. (-TS)   =      -0.00135576 Ry

     convergence has been achieved in   6 iterations

     Forces acting on atoms (cartesian axes, Ry/au):

     atom    1 type  1   force =     0.00000000    0.00000000    0.00000000

     Total force =     0.000000     Total SCF correction =     0.000000


     Computing stress (Cartesian axis) and pressure

          total   stress  (Ry/bohr**3)                   (kbar)     P=  -14.41
  -0.00009794   0.00000000   0.00000000        -14.41      0.00      0.00
  -0.00000000  -0.00009794  -0.00000000         -0.00    -14.41     -0.00
   0.00000000  -0.00000000  -0.00009794          0.00     -0.00    -14.41


     Writing output data file Al.save/

     init_run     :      0.10s CPU      0.11s WALL (       1 calls)
     electrons    :      0.19s CPU      0.20s WALL (       1 calls)
     forces       :      0.01s CPU      0.01s WALL (       1 calls)
     stress       :      0.04s CPU      0.04s WALL (       1 calls)

     Called by init_run:
     wfcinit      :      0.01s CPU      0.01s WALL (       1 calls)
     potinit      :      0.01s CPU      0.01s WALL (       1 calls)
     hinit0       :      0.08s CPU      0.09s WALL (       1 calls)

     Called by electrons:
     c_bands      :      0.11s CPU      0.12s WALL (       7 calls)
     sum_band     :      0.04s CPU      0.04s WALL (       7 calls)
     v_of_rho     :      0.03s CPU      0.03s WALL (       7 calls)
     newd         :      0.01s CPU      0.01s WALL (       7 calls)
     mix_rho      :      0.00s CPU      0.00s WALL (       7 calls)

     Called by c_bands:
     init_us_2    :      0.00s CPU      0.00s WALL (      68 calls)
     cegterg      :      0.11s CPU      0.11s WALL (      28 calls)

     Called by sum_band:
     sum_band:bec :      0.00s CPU      0.00s WALL (      28 calls)
     addusdens    :      0.01s CPU      0.01s WALL (       7 calls)

     Called by *egterg:
     h_psi        :      0.09s CPU      0.10s WALL (      96 calls)
     s_psi        :      0.00s CPU      0.00s WALL (      96 calls)
     g_psi        :      0.00s CPU      0.00s WALL (      64 calls)
     cdiaghg      :      0.01s CPU      0.01s WALL (      88 calls)

     Called by h_psi:
     h_psi:pot    :      0.09s CPU      0.10s WALL (      96 calls)
     h_psi:calbec :      0.00s CPU      0.00s WALL (      96 calls)
     vloc_psi     :      0.08s CPU      0.09s WALL (      96 calls)
     add_vuspsi   :      0.00s CPU      0.00s WALL (      96 calls)

     General routines
     calbec       :      0.01s CPU      0.01s WALL (     144 calls)
     fft          :      0.02s CPU      0.02s WALL (     104 calls)
     ffts         :      0.00s CPU      0.00s WALL (       7 calls)
     fftw         :      0.10s CPU      0.10s WALL (    1042 calls)

     Parallel routines
     fft_scatt_xy :      0.01s CPU      0.01s WALL (    1153 calls)
     fft_scatt_yz :      0.03s CPU      0.03s WALL (    1153 calls)

     PWSCF        :     0.72s CPU         0.77s WALL


   This run was terminated on:  20: 4:36  25Mar2024            

=------------------------------------------------------------------------------=
   JOB DONE.
=------------------------------------------------------------------------------=
