
     Program PWSCF v.6.3MaX starts on 25Mar2024 at 20: 2:37 

     This program is part of the open-source Quantum ESPRESSO suite
     for quantum simulation of materials; please cite
         "P. Giannozzi et al., J. Phys.:Condens. Matter 21 395502 (2009);
         "P. Giannozzi et al., J. Phys.:Condens. Matter 29 465901 (2017);
          URL http://www.quantum-espresso.org", 
     in publications or presentations arising from this work. More details at
     http://www.quantum-espresso.org/quote

     Parallel version (MPI), running on     5 processors

     MPI processes distributed on     1 nodes
     R & G space division:  proc/nbgrp/npool/nimage =       5
     Waiting for input...
     Reading input from standard input

     Current dimensions of program PWSCF are:
     Max number of different atomic species (ntypx) = 10
     Max number of k-points (npk) =  40000
     Max angular momentum in pseudopotentials (lmaxx) =  3
               file Al.pbe-n-kjpaw_psl.1.0.0.UPF: wavefunction(s)  3S 3P renormalized

     Subspace diagonalization in iterative solution of the eigenvalue problem:
     a serial algorithm will be used


     Parallelization info
     --------------------
     sticks:   dense  smooth     PW     G-vecs:    dense   smooth      PW
     Min          81      81     25                 1065     1065     192
     Max          82      82     26                 1066     1066     195
     Sum         409     409    127                 5329     5329     965



     bravais-lattice index     =            2
     lattice parameter (alat)  =       7.6500  a.u.
     unit-cell volume          =     111.9243 (a.u.)^3
     number of atoms/cell      =            1
     number of atomic types    =            1
     number of electrons       =         3.00
     number of Kohn-Sham states=            6
     kinetic-energy cutoff     =      50.0000  Ry
     charge density cutoff     =     200.0000  Ry
     convergence threshold     =      1.0E-08
     mixing beta               =       0.7000
     number of iterations used =            8  plain     mixing
     Exchange-correlation      = SLA PW PBX PBC ( 1  4  3  4 0 0)

     celldm(1)=   7.650000  celldm(2)=   0.000000  celldm(3)=   0.000000
     celldm(4)=   0.000000  celldm(5)=   0.000000  celldm(6)=   0.000000

     crystal axes: (cart. coord. in units of alat)
               a(1) = (  -0.500000   0.000000   0.500000 )  
               a(2) = (   0.000000   0.500000   0.500000 )  
               a(3) = (  -0.500000   0.500000   0.000000 )  

     reciprocal axes: (cart. coord. in units 2 pi/alat)
               b(1) = ( -1.000000 -1.000000  1.000000 )  
               b(2) = (  1.000000  1.000000  1.000000 )  
               b(3) = ( -1.000000  1.000000 -1.000000 )  


     PseudoPot. # 1 for Al read from file:
     /home/lorenzo/pseudos/Al/Al.pbe-n-kjpaw_psl.1.0.0.UPF
     MD5 check sum: 502b6b27b9c6270cab5dd1084b96fa6d
     Pseudo is Projector augmented-wave + core cor, Zval =  3.0
     Generated using "atomic" code by A. Dal Corso v.6.3
     Shape of augmentation charge: PSQ
     Using radial grid of 1135 points,  6 beta functions with: 
                l(1) =   0
                l(2) =   0
                l(3) =   1
                l(4) =   1
                l(5) =   2
                l(6) =   2
     Q(r) pseudized with 0 coefficients 


     atomic species   valence    mass     pseudopotential
        Al             3.00    26.98150     Al( 1.00)

     48 Sym. Ops., with inversion, found



   Cartesian axes

     site n.     atom                  positions (alat units)
         1           Al  tau(   1) = (   0.0000000   0.0000000   0.0000000  )

     number of k points=    35  gaussian smearing, width (Ry)=  0.0100
                       cart. coord. in units 2pi/alat
        k(    1) = (   0.0000000   0.0000000   0.0000000), wk =   0.0027435
        k(    2) = (  -0.1111111   0.1111111  -0.1111111), wk =   0.0219479
        k(    3) = (  -0.2222222   0.2222222  -0.2222222), wk =   0.0219479
        k(    4) = (  -0.3333333   0.3333333  -0.3333333), wk =   0.0219479
        k(    5) = (  -0.4444444   0.4444444  -0.4444444), wk =   0.0219479
        k(    6) = (   0.0000000   0.2222222   0.0000000), wk =   0.0164609
        k(    7) = (  -0.1111111   0.3333333  -0.1111111), wk =   0.0658436
        k(    8) = (  -0.2222222   0.4444444  -0.2222222), wk =   0.0658436
        k(    9) = (  -0.3333333   0.5555556  -0.3333333), wk =   0.0658436
        k(   10) = (   0.5555556  -0.3333333   0.5555556), wk =   0.0658436
        k(   11) = (   0.4444444  -0.2222222   0.4444444), wk =   0.0658436
        k(   12) = (   0.3333333  -0.1111111   0.3333333), wk =   0.0658436
        k(   13) = (   0.2222222  -0.0000000   0.2222222), wk =   0.0329218
        k(   14) = (   0.0000000   0.4444444   0.0000000), wk =   0.0164609
        k(   15) = (  -0.1111111   0.5555556  -0.1111111), wk =   0.0658436
        k(   16) = (  -0.2222222   0.6666667  -0.2222222), wk =   0.0658436
        k(   17) = (   0.6666667  -0.2222222   0.6666667), wk =   0.0658436
        k(   18) = (   0.5555556  -0.1111111   0.5555556), wk =   0.0658436
        k(   19) = (   0.4444444   0.0000000   0.4444444), wk =   0.0329218
        k(   20) = (   0.0000000   0.6666667   0.0000000), wk =   0.0164609
        k(   21) = (  -0.1111111   0.7777778  -0.1111111), wk =   0.0658436
        k(   22) = (   0.7777778  -0.1111111   0.7777778), wk =   0.0658436
        k(   23) = (   0.6666667  -0.0000000   0.6666667), wk =   0.0329218
        k(   24) = (   0.0000000   0.8888889   0.0000000), wk =   0.0164609
        k(   25) = (   0.8888889   0.0000000   0.8888889), wk =   0.0329218
        k(   26) = (  -0.2222222   0.4444444   0.0000000), wk =   0.0658436
        k(   27) = (  -0.3333333   0.5555556  -0.1111111), wk =   0.1316872
        k(   28) = (   0.5555556  -0.3333333   0.7777778), wk =   0.1316872
        k(   29) = (  -0.2222222   0.6666667   0.0000000), wk =   0.0658436
        k(   30) = (   0.6666667  -0.2222222   0.8888889), wk =   0.1316872
        k(   31) = (   0.5555556  -0.1111111   0.7777778), wk =   0.1316872
        k(   32) = (   0.4444444   0.0000000   0.6666667), wk =   0.0658436
        k(   33) = (   0.7777778  -0.1111111   1.0000000), wk =   0.0658436
        k(   34) = (   0.6666667  -0.0000000   0.8888889), wk =   0.0658436
        k(   35) = (   0.5555556  -0.1111111   1.0000000), wk =   0.0658436

     Dense  grid:     5329 G-vectors     FFT dimensions: (  25,  25,  25)

     Estimated max dynamical RAM per process >       5.78 MB

     Estimated total dynamical RAM >      28.92 MB

     Initial potential from superposition of free atoms

     starting charge    2.99771, renormalised to    3.00000
     Starting wfcs are    4 randomized atomic wfcs +    2 random wfcs
     Checking if some PAW data can be deallocated... 

     total cpu time spent up to now is        1.3 secs

     Self-consistent Calculation

     iteration #  1     ecut=    50.00 Ry     beta= 0.70
     Davidson diagonalization with overlap
     ethr =  1.00E-02,  avg # of iterations =  5.0

     Threshold (ethr) on eigenvalues was too large:
     Diagonalizing with lowered threshold

     Davidson diagonalization with overlap
     ethr =  1.83E-04,  avg # of iterations =  1.6

     total cpu time spent up to now is        1.9 secs

     total energy              =     -39.50081105 Ry
     Harris-Foulkes estimate   =     -39.50195056 Ry
     estimated scf accuracy    <       0.00544333 Ry

     iteration #  2     ecut=    50.00 Ry     beta= 0.70
     Davidson diagonalization with overlap
     ethr =  1.81E-04,  avg # of iterations =  1.0

     total cpu time spent up to now is        2.2 secs

     total energy              =     -39.50076860 Ry
     Harris-Foulkes estimate   =     -39.50085627 Ry
     estimated scf accuracy    <       0.00040025 Ry

     iteration #  3     ecut=    50.00 Ry     beta= 0.70
     Davidson diagonalization with overlap
     ethr =  1.33E-05,  avg # of iterations =  1.3

     total cpu time spent up to now is        2.5 secs

     total energy              =     -39.50077693 Ry
     Harris-Foulkes estimate   =     -39.50077705 Ry
     estimated scf accuracy    <       0.00000044 Ry

     iteration #  4     ecut=    50.00 Ry     beta= 0.70
     Davidson diagonalization with overlap
     ethr =  1.47E-08,  avg # of iterations =  3.2

     total cpu time spent up to now is        2.8 secs

     total energy              =     -39.50077829 Ry
     Harris-Foulkes estimate   =     -39.50077831 Ry
     estimated scf accuracy    <       0.00000002 Ry

     iteration #  5     ecut=    50.00 Ry     beta= 0.70
     Davidson diagonalization with overlap
     ethr =  7.15E-10,  avg # of iterations =  1.1

     total cpu time spent up to now is        3.1 secs

     End of self-consistent calculation

          k = 0.0000 0.0000 0.0000 (   645 PWs)   bands (ev):

    -3.2493  20.4343  20.4343  21.8945  21.8945  21.8945

          k =-0.1111 0.1111-0.1111 (   661 PWs)   bands (ev):

    -2.9149  16.7076  19.6077  19.6077  22.5631  23.2065

          k =-0.2222 0.2222-0.2222 (   658 PWs)   bands (ev):

    -1.9165  12.3223  18.8366  18.8366  22.2378  23.0478

          k =-0.3333 0.3333-0.3333 (   658 PWs)   bands (ev):

    -0.2679   8.3475  18.5838  18.5838  21.1658  21.1659

          k =-0.4444 0.4444-0.4444 (   667 PWs)   bands (ev):

     2.0085   4.8974  18.8846  18.8846  19.7506  19.7506

          k = 0.0000 0.2222 0.0000 (   665 PWs)   bands (ev):

    -2.8036  18.0512  18.0512  18.3371  20.9487  23.1646

          k =-0.1111 0.3333-0.1111 (   669 PWs)   bands (ev):

    -2.0271  13.9628  17.0297  18.4957  20.3958  21.9080

          k =-0.2222 0.4444-0.2222 (   657 PWs)   bands (ev):

    -0.5962   9.8773  16.5695  18.1030  18.3041  24.2465

          k =-0.3333 0.5556-0.3333 (   658 PWs)   bands (ev):

     1.4695   6.2615  16.5080  16.6755  18.3935  22.7102

          k = 0.5556-0.3333 0.5556 (   668 PWs)   bands (ev):

     3.1792   4.1611  15.4184  17.3499  19.1334  21.6777

          k = 0.4444-0.2222 0.4444 (   667 PWs)   bands (ev):

     0.7121   7.4033  14.9244  18.5893  20.4506  21.1935

          k = 0.3333-0.1111 0.3333 (   658 PWs)   bands (ev):

    -1.1448  11.1674  15.0485  20.3451  21.2646  22.2917

          k = 0.2222-0.0000 0.2222 (   660 PWs)   bands (ev):

    -2.3594  14.9868  16.1383  21.3028  22.1348  23.3339

          k = 0.0000 0.4444 0.0000 (   665 PWs)   bands (ev):

    -1.4750  15.7966  15.7966  15.8388  17.4564  19.2216

          k =-0.1111 0.5556-0.1111 (   671 PWs)   bands (ev):

    -0.2684  11.9296  14.9601  15.1369  16.5815  20.2296

          k =-0.2222 0.6667-0.2222 (   668 PWs)   bands (ev):

     1.5752   8.2179  13.0501  15.0480  16.7171  23.2394

          k = 0.6667-0.2222 0.6667 (   677 PWs)   bands (ev):

     4.0155   5.0075  11.7398  15.5299  17.3089  25.0196

          k = 0.5556-0.1111 0.5556 (   671 PWs)   bands (ev):

     2.3296   7.0378  11.0807  16.5832  18.4847  24.3631

          k = 0.4444 0.0000 0.4444 (   664 PWs)   bands (ev):

     0.2772  10.0686  11.5610  18.2045  20.2112  23.8836

          k = 0.0000 0.6667 0.0000 (   680 PWs)   bands (ev):

     0.7098  12.2203  14.0993  14.2818  14.2818  17.7632

          k =-0.1111 0.7778-0.1111 (   670 PWs)   bands (ev):

     2.3204  10.0330  10.7480  13.9995  15.3287  19.1299

          k = 0.7778-0.1111 0.7778 (   680 PWs)   bands (ev):

     4.5122   7.3580   8.6120  14.2881  15.8882  22.5585

          k = 0.6667-0.0000 0.6667 (   680 PWs)   bands (ev):

     4.5572   6.7827   8.2395  15.1486  16.9094  26.4599

          k = 0.0000 0.8889 0.0000 (   676 PWs)   bands (ev):

     3.6708   7.7166  13.2197  13.5248  13.5248  16.9679

          k = 0.8889 0.0000 0.8889 (   666 PWs)   bands (ev):

     5.1455   6.4674  10.3057  13.6208  14.9045  18.7483

          k =-0.2222 0.4444 0.0000 (   663 PWs)   bands (ev):

    -1.0350  12.5362  13.8792  17.8407  19.8599  21.6400

          k =-0.3333 0.5556-0.1111 (   660 PWs)   bands (ev):

     0.6031   9.1099  13.0797  15.7741  20.2990  22.9866

          k = 0.5556-0.3333 0.7778 (   672 PWs)   bands (ev):

     2.8627   5.7281  13.3108  14.3037  20.6799  21.6729

          k =-0.2222 0.6667 0.0000 (   664 PWs)   bands (ev):

     1.1431  10.8930  12.1486  12.8150  18.2998  20.3307

          k = 0.6667-0.2222 0.8889 (   669 PWs)   bands (ev):

     3.1750   7.8603  10.8645  11.9628  19.1871  23.0082

          k = 0.5556-0.1111 0.7778 (   674 PWs)   bands (ev):

     4.8574   5.7960   9.8285  12.5841  20.0022  24.2117

          k = 0.4444 0.0000 0.6667 (   670 PWs)   bands (ev):

     2.4352   8.4245   9.9082  13.8812  21.2870  23.1501

          k = 0.7778-0.1111 1.0000 (   670 PWs)   bands (ev):

     4.0926   8.1271  10.0699  11.5456  17.4969  19.6086

          k = 0.6667-0.0000 0.8889 (   674 PWs)   bands (ev):

     5.9635   7.1560   7.6422  11.5113  18.7973  22.6936

          k = 0.5556-0.1111 1.0000 (   674 PWs)   bands (ev):

     5.3497   7.6032   8.8584   9.6796  22.3967  23.4081

     the Fermi energy is     7.8208 ev

!    total energy              =     -39.50077829 Ry
     Harris-Foulkes estimate   =     -39.50077829 Ry
     estimated scf accuracy    <          1.0E-10 Ry

     total all-electron energy =      -485.643558 Ry

     The total energy is the sum of the following terms:

     one-electron contribution =       3.15479948 Ry
     hartree contribution      =       0.00599838 Ry
     xc contribution           =      -2.58812274 Ry
     ewald contribution        =      -5.39395542 Ry
     one-center paw contrib.   =     -34.67908192 Ry
     smearing contrib. (-TS)   =      -0.00041606 Ry

     convergence has been achieved in   5 iterations

     Forces acting on atoms (cartesian axes, Ry/au):

     atom    1 type  1   force =     0.00000000    0.00000000    0.00000000

     Total force =     0.000000     Total SCF correction =     0.000000


     Computing stress (Cartesian axis) and pressure

          total   stress  (Ry/bohr**3)                   (kbar)     P=   -1.73
  -0.00001177  -0.00000000   0.00000000         -1.73     -0.00      0.00
  -0.00000000  -0.00001177  -0.00000000         -0.00     -1.73     -0.00
   0.00000000  -0.00000000  -0.00001177          0.00     -0.00     -1.73


     Writing output data file Al.save/

     init_run     :      0.28s CPU      0.31s WALL (       1 calls)
     electrons    :      1.65s CPU      1.78s WALL (       1 calls)
     forces       :      0.03s CPU      0.03s WALL (       1 calls)
     stress       :      0.10s CPU      0.10s WALL (       1 calls)

     Called by init_run:
     wfcinit      :      0.05s CPU      0.06s WALL (       1 calls)
     potinit      :      0.09s CPU      0.10s WALL (       1 calls)
     hinit0       :      0.12s CPU      0.12s WALL (       1 calls)

     Called by electrons:
     c_bands      :      0.91s CPU      0.97s WALL (       6 calls)
     sum_band     :      0.21s CPU      0.22s WALL (       6 calls)
     v_of_rho     :      0.03s CPU      0.03s WALL (       6 calls)
     newd         :      0.03s CPU      0.04s WALL (       6 calls)
     PAW_pot      :      0.55s CPU      0.62s WALL (       6 calls)
     mix_rho      :      0.00s CPU      0.00s WALL (       6 calls)

     Called by c_bands:
     init_us_2    :      0.04s CPU      0.05s WALL (     525 calls)
     cegterg      :      0.85s CPU      0.91s WALL (     210 calls)

     Called by sum_band:
     sum_band:bec :      0.00s CPU      0.00s WALL (     210 calls)
     addusdens    :      0.03s CPU      0.03s WALL (       6 calls)

     Called by *egterg:
     h_psi        :      0.71s CPU      0.76s WALL (     709 calls)
     s_psi        :      0.02s CPU      0.02s WALL (     709 calls)
     g_psi        :      0.00s CPU      0.00s WALL (     464 calls)
     cdiaghg      :      0.06s CPU      0.07s WALL (     639 calls)

     Called by h_psi:
     h_psi:pot    :      0.71s CPU      0.75s WALL (     709 calls)
     h_psi:calbec :      0.05s CPU      0.05s WALL (     709 calls)
     vloc_psi     :      0.63s CPU      0.68s WALL (     709 calls)
     add_vuspsi   :      0.02s CPU      0.02s WALL (     709 calls)

     General routines
     calbec       :      0.07s CPU      0.08s WALL (    1094 calls)
     fft          :      0.02s CPU      0.02s WALL (      93 calls)
     ffts         :      0.00s CPU      0.00s WALL (       6 calls)
     fftw         :      0.72s CPU      0.76s WALL (    8016 calls)

     Parallel routines
     fft_scatt_xy :      0.05s CPU      0.05s WALL (    8115 calls)
     fft_scatt_yz :      0.27s CPU      0.29s WALL (    8115 calls)

     PWSCF        :     3.06s CPU         3.28s WALL


   This run was terminated on:  20: 2:40  25Mar2024            

=------------------------------------------------------------------------------=
   JOB DONE.
=------------------------------------------------------------------------------=
