
     Program PWSCF v.6.3MaX starts on 25Mar2024 at 20:12:53 

     This program is part of the open-source Quantum ESPRESSO suite
     for quantum simulation of materials; please cite
         "P. Giannozzi et al., J. Phys.:Condens. Matter 21 395502 (2009);
         "P. Giannozzi et al., J. Phys.:Condens. Matter 29 465901 (2017);
          URL http://www.quantum-espresso.org", 
     in publications or presentations arising from this work. More details at
     http://www.quantum-espresso.org/quote

     Parallel version (MPI), running on     5 processors

     MPI processes distributed on     1 nodes
     R & G space division:  proc/nbgrp/npool/nimage =       5
     Waiting for input...
     Reading input from standard input

     Current dimensions of program PWSCF are:
     Max number of different atomic species (ntypx) = 10
     Max number of k-points (npk) =  40000
     Max angular momentum in pseudopotentials (lmaxx) =  3

     Subspace diagonalization in iterative solution of the eigenvalue problem:
     a serial algorithm will be used


     Parallelization info
     --------------------
     sticks:   dense  smooth     PW     G-vecs:    dense   smooth      PW
     Min         146     146     43                 2587     2587     445
     Max         147     147     45                 2588     2588     446
     Sum         733     733    223                12939    12939    2229



     bravais-lattice index     =            2
     lattice parameter (alat)  =       7.6500  a.u.
     unit-cell volume          =     111.9243 (a.u.)^3
     number of atoms/cell      =            1
     number of atomic types    =            1
     number of electrons       =         3.00
     number of Kohn-Sham states=            6
     kinetic-energy cutoff     =      90.0000  Ry
     charge density cutoff     =     360.0000  Ry
     convergence threshold     =      1.0E-08
     mixing beta               =       0.7000
     number of iterations used =            8  plain     mixing
     Exchange-correlation      = PBE ( 1  4  3  4 0 0)

     celldm(1)=   7.650000  celldm(2)=   0.000000  celldm(3)=   0.000000
     celldm(4)=   0.000000  celldm(5)=   0.000000  celldm(6)=   0.000000

     crystal axes: (cart. coord. in units of alat)
               a(1) = (  -0.500000   0.000000   0.500000 )  
               a(2) = (   0.000000   0.500000   0.500000 )  
               a(3) = (  -0.500000   0.500000   0.000000 )  

     reciprocal axes: (cart. coord. in units 2 pi/alat)
               b(1) = ( -1.000000 -1.000000  1.000000 )  
               b(2) = (  1.000000  1.000000  1.000000 )  
               b(3) = ( -1.000000  1.000000 -1.000000 )  


     PseudoPot. # 1 for Al read from file:
     /home/lorenzo/pseudos/Al/Al.pbe-nl-rrkjus_psl.1.0.0.UPF
     MD5 check sum: 6db8691240a1c860ce6448702d298c4b
     Pseudo is Ultrasoft + core correction, Zval =  3.0
     Generated using "atomic" code by A. Dal Corso v.6.3
     Using radial grid of 1135 points,  4 beta functions with: 
                l(1) =   0
                l(2) =   0
                l(3) =   1
                l(4) =   1
     Q(r) pseudized with 0 coefficients 


     atomic species   valence    mass     pseudopotential
        Al             3.00    26.98150     Al( 1.00)

     48 Sym. Ops., with inversion, found



   Cartesian axes

     site n.     atom                  positions (alat units)
         1           Al  tau(   1) = (   0.0000000   0.0000000   0.0000000  )

     number of k points=    47  gaussian smearing, width (Ry)=  0.0100
                       cart. coord. in units 2pi/alat
        k(    1) = (   0.0000000   0.0000000   0.0000000), wk =   0.0020000
        k(    2) = (  -0.1000000   0.1000000  -0.1000000), wk =   0.0160000
        k(    3) = (  -0.2000000   0.2000000  -0.2000000), wk =   0.0160000
        k(    4) = (  -0.3000000   0.3000000  -0.3000000), wk =   0.0160000
        k(    5) = (  -0.4000000   0.4000000  -0.4000000), wk =   0.0160000
        k(    6) = (   0.5000000  -0.5000000   0.5000000), wk =   0.0080000
        k(    7) = (   0.0000000   0.2000000   0.0000000), wk =   0.0120000
        k(    8) = (  -0.1000000   0.3000000  -0.1000000), wk =   0.0480000
        k(    9) = (  -0.2000000   0.4000000  -0.2000000), wk =   0.0480000
        k(   10) = (  -0.3000000   0.5000000  -0.3000000), wk =   0.0480000
        k(   11) = (   0.6000000  -0.4000000   0.6000000), wk =   0.0480000
        k(   12) = (   0.5000000  -0.3000000   0.5000000), wk =   0.0480000
        k(   13) = (   0.4000000  -0.2000000   0.4000000), wk =   0.0480000
        k(   14) = (   0.3000000  -0.1000000   0.3000000), wk =   0.0480000
        k(   15) = (   0.2000000   0.0000000   0.2000000), wk =   0.0240000
        k(   16) = (   0.0000000   0.4000000   0.0000000), wk =   0.0120000
        k(   17) = (  -0.1000000   0.5000000  -0.1000000), wk =   0.0480000
        k(   18) = (  -0.2000000   0.6000000  -0.2000000), wk =   0.0480000
        k(   19) = (   0.7000000  -0.3000000   0.7000000), wk =   0.0480000
        k(   20) = (   0.6000000  -0.2000000   0.6000000), wk =   0.0480000
        k(   21) = (   0.5000000  -0.1000000   0.5000000), wk =   0.0480000
        k(   22) = (   0.4000000   0.0000000   0.4000000), wk =   0.0240000
        k(   23) = (   0.0000000   0.6000000   0.0000000), wk =   0.0120000
        k(   24) = (  -0.1000000   0.7000000  -0.1000000), wk =   0.0480000
        k(   25) = (   0.8000000  -0.2000000   0.8000000), wk =   0.0480000
        k(   26) = (   0.7000000  -0.1000000   0.7000000), wk =   0.0480000
        k(   27) = (   0.6000000  -0.0000000   0.6000000), wk =   0.0240000
        k(   28) = (   0.0000000   0.8000000   0.0000000), wk =   0.0120000
        k(   29) = (   0.9000000  -0.1000000   0.9000000), wk =   0.0480000
        k(   30) = (   0.8000000   0.0000000   0.8000000), wk =   0.0240000
        k(   31) = (   0.0000000  -1.0000000   0.0000000), wk =   0.0060000
        k(   32) = (  -0.2000000   0.4000000   0.0000000), wk =   0.0480000
        k(   33) = (  -0.3000000   0.5000000  -0.1000000), wk =   0.0960000
        k(   34) = (   0.6000000  -0.4000000   0.8000000), wk =   0.0960000
        k(   35) = (   0.5000000  -0.3000000   0.7000000), wk =   0.0480000
        k(   36) = (  -0.2000000   0.6000000   0.0000000), wk =   0.0480000
        k(   37) = (   0.7000000  -0.3000000   0.9000000), wk =   0.0960000
        k(   38) = (   0.6000000  -0.2000000   0.8000000), wk =   0.0960000
        k(   39) = (   0.5000000  -0.1000000   0.7000000), wk =   0.0960000
        k(   40) = (   0.4000000   0.0000000   0.6000000), wk =   0.0480000
        k(   41) = (   0.8000000  -0.2000000   1.0000000), wk =   0.0480000
        k(   42) = (   0.7000000  -0.1000000   0.9000000), wk =   0.0960000
        k(   43) = (   0.6000000   0.0000000   0.8000000), wk =   0.0480000
        k(   44) = (  -0.2000000  -1.0000000   0.0000000), wk =   0.0240000
        k(   45) = (   0.6000000  -0.2000000   1.0000000), wk =   0.0480000
        k(   46) = (   0.5000000  -0.1000000   0.9000000), wk =   0.0480000
        k(   47) = (  -0.4000000  -1.0000000   0.0000000), wk =   0.0240000

     Dense  grid:    12939 G-vectors     FFT dimensions: (  36,  36,  36)

     Estimated max dynamical RAM per process >       5.75 MB

     Estimated total dynamical RAM >      28.73 MB

     Initial potential from superposition of free atoms

     starting charge    2.99771, renormalised to    3.00000
     Starting wfcs are    4 randomized atomic wfcs +    2 random wfcs

     total cpu time spent up to now is        0.7 secs

     Self-consistent Calculation

     iteration #  1     ecut=    90.00 Ry     beta= 0.70
     Davidson diagonalization with overlap
     ethr =  1.00E-02,  avg # of iterations =  4.9

     Threshold (ethr) on eigenvalues was too large:
     Diagonalizing with lowered threshold

     Davidson diagonalization with overlap
     ethr =  1.92E-04,  avg # of iterations =  1.9

     total cpu time spent up to now is        2.0 secs

     total energy              =      -5.03757673 Ry
     Harris-Foulkes estimate   =      -5.03900212 Ry
     estimated scf accuracy    <       0.00569334 Ry

     iteration #  2     ecut=    90.00 Ry     beta= 0.70
     Davidson diagonalization with overlap
     ethr =  1.90E-04,  avg # of iterations =  1.0

     total cpu time spent up to now is        2.4 secs

     total energy              =      -5.03756894 Ry
     Harris-Foulkes estimate   =      -5.03766045 Ry
     estimated scf accuracy    <       0.00039199 Ry

     iteration #  3     ecut=    90.00 Ry     beta= 0.70
     Davidson diagonalization with overlap
     ethr =  1.31E-05,  avg # of iterations =  1.8

     total cpu time spent up to now is        2.9 secs

     total energy              =      -5.03758827 Ry
     Harris-Foulkes estimate   =      -5.03758831 Ry
     estimated scf accuracy    <       0.00000135 Ry

     iteration #  4     ecut=    90.00 Ry     beta= 0.70
     Davidson diagonalization with overlap
     ethr =  4.51E-08,  avg # of iterations =  3.2

     total cpu time spent up to now is        3.4 secs

     total energy              =      -5.03759000 Ry
     Harris-Foulkes estimate   =      -5.03758999 Ry
     estimated scf accuracy    <       0.00000005 Ry

     iteration #  5     ecut=    90.00 Ry     beta= 0.70
     Davidson diagonalization with overlap
     ethr =  1.74E-09,  avg # of iterations =  1.1

     total cpu time spent up to now is        3.9 secs

     End of self-consistent calculation

          k = 0.0000 0.0000 0.0000 (  1639 PWs)   bands (ev):

    -3.2509  20.4373  20.4373  21.8726  21.8727  21.8727

          k =-0.1000 0.1000-0.1000 (  1606 PWs)   bands (ev):

    -2.9801  17.1514  19.7039  19.7039  22.5516  23.0076

          k =-0.2000 0.2000-0.2000 (  1606 PWs)   bands (ev):

    -2.1709  13.1692  18.9449  18.9449  22.2733  23.4204

          k =-0.3000 0.3000-0.3000 (  1615 PWs)   bands (ev):

    -0.8320   9.4858  18.5940  18.5940  21.6838  21.6838

          k =-0.4000 0.4000-0.4000 (  1616 PWs)   bands (ev):

     1.0221   6.2087  18.6886  18.6886  20.2442  20.2442

          k = 0.5000-0.5000 0.5000 (  1622 PWs)   bands (ev):

     3.2747   3.4798  19.1915  19.1915  19.2873  19.2873

          k = 0.0000 0.2000 0.0000 (  1599 PWs)   bands (ev):

    -2.8900  18.3080  18.3080  18.6077  21.0873  23.7204

          k =-0.1000 0.3000-0.1000 (  1609 PWs)   bands (ev):

    -2.2606  14.6339  17.3331  18.7379  21.1263  21.9355

          k =-0.2000 0.4000-0.2000 (  1607 PWs)   bands (ev):

    -1.0988  10.8758  16.8097  18.4077  19.1261  23.9564

          k =-0.3000 0.5000-0.3000 (  1610 PWs)   bands (ev):

     0.5825   7.4725  16.7439  17.4516  18.4157  22.9346

          k = 0.6000-0.4000 0.6000 (  1609 PWs)   bands (ev):

     2.7626   4.5030  16.2578  17.1378  18.8550  21.8041

          k = 0.5000-0.3000 0.5000 (  1616 PWs)   bands (ev):

     1.9832   5.4395  15.5356  17.9915  19.7676  21.1113

          k = 0.4000-0.2000 0.4000 (  1621 PWs)   bands (ev):

    -0.0346   8.5560  15.2967  19.2929  20.8714  21.1330

          k = 0.3000-0.1000 0.3000 (  1605 PWs)   bands (ev):

    -1.5446  12.0676  15.5587  20.8241  21.2325  22.8917

          k = 0.2000 0.0000 0.2000 (  1592 PWs)   bands (ev):

    -2.5300  15.5576  16.6297  21.1378  22.1867  23.3754

          k = 0.0000 0.4000 0.0000 (  1607 PWs)   bands (ev):

    -1.8126  16.1820  16.1820  16.2812  18.5641  19.5564

          k =-0.1000 0.5000-0.1000 (  1612 PWs)   bands (ev):

    -0.8322  12.6697  15.4943  16.2259  16.9231  20.2845

          k =-0.2000 0.6000-0.2000 (  1619 PWs)   bands (ev):

     0.6695   9.2056  14.3780  15.2693  16.9334  22.7921

          k = 0.7000-0.3000 0.7000 (  1606 PWs)   bands (ev):

     2.6741   6.1152  12.9933  15.5067  17.2617  24.8064

          k = 0.6000-0.2000 0.6000 (  1596 PWs)   bands (ev):

     3.4517   5.1734  12.1039  16.2070  18.0556  23.9849

          k = 0.5000-0.1000 0.5000 (  1610 PWs)   bands (ev):

     1.2844   8.0739  11.7540  17.3691  19.3195  23.5842

          k = 0.4000 0.0000 0.4000 (  1610 PWs)   bands (ev):

    -0.3885  10.9220  12.3891  18.9834  21.0032  23.2241

          k = 0.0000 0.6000 0.0000 (  1620 PWs)   bands (ev):

    -0.0356  13.7200  14.5336  14.6467  14.6467  18.1354

          k =-0.1000 0.7000-0.1000 (  1625 PWs)   bands (ev):

     1.2808  11.2906  11.7203  14.2641  15.5747  19.1186

          k = 0.8000-0.2000 0.8000 (  1619 PWs)   bands (ev):

     3.0965   8.1846  10.1173  14.3447  15.9359  21.9575

          k = 0.7000-0.1000 0.7000 (  1621 PWs)   bands (ev):

     5.2665   5.5217   9.0838  14.8887  16.6131  25.3281

          k = 0.6000-0.0000 0.6000 (  1608 PWs)   bands (ev):

     3.1091   7.5923   9.0731  15.8970  17.7497  26.8786

          k = 0.0000 0.8000 0.0000 (  1624 PWs)   bands (ev):

     2.4046   9.4114  13.4705  13.7248  13.7248  17.1925

          k = 0.9000-0.1000 0.9000 (  1623 PWs)   bands (ev):

     3.9997   7.6852  10.6955  13.6492  14.8929  18.5039

          k = 0.8000 0.0000 0.8000 (  1622 PWs)   bands (ev):

     5.5988   6.9090   7.9315  14.0368  15.5946  21.6680

          k = 0.0000-1.0000 0.0000 (  1604 PWs)   bands (ev):

     4.9357   6.2548  13.1145  13.4177  13.4177  16.8651

          k =-0.2000 0.4000 0.0000 (  1613 PWs)   bands (ev):

    -1.4553  13.2509  14.5310  18.8485  19.8079  21.5997

          k =-0.3000 0.5000-0.1000 (  1609 PWs)   bands (ev):

    -0.1232  10.0784  13.6729  16.8762  20.1255  23.1593

          k = 0.6000-0.4000 0.8000 (  1618 PWs)   bands (ev):

     1.7209   6.8688  13.7018  15.3591  20.3180  21.9946

          k = 0.5000-0.3000 0.7000 (  1608 PWs)   bands (ev):

     3.9438   4.1806  14.0951  14.4743  20.7475  21.1324

          k =-0.2000 0.6000 0.0000 (  1617 PWs)   bands (ev):

     0.3174  11.5902  12.9028  14.1203  18.2396  20.2957

          k = 0.7000-0.3000 0.9000 (  1621 PWs)   bands (ev):

     1.9793   8.7362  12.1220  12.6225  18.9282  22.4876

          k = 0.6000-0.2000 0.8000 (  1613 PWs)   bands (ev):

     4.1249   5.8526  11.0877  12.7912  19.4689  24.0367

          k = 0.5000-0.1000 0.7000 (  1613 PWs)   bands (ev):

     3.3653   6.7263  10.4177  13.6636  20.3883  23.3369

          k = 0.4000 0.0000 0.6000 (  1607 PWs)   bands (ev):

     1.3712   9.2569  10.7437  15.0371  21.6958  22.4770

          k = 0.8000-0.2000 1.0000 (  1621 PWs)   bands (ev):

     2.7510   9.7279  10.5909  12.0337  17.2662  19.4259

          k = 0.7000-0.1000 0.9000 (  1625 PWs)   bands (ev):

     4.6801   7.9794   8.4701  11.7646  18.2941  21.9466

          k = 0.6000 0.0000 0.8000 (  1614 PWs)   bands (ev):

     5.4851   6.5949   8.0439  12.4485  19.1633  25.3129

          k =-0.2000-1.0000 0.0000 (  1624 PWs)   bands (ev):

     5.2672   6.6022  10.2574  11.6933  16.9394  19.1242

          k = 0.6000-0.2000 1.0000 (  1616 PWs)   bands (ev):

     3.7852   8.2581   9.6570  10.8933  21.5618  22.9177

          k = 0.5000-0.1000 0.9000 (  1608 PWs)   bands (ev):

     5.9237   6.1555   9.4566  10.0907  22.5289  22.9804

          k =-0.4000-1.0000 0.0000 (  1626 PWs)   bands (ev):

     6.2627   7.5910   7.9253   9.5250  21.2453  22.8200

     the Fermi energy is     7.9835 ev

!    total energy              =      -5.03759000 Ry
     Harris-Foulkes estimate   =      -5.03759000 Ry
     estimated scf accuracy    <          9.9E-09 Ry

     The total energy is the sum of the following terms:

     one-electron contribution =       2.93881918 Ry
     hartree contribution      =       0.00591185 Ry
     xc contribution           =      -2.58776327 Ry
     ewald contribution        =      -5.39395538 Ry
     smearing contrib. (-TS)   =      -0.00060239 Ry

     convergence has been achieved in   5 iterations

     Forces acting on atoms (cartesian axes, Ry/au):

     atom    1 type  1   force =     0.00000000    0.00000000    0.00000000

     Total force =     0.000000     Total SCF correction =     0.000000


     Computing stress (Cartesian axis) and pressure

          total   stress  (Ry/bohr**3)                   (kbar)     P=   -5.05
  -0.00003432  -0.00000000  -0.00000000         -5.05     -0.00     -0.00
  -0.00000000  -0.00003432   0.00000000         -0.00     -5.05      0.00
  -0.00000000   0.00000000  -0.00003432         -0.00      0.00     -5.05


     Writing output data file Al.save/

     init_run     :      0.27s CPU      0.28s WALL (       1 calls)
     electrons    :      2.99s CPU      3.20s WALL (       1 calls)
     forces       :      0.04s CPU      0.04s WALL (       1 calls)
     stress       :      0.14s CPU      0.14s WALL (       1 calls)

     Called by init_run:
     wfcinit      :      0.14s CPU      0.15s WALL (       1 calls)
     potinit      :      0.01s CPU      0.01s WALL (       1 calls)
     hinit0       :      0.10s CPU      0.10s WALL (       1 calls)

     Called by electrons:
     c_bands      :      2.46s CPU      2.64s WALL (       6 calls)
     sum_band     :      0.46s CPU      0.49s WALL (       6 calls)
     v_of_rho     :      0.05s CPU      0.05s WALL (       6 calls)
     newd         :      0.02s CPU      0.02s WALL (       6 calls)
     mix_rho      :      0.00s CPU      0.00s WALL (       6 calls)

     Called by c_bands:
     init_us_2    :      0.07s CPU      0.07s WALL (     705 calls)
     cegterg      :      2.39s CPU      2.56s WALL (     282 calls)

     Called by sum_band:
     sum_band:bec :      0.00s CPU      0.00s WALL (     282 calls)
     addusdens    :      0.01s CPU      0.02s WALL (       6 calls)

     Called by *egterg:
     h_psi        :      2.13s CPU      2.28s WALL (     986 calls)
     s_psi        :      0.03s CPU      0.03s WALL (     986 calls)
     g_psi        :      0.01s CPU      0.01s WALL (     657 calls)
     cdiaghg      :      0.10s CPU      0.11s WALL (     892 calls)

     Called by h_psi:
     h_psi:pot    :      2.12s CPU      2.27s WALL (     986 calls)
     h_psi:calbec :      0.07s CPU      0.07s WALL (     986 calls)
     vloc_psi     :      2.02s CPU      2.15s WALL (     986 calls)
     add_vuspsi   :      0.03s CPU      0.03s WALL (     986 calls)

     General routines
     calbec       :      0.10s CPU      0.11s WALL (    1503 calls)
     fft          :      0.03s CPU      0.03s WALL (      93 calls)
     ffts         :      0.00s CPU      0.00s WALL (       6 calls)
     fftw         :      2.24s CPU      2.39s WALL (   10818 calls)

     Parallel routines
     fft_scatt_xy :      0.18s CPU      0.19s WALL (   10917 calls)
     fft_scatt_yz :      0.61s CPU      0.65s WALL (   10917 calls)

     PWSCF        :     3.89s CPU         4.17s WALL


   This run was terminated on:  20:12:58  25Mar2024            

=------------------------------------------------------------------------------=
   JOB DONE.
=------------------------------------------------------------------------------=
