
     Program PWSCF v.6.3MaX starts on 25Mar2024 at 20: 3:46 

     This program is part of the open-source Quantum ESPRESSO suite
     for quantum simulation of materials; please cite
         "P. Giannozzi et al., J. Phys.:Condens. Matter 21 395502 (2009);
         "P. Giannozzi et al., J. Phys.:Condens. Matter 29 465901 (2017);
          URL http://www.quantum-espresso.org", 
     in publications or presentations arising from this work. More details at
     http://www.quantum-espresso.org/quote

     Parallel version (MPI), running on     5 processors

     MPI processes distributed on     1 nodes
     R & G space division:  proc/nbgrp/npool/nimage =       5
     Waiting for input...
     Reading input from standard input

     Current dimensions of program PWSCF are:
     Max number of different atomic species (ntypx) = 10
     Max number of k-points (npk) =  40000
     Max angular momentum in pseudopotentials (lmaxx) =  3
               file Al.pbe-nl-kjpaw_psl.1.0.0.UPF: wavefunction(s)  3S 3P renormalized

     Subspace diagonalization in iterative solution of the eigenvalue problem:
     a serial algorithm will be used


     Parallelization info
     --------------------
     sticks:   dense  smooth     PW     G-vecs:    dense   smooth      PW
     Min          87      87     30                 1236     1236     227
     Max          89      89     31                 1238     1238     228
     Sum         439     439    151                 6183     6183    1139



     bravais-lattice index     =            2
     lattice parameter (alat)  =       7.6500  a.u.
     unit-cell volume          =     111.9243 (a.u.)^3
     number of atoms/cell      =            1
     number of atomic types    =            1
     number of electrons       =         3.00
     number of Kohn-Sham states=            6
     kinetic-energy cutoff     =      55.0000  Ry
     charge density cutoff     =     220.0000  Ry
     convergence threshold     =      1.0E-08
     mixing beta               =       0.7000
     number of iterations used =            8  plain     mixing
     Exchange-correlation      = SLA PW PBX PBC ( 1  4  3  4 0 0)

     celldm(1)=   7.650000  celldm(2)=   0.000000  celldm(3)=   0.000000
     celldm(4)=   0.000000  celldm(5)=   0.000000  celldm(6)=   0.000000

     crystal axes: (cart. coord. in units of alat)
               a(1) = (  -0.500000   0.000000   0.500000 )  
               a(2) = (   0.000000   0.500000   0.500000 )  
               a(3) = (  -0.500000   0.500000   0.000000 )  

     reciprocal axes: (cart. coord. in units 2 pi/alat)
               b(1) = ( -1.000000 -1.000000  1.000000 )  
               b(2) = (  1.000000  1.000000  1.000000 )  
               b(3) = ( -1.000000  1.000000 -1.000000 )  


     PseudoPot. # 1 for Al read from file:
     /home/lorenzo/pseudos/Al/Al.pbe-nl-kjpaw_psl.1.0.0.UPF
     MD5 check sum: 8cf6d98cc7ef3f4b729b574060f3a10f
     Pseudo is Projector augmented-wave + core cor, Zval =  3.0
     Generated using "atomic" code by A. Dal Corso v.6.3
     Shape of augmentation charge: PSQ
     Using radial grid of 1135 points,  4 beta functions with: 
                l(1) =   0
                l(2) =   0
                l(3) =   1
                l(4) =   1
     Q(r) pseudized with 0 coefficients 


     atomic species   valence    mass     pseudopotential
        Al             3.00    26.98150     Al( 1.00)

     48 Sym. Ops., with inversion, found



   Cartesian axes

     site n.     atom                  positions (alat units)
         1           Al  tau(   1) = (   0.0000000   0.0000000   0.0000000  )

     number of k points=    29  gaussian smearing, width (Ry)=  0.0100
                       cart. coord. in units 2pi/alat
        k(    1) = (   0.0000000   0.0000000   0.0000000), wk =   0.0039062
        k(    2) = (  -0.1250000   0.1250000  -0.1250000), wk =   0.0312500
        k(    3) = (  -0.2500000   0.2500000  -0.2500000), wk =   0.0312500
        k(    4) = (  -0.3750000   0.3750000  -0.3750000), wk =   0.0312500
        k(    5) = (   0.5000000  -0.5000000   0.5000000), wk =   0.0156250
        k(    6) = (   0.0000000   0.2500000   0.0000000), wk =   0.0234375
        k(    7) = (  -0.1250000   0.3750000  -0.1250000), wk =   0.0937500
        k(    8) = (  -0.2500000   0.5000000  -0.2500000), wk =   0.0937500
        k(    9) = (   0.6250000  -0.3750000   0.6250000), wk =   0.0937500
        k(   10) = (   0.5000000  -0.2500000   0.5000000), wk =   0.0937500
        k(   11) = (   0.3750000  -0.1250000   0.3750000), wk =   0.0937500
        k(   12) = (   0.2500000   0.0000000   0.2500000), wk =   0.0468750
        k(   13) = (   0.0000000   0.5000000   0.0000000), wk =   0.0234375
        k(   14) = (  -0.1250000   0.6250000  -0.1250000), wk =   0.0937500
        k(   15) = (   0.7500000  -0.2500000   0.7500000), wk =   0.0937500
        k(   16) = (   0.6250000  -0.1250000   0.6250000), wk =   0.0937500
        k(   17) = (   0.5000000   0.0000000   0.5000000), wk =   0.0468750
        k(   18) = (   0.0000000   0.7500000   0.0000000), wk =   0.0234375
        k(   19) = (   0.8750000  -0.1250000   0.8750000), wk =   0.0937500
        k(   20) = (   0.7500000   0.0000000   0.7500000), wk =   0.0468750
        k(   21) = (   0.0000000  -1.0000000   0.0000000), wk =   0.0117188
        k(   22) = (  -0.2500000   0.5000000   0.0000000), wk =   0.0937500
        k(   23) = (   0.6250000  -0.3750000   0.8750000), wk =   0.1875000
        k(   24) = (   0.5000000  -0.2500000   0.7500000), wk =   0.0937500
        k(   25) = (   0.7500000  -0.2500000   1.0000000), wk =   0.0937500
        k(   26) = (   0.6250000  -0.1250000   0.8750000), wk =   0.1875000
        k(   27) = (   0.5000000   0.0000000   0.7500000), wk =   0.0937500
        k(   28) = (  -0.2500000  -1.0000000   0.0000000), wk =   0.0468750
        k(   29) = (  -0.5000000  -1.0000000   0.0000000), wk =   0.0234375

     Dense  grid:     6183 G-vectors     FFT dimensions: (  25,  25,  25)

     Estimated max dynamical RAM per process >       2.53 MB

     Estimated total dynamical RAM >      12.64 MB

     Initial potential from superposition of free atoms

     starting charge    2.99771, renormalised to    3.00000
     Starting wfcs are    4 randomized atomic wfcs +    2 random wfcs
     Checking if some PAW data can be deallocated... 

     total cpu time spent up to now is        0.6 secs

     Self-consistent Calculation

     iteration #  1     ecut=    55.00 Ry     beta= 0.70
     Davidson diagonalization with overlap
     ethr =  1.00E-02,  avg # of iterations =  4.7

     Threshold (ethr) on eigenvalues was too large:
     Diagonalizing with lowered threshold

     Davidson diagonalization with overlap
     ethr =  1.94E-04,  avg # of iterations =  2.1

     total cpu time spent up to now is        0.9 secs

     total energy              =     -39.50241640 Ry
     Harris-Foulkes estimate   =     -39.50387327 Ry
     estimated scf accuracy    <       0.00571409 Ry

     iteration #  2     ecut=    55.00 Ry     beta= 0.70
     Davidson diagonalization with overlap
     ethr =  1.90E-04,  avg # of iterations =  1.0

     total cpu time spent up to now is        1.1 secs

     total energy              =     -39.50241346 Ry
     Harris-Foulkes estimate   =     -39.50250773 Ry
     estimated scf accuracy    <       0.00040254 Ry

     iteration #  3     ecut=    55.00 Ry     beta= 0.70
     Davidson diagonalization with overlap
     ethr =  1.34E-05,  avg # of iterations =  1.9

     total cpu time spent up to now is        1.2 secs

     total energy              =     -39.50243393 Ry
     Harris-Foulkes estimate   =     -39.50243451 Ry
     estimated scf accuracy    <       0.00000143 Ry

     iteration #  4     ecut=    55.00 Ry     beta= 0.70
     Davidson diagonalization with overlap
     ethr =  4.75E-08,  avg # of iterations =  2.9

     total cpu time spent up to now is        1.4 secs

     total energy              =     -39.50243592 Ry
     Harris-Foulkes estimate   =     -39.50243591 Ry
     estimated scf accuracy    <       0.00000009 Ry

     iteration #  5     ecut=    55.00 Ry     beta= 0.70
     Davidson diagonalization with overlap
     ethr =  2.99E-09,  avg # of iterations =  1.2

     total cpu time spent up to now is        1.5 secs

     End of self-consistent calculation

          k = 0.0000 0.0000 0.0000 (   749 PWs)   bands (ev):

    -3.2511  20.4404  20.4404  21.8771  21.8771  21.8771

          k =-0.1250 0.1250-0.1250 (   773 PWs)   bands (ev):

    -2.8281  16.1438  19.4852  19.4852  22.5080  23.4216

          k =-0.2500 0.2500-0.2500 (   778 PWs)   bands (ev):

    -1.5667  11.2832  18.7182  18.7182  22.1535  22.5468

          k =-0.3750 0.3750-0.3750 (   769 PWs)   bands (ev):

     0.5119   6.9887  18.6260  18.6260  20.5677  20.5678

          k = 0.5000-0.5000 0.5000 (   778 PWs)   bands (ev):

     3.2764   3.4803  19.1967  19.1967  19.2887  19.2887

          k = 0.0000 0.2500 0.0000 (   769 PWs)   bands (ev):

    -2.6874  17.7285  17.7285  17.9919  20.7288  22.4403

          k =-0.1250 0.3750-0.1250 (   781 PWs)   bands (ev):

    -1.7063  13.1405  16.6654  18.1845  19.4127  21.9349

          k =-0.2500 0.5000-0.2500 (   783 PWs)   bands (ev):

     0.0982   8.6849  16.3176  17.0443  18.0197  24.0268

          k = 0.6250-0.3750 0.6250 (   773 PWs)   bands (ev):

     2.6935   4.8613  15.4205  16.6893  18.4571  22.5186

          k = 0.5000-0.2500 0.5000 (   768 PWs)   bands (ev):

     1.7443   6.0538  14.5408  17.7809  19.6378  21.6785

          k = 0.3750-0.1250 0.3750 (   776 PWs)   bands (ev):

    -0.5931  10.0837  14.4412  19.5724  21.5193  21.5272

          k = 0.2500 0.0000 0.2500 (   775 PWs)   bands (ev):

    -2.1260  14.2867  15.5165  21.5338  21.8242  23.1611

          k = 0.0000 0.5000 0.0000 (   769 PWs)   bands (ev):

    -1.0097  15.3282  15.3414  15.3414  16.0863  18.8000

          k =-0.1250 0.6250-0.1250 (   775 PWs)   bands (ev):

     0.5103  11.0691  13.4197  14.7441  16.2136  20.2166

          k = 0.7500-0.2500 0.7500 (   768 PWs)   bands (ev):

     2.8233   7.1001  11.4971  14.8705  16.5544  23.8800

          k = 0.6250-0.1250 0.6250 (   769 PWs)   bands (ev):

     3.7702   5.8817  10.3756  15.7208  17.5425  25.4296

          k = 0.5000 0.0000 0.5000 (   784 PWs)   bands (ev):

     1.1975   9.0935  10.5893  17.2946  19.2543  25.4030

          k = 0.0000 0.7500 0.0000 (   765 PWs)   bands (ev):

     1.7373  10.4322  13.6739  13.9009  13.9009  17.3726

          k = 0.8750-0.1250 0.8750 (   763 PWs)   bands (ev):

     3.7354   8.2247  10.0585  13.7828  15.1513  19.2805

          k = 0.7500 0.0000 0.7500 (   762 PWs)   bands (ev):

     5.9755   6.5014   7.4459  14.3886  16.0303  23.4659

          k = 0.0000-1.0000 0.0000 (   774 PWs)   bands (ev):

     4.9391   6.2536  13.1180  13.4209  13.4209  16.8634

          k =-0.2500 0.5000 0.0000 (   776 PWs)   bands (ev):

    -0.4547  11.6964  13.0877  16.6014  19.9577  21.7091

          k = 0.6250-0.3750 0.8750 (   770 PWs)   bands (ev):

     1.6066   7.9889  12.4157  14.4694  20.5764  22.6563

          k = 0.5000-0.2500 0.7500 (   764 PWs)   bands (ev):

     4.3211   4.5697  12.8165  13.2729  21.0964  21.5324

          k = 0.7500-0.2500 1.0000 (   763 PWs)   bands (ev):

     2.2814  10.1357  10.8462  11.7216  18.4687  20.4603

          k = 0.6250-0.1250 0.8750 (   762 PWs)   bands (ev):

     4.8002   6.9276   9.3050  11.4581  19.6461  23.7649

          k = 0.5000 0.0000 0.7500 (   769 PWs)   bands (ev):

     3.9006   7.5334   8.9947  12.5623  20.8567  24.0924

          k =-0.2500-1.0000 0.0000 (   760 PWs)   bands (ev):

     5.4571   6.7943   9.6149  11.1101  17.9611  20.0063

          k =-0.5000-1.0000 0.0000 (   772 PWs)   bands (ev):

     7.0138   7.0138   8.0328   8.9278  23.6205  24.1335

     the Fermi energy is     7.8841 ev

!    total energy              =     -39.50243592 Ry
     Harris-Foulkes estimate   =     -39.50243592 Ry
     estimated scf accuracy    <          5.1E-09 Ry

     total all-electron energy =      -485.645216 Ry

     The total energy is the sum of the following terms:

     one-electron contribution =       3.15099491 Ry
     hartree contribution      =       0.00648837 Ry
     xc contribution           =      -2.58843512 Ry
     ewald contribution        =      -5.39395539 Ry
     one-center paw contrib.   =     -34.67721535 Ry
     smearing contrib. (-TS)   =      -0.00031334 Ry

     convergence has been achieved in   5 iterations

     Forces acting on atoms (cartesian axes, Ry/au):

     atom    1 type  1   force =     0.00000000    0.00000000    0.00000000

     Total force =     0.000000     Total SCF correction =     0.000000


     Computing stress (Cartesian axis) and pressure

          total   stress  (Ry/bohr**3)                   (kbar)     P=   -4.02
  -0.00002736   0.00000000  -0.00000000         -4.02      0.00     -0.00
   0.00000000  -0.00002736   0.00000000          0.00     -4.02      0.00
  -0.00000000   0.00000000  -0.00002736         -0.00      0.00     -4.02


     Writing output data file Al.save/

     init_run     :      0.16s CPU      0.17s WALL (       1 calls)
     electrons    :      0.90s CPU      0.97s WALL (       1 calls)
     forces       :      0.02s CPU      0.02s WALL (       1 calls)
     stress       :      0.07s CPU      0.07s WALL (       1 calls)

     Called by init_run:
     wfcinit      :      0.03s CPU      0.04s WALL (       1 calls)
     potinit      :      0.04s CPU      0.04s WALL (       1 calls)
     hinit0       :      0.08s CPU      0.08s WALL (       1 calls)

     Called by electrons:
     c_bands      :      0.61s CPU      0.65s WALL (       6 calls)
     sum_band     :      0.14s CPU      0.14s WALL (       6 calls)
     v_of_rho     :      0.02s CPU      0.03s WALL (       6 calls)
     newd         :      0.01s CPU      0.01s WALL (       6 calls)
     PAW_pot      :      0.14s CPU      0.18s WALL (       6 calls)
     mix_rho      :      0.00s CPU      0.00s WALL (       6 calls)

     Called by c_bands:
     init_us_2    :      0.02s CPU      0.02s WALL (     435 calls)
     cegterg      :      0.59s CPU      0.63s WALL (     174 calls)

     Called by sum_band:
     sum_band:bec :      0.00s CPU      0.00s WALL (     174 calls)
     addusdens    :      0.01s CPU      0.01s WALL (       6 calls)

     Called by *egterg:
     h_psi        :      0.49s CPU      0.53s WALL (     603 calls)
     s_psi        :      0.01s CPU      0.01s WALL (     603 calls)
     g_psi        :      0.00s CPU      0.00s WALL (     400 calls)
     cdiaghg      :      0.04s CPU      0.05s WALL (     545 calls)

     Called by h_psi:
     h_psi:pot    :      0.49s CPU      0.52s WALL (     603 calls)
     h_psi:calbec :      0.02s CPU      0.02s WALL (     603 calls)
     vloc_psi     :      0.46s CPU      0.49s WALL (     603 calls)
     add_vuspsi   :      0.01s CPU      0.01s WALL (     603 calls)

     General routines
     calbec       :      0.03s CPU      0.03s WALL (     922 calls)
     fft          :      0.02s CPU      0.02s WALL (      93 calls)
     ffts         :      0.00s CPU      0.00s WALL (       6 calls)
     fftw         :      0.53s CPU      0.56s WALL (    6640 calls)

     Parallel routines
     fft_scatt_xy :      0.04s CPU      0.05s WALL (    6739 calls)
     fft_scatt_yz :      0.15s CPU      0.16s WALL (    6739 calls)

     PWSCF        :     1.57s CPU         1.72s WALL


   This run was terminated on:  20: 3:48  25Mar2024            

=------------------------------------------------------------------------------=
   JOB DONE.
=------------------------------------------------------------------------------=
