
     Program PWSCF v.6.3MaX starts on 25Mar2024 at 20: 3:26 

     This program is part of the open-source Quantum ESPRESSO suite
     for quantum simulation of materials; please cite
         "P. Giannozzi et al., J. Phys.:Condens. Matter 21 395502 (2009);
         "P. Giannozzi et al., J. Phys.:Condens. Matter 29 465901 (2017);
          URL http://www.quantum-espresso.org", 
     in publications or presentations arising from this work. More details at
     http://www.quantum-espresso.org/quote

     Parallel version (MPI), running on     5 processors

     MPI processes distributed on     1 nodes
     R & G space division:  proc/nbgrp/npool/nimage =       5
     Waiting for input...
     Reading input from standard input

     Current dimensions of program PWSCF are:
     Max number of different atomic species (ntypx) = 10
     Max number of k-points (npk) =  40000
     Max angular momentum in pseudopotentials (lmaxx) =  3
               file Al.pbe-n-kjpaw_psl.1.0.0.UPF: wavefunction(s)  3S 3P renormalized

     Subspace diagonalization in iterative solution of the eigenvalue problem:
     a serial algorithm will be used


     Parallelization info
     --------------------
     sticks:   dense  smooth     PW     G-vecs:    dense   smooth      PW
     Min          87      87     30                 1236     1236     227
     Max          89      89     31                 1238     1238     228
     Sum         439     439    151                 6183     6183    1139



     bravais-lattice index     =            2
     lattice parameter (alat)  =       7.6500  a.u.
     unit-cell volume          =     111.9243 (a.u.)^3
     number of atoms/cell      =            1
     number of atomic types    =            1
     number of electrons       =         3.00
     number of Kohn-Sham states=            6
     kinetic-energy cutoff     =      55.0000  Ry
     charge density cutoff     =     220.0000  Ry
     convergence threshold     =      1.0E-08
     mixing beta               =       0.7000
     number of iterations used =            8  plain     mixing
     Exchange-correlation      = SLA PW PBX PBC ( 1  4  3  4 0 0)

     celldm(1)=   7.650000  celldm(2)=   0.000000  celldm(3)=   0.000000
     celldm(4)=   0.000000  celldm(5)=   0.000000  celldm(6)=   0.000000

     crystal axes: (cart. coord. in units of alat)
               a(1) = (  -0.500000   0.000000   0.500000 )  
               a(2) = (   0.000000   0.500000   0.500000 )  
               a(3) = (  -0.500000   0.500000   0.000000 )  

     reciprocal axes: (cart. coord. in units 2 pi/alat)
               b(1) = ( -1.000000 -1.000000  1.000000 )  
               b(2) = (  1.000000  1.000000  1.000000 )  
               b(3) = ( -1.000000  1.000000 -1.000000 )  


     PseudoPot. # 1 for Al read from file:
     /home/lorenzo/pseudos/Al/Al.pbe-n-kjpaw_psl.1.0.0.UPF
     MD5 check sum: 502b6b27b9c6270cab5dd1084b96fa6d
     Pseudo is Projector augmented-wave + core cor, Zval =  3.0
     Generated using "atomic" code by A. Dal Corso v.6.3
     Shape of augmentation charge: PSQ
     Using radial grid of 1135 points,  6 beta functions with: 
                l(1) =   0
                l(2) =   0
                l(3) =   1
                l(4) =   1
                l(5) =   2
                l(6) =   2
     Q(r) pseudized with 0 coefficients 


     atomic species   valence    mass     pseudopotential
        Al             3.00    26.98150     Al( 1.00)

     48 Sym. Ops., with inversion, found



   Cartesian axes

     site n.     atom                  positions (alat units)
         1           Al  tau(   1) = (   0.0000000   0.0000000   0.0000000  )

     number of k points=    10  gaussian smearing, width (Ry)=  0.0100
                       cart. coord. in units 2pi/alat
        k(    1) = (   0.0000000   0.0000000   0.0000000), wk =   0.0160000
        k(    2) = (  -0.2000000   0.2000000  -0.2000000), wk =   0.1280000
        k(    3) = (  -0.4000000   0.4000000  -0.4000000), wk =   0.1280000
        k(    4) = (   0.0000000   0.4000000   0.0000000), wk =   0.0960000
        k(    5) = (  -0.2000000   0.6000000  -0.2000000), wk =   0.3840000
        k(    6) = (   0.6000000  -0.2000000   0.6000000), wk =   0.3840000
        k(    7) = (   0.4000000   0.0000000   0.4000000), wk =   0.1920000
        k(    8) = (   0.0000000   0.8000000   0.0000000), wk =   0.0960000
        k(    9) = (   0.8000000   0.0000000   0.8000000), wk =   0.1920000
        k(   10) = (   0.6000000  -0.2000000   1.0000000), wk =   0.3840000

     Dense  grid:     6183 G-vectors     FFT dimensions: (  25,  25,  25)

     Estimated max dynamical RAM per process >       6.17 MB

     Estimated total dynamical RAM >      30.83 MB

     Initial potential from superposition of free atoms

     starting charge    2.99771, renormalised to    3.00000
     Starting wfcs are    4 randomized atomic wfcs +    2 random wfcs
     Checking if some PAW data can be deallocated... 

     total cpu time spent up to now is        1.0 secs

     Self-consistent Calculation

     iteration #  1     ecut=    55.00 Ry     beta= 0.70
     Davidson diagonalization with overlap
     ethr =  1.00E-02,  avg # of iterations =  5.1

     Threshold (ethr) on eigenvalues was too large:
     Diagonalizing with lowered threshold

     Davidson diagonalization with overlap
     ethr =  1.65E-04,  avg # of iterations =  1.4

     total cpu time spent up to now is        1.2 secs

     total energy              =     -39.49895239 Ry
     Harris-Foulkes estimate   =     -39.50003262 Ry
     estimated scf accuracy    <       0.00490056 Ry

     iteration #  2     ecut=    55.00 Ry     beta= 0.70
     Davidson diagonalization with overlap
     ethr =  1.63E-04,  avg # of iterations =  1.0

     total cpu time spent up to now is        1.4 secs

     total energy              =     -39.49890886 Ry
     Harris-Foulkes estimate   =     -39.49899179 Ry
     estimated scf accuracy    <       0.00035989 Ry

     iteration #  3     ecut=    55.00 Ry     beta= 0.70
     Davidson diagonalization with overlap
     ethr =  1.20E-05,  avg # of iterations =  2.3

     total cpu time spent up to now is        1.5 secs

     total energy              =     -39.49891642 Ry
     Harris-Foulkes estimate   =     -39.49891656 Ry
     estimated scf accuracy    <       0.00000037 Ry

     iteration #  4     ecut=    55.00 Ry     beta= 0.70
     Davidson diagonalization with overlap
     ethr =  1.22E-08,  avg # of iterations =  2.6

     total cpu time spent up to now is        1.7 secs

     End of self-consistent calculation

          k = 0.0000 0.0000 0.0000 (   749 PWs)   bands (ev):

    -3.2494  20.4345  20.4345  21.8971  21.8971  21.8971

          k =-0.2000 0.2000-0.2000 (   776 PWs)   bands (ev):

    -2.1689  13.1730  18.9528  18.9528  22.3001  23.4302

          k =-0.4000 0.4000-0.4000 (   769 PWs)   bands (ev):

     1.0245   6.2106  18.6984  18.6984  20.2526  20.2526

          k = 0.0000 0.4000 0.0000 (   785 PWs)   bands (ev):

    -1.8105  16.1908  16.1908  16.2836  18.5725  19.5702

          k =-0.2000 0.6000-0.2000 (   775 PWs)   bands (ev):

     0.6721   9.2078  14.3828  15.2796  16.9399  22.8070

          k = 0.6000-0.2000 0.6000 (   775 PWs)   bands (ev):

     3.4540   5.1755  12.1081  16.2167  18.0647  23.9985

          k = 0.4000 0.0000 0.4000 (   770 PWs)   bands (ev):

    -0.3861  10.9237  12.3951  18.9931  21.0183  23.2342

          k = 0.0000 0.8000 0.0000 (   773 PWs)   bands (ev):

     2.4074   9.4130  13.4651  13.7376  13.7376  17.1966

          k = 0.8000 0.0000 0.8000 (   764 PWs)   bands (ev):

     5.6031   6.9080   7.9350  14.0491  15.5966  21.6797

          k = 0.6000-0.2000 1.0000 (   762 PWs)   bands (ev):

     3.7877   8.2600   9.6591  10.8997  21.5775  22.9350

     the Fermi energy is     8.2017 ev

!    total energy              =     -39.49891747 Ry
     Harris-Foulkes estimate   =     -39.49891748 Ry
     estimated scf accuracy    <          9.4E-09 Ry

     total all-electron energy =      -485.641698 Ry

     The total energy is the sum of the following terms:

     one-electron contribution =       3.15924942 Ry
     hartree contribution      =       0.00553371 Ry
     xc contribution           =      -2.58855283 Ry
     ewald contribution        =      -5.39395539 Ry
     one-center paw contrib.   =     -34.68027928 Ry
     smearing contrib. (-TS)   =      -0.00091311 Ry

     convergence has been achieved in   4 iterations

     Forces acting on atoms (cartesian axes, Ry/au):

     atom    1 type  1   force =     0.00000000    0.00000000    0.00000000

     Total force =     0.000000     Total SCF correction =     0.000000


     Computing stress (Cartesian axis) and pressure

          total   stress  (Ry/bohr**3)                   (kbar)     P=   14.20
   0.00009654   0.00000000   0.00000000         14.20      0.00      0.00
   0.00000000   0.00009654  -0.00000000          0.00     14.20     -0.00
   0.00000000  -0.00000000   0.00009654          0.00     -0.00     14.20


     Writing output data file Al.save/

     init_run     :      0.25s CPU      0.27s WALL (       1 calls)
     electrons    :      0.67s CPU      0.74s WALL (       1 calls)
     forces       :      0.03s CPU      0.03s WALL (       1 calls)
     stress       :      0.08s CPU      0.08s WALL (       1 calls)

     Called by init_run:
     wfcinit      :      0.01s CPU      0.01s WALL (       1 calls)
     potinit      :      0.08s CPU      0.10s WALL (       1 calls)
     hinit0       :      0.13s CPU      0.13s WALL (       1 calls)

     Called by electrons:
     c_bands      :      0.21s CPU      0.23s WALL (       5 calls)
     sum_band     :      0.08s CPU      0.08s WALL (       5 calls)
     v_of_rho     :      0.02s CPU      0.02s WALL (       5 calls)
     newd         :      0.03s CPU      0.04s WALL (       5 calls)
     PAW_pot      :      0.41s CPU      0.47s WALL (       5 calls)
     mix_rho      :      0.00s CPU      0.00s WALL (       5 calls)

     Called by c_bands:
     init_us_2    :      0.01s CPU      0.01s WALL (     130 calls)
     cegterg      :      0.20s CPU      0.21s WALL (      50 calls)

     Called by sum_band:
     sum_band:bec :      0.00s CPU      0.00s WALL (      50 calls)
     addusdens    :      0.03s CPU      0.03s WALL (       5 calls)

     Called by *egterg:
     h_psi        :      0.16s CPU      0.17s WALL (     184 calls)
     s_psi        :      0.01s CPU      0.01s WALL (     184 calls)
     g_psi        :      0.00s CPU      0.00s WALL (     124 calls)
     cdiaghg      :      0.01s CPU      0.02s WALL (     164 calls)

     Called by h_psi:
     h_psi:pot    :      0.16s CPU      0.17s WALL (     184 calls)
     h_psi:calbec :      0.01s CPU      0.01s WALL (     184 calls)
     vloc_psi     :      0.14s CPU      0.15s WALL (     184 calls)
     add_vuspsi   :      0.01s CPU      0.01s WALL (     184 calls)

     General routines
     calbec       :      0.02s CPU      0.02s WALL (     284 calls)
     fft          :      0.02s CPU      0.02s WALL (      82 calls)
     ffts         :      0.00s CPU      0.00s WALL (       5 calls)
     fftw         :      0.16s CPU      0.17s WALL (    1984 calls)

     Parallel routines
     fft_scatt_xy :      0.01s CPU      0.01s WALL (    2071 calls)
     fft_scatt_yz :      0.05s CPU      0.06s WALL (    2071 calls)

     PWSCF        :     1.72s CPU         1.86s WALL


   This run was terminated on:  20: 3:27  25Mar2024            

=------------------------------------------------------------------------------=
   JOB DONE.
=------------------------------------------------------------------------------=
