
     Program PWSCF v.6.3MaX starts on 25Mar2024 at 19:55: 4 

     This program is part of the open-source Quantum ESPRESSO suite
     for quantum simulation of materials; please cite
         "P. Giannozzi et al., J. Phys.:Condens. Matter 21 395502 (2009);
         "P. Giannozzi et al., J. Phys.:Condens. Matter 29 465901 (2017);
          URL http://www.quantum-espresso.org", 
     in publications or presentations arising from this work. More details at
     http://www.quantum-espresso.org/quote

     Parallel version (MPI), running on     5 processors

     MPI processes distributed on     1 nodes
     R & G space division:  proc/nbgrp/npool/nimage =       5
     Waiting for input...
     Reading input from standard input

     Current dimensions of program PWSCF are:
     Max number of different atomic species (ntypx) = 10
     Max number of k-points (npk) =  40000
     Max angular momentum in pseudopotentials (lmaxx) =  3
               file Al.pbe-nl-kjpaw_psl.1.0.0.UPF: wavefunction(s)  3S 3P renormalized

     Subspace diagonalization in iterative solution of the eigenvalue problem:
     a serial algorithm will be used


     Parallelization info
     --------------------
     sticks:   dense  smooth     PW     G-vecs:    dense   smooth      PW
     Min          24      24     11                  178      178      45
     Max          25      25     11                  181      181      46
     Sum         121     121     55                  893      893     229



     bravais-lattice index     =            2
     lattice parameter (alat)  =       7.6500  a.u.
     unit-cell volume          =     111.9243 (a.u.)^3
     number of atoms/cell      =            1
     number of atomic types    =            1
     number of electrons       =         3.00
     number of Kohn-Sham states=            6
     kinetic-energy cutoff     =      15.0000  Ry
     charge density cutoff     =      60.0000  Ry
     convergence threshold     =      1.0E-08
     mixing beta               =       0.7000
     number of iterations used =            8  plain     mixing
     Exchange-correlation      = SLA PW PBX PBC ( 1  4  3  4 0 0)

     celldm(1)=   7.650000  celldm(2)=   0.000000  celldm(3)=   0.000000
     celldm(4)=   0.000000  celldm(5)=   0.000000  celldm(6)=   0.000000

     crystal axes: (cart. coord. in units of alat)
               a(1) = (  -0.500000   0.000000   0.500000 )  
               a(2) = (   0.000000   0.500000   0.500000 )  
               a(3) = (  -0.500000   0.500000   0.000000 )  

     reciprocal axes: (cart. coord. in units 2 pi/alat)
               b(1) = ( -1.000000 -1.000000  1.000000 )  
               b(2) = (  1.000000  1.000000  1.000000 )  
               b(3) = ( -1.000000  1.000000 -1.000000 )  


     PseudoPot. # 1 for Al read from file:
     /home/lorenzo/pseudos/Al/Al.pbe-nl-kjpaw_psl.1.0.0.UPF
     MD5 check sum: 8cf6d98cc7ef3f4b729b574060f3a10f
     Pseudo is Projector augmented-wave + core cor, Zval =  3.0
     Generated using "atomic" code by A. Dal Corso v.6.3
     Shape of augmentation charge: PSQ
     Using radial grid of 1135 points,  4 beta functions with: 
                l(1) =   0
                l(2) =   0
                l(3) =   1
                l(4) =   1
     Q(r) pseudized with 0 coefficients 


     atomic species   valence    mass     pseudopotential
        Al             3.00    26.98150     Al( 1.00)

     48 Sym. Ops., with inversion, found



   Cartesian axes

     site n.     atom                  positions (alat units)
         1           Al  tau(   1) = (   0.0000000   0.0000000   0.0000000  )

     number of k points=    29  gaussian smearing, width (Ry)=  0.0100
                       cart. coord. in units 2pi/alat
        k(    1) = (   0.0000000   0.0000000   0.0000000), wk =   0.0039062
        k(    2) = (  -0.1250000   0.1250000  -0.1250000), wk =   0.0312500
        k(    3) = (  -0.2500000   0.2500000  -0.2500000), wk =   0.0312500
        k(    4) = (  -0.3750000   0.3750000  -0.3750000), wk =   0.0312500
        k(    5) = (   0.5000000  -0.5000000   0.5000000), wk =   0.0156250
        k(    6) = (   0.0000000   0.2500000   0.0000000), wk =   0.0234375
        k(    7) = (  -0.1250000   0.3750000  -0.1250000), wk =   0.0937500
        k(    8) = (  -0.2500000   0.5000000  -0.2500000), wk =   0.0937500
        k(    9) = (   0.6250000  -0.3750000   0.6250000), wk =   0.0937500
        k(   10) = (   0.5000000  -0.2500000   0.5000000), wk =   0.0937500
        k(   11) = (   0.3750000  -0.1250000   0.3750000), wk =   0.0937500
        k(   12) = (   0.2500000   0.0000000   0.2500000), wk =   0.0468750
        k(   13) = (   0.0000000   0.5000000   0.0000000), wk =   0.0234375
        k(   14) = (  -0.1250000   0.6250000  -0.1250000), wk =   0.0937500
        k(   15) = (   0.7500000  -0.2500000   0.7500000), wk =   0.0937500
        k(   16) = (   0.6250000  -0.1250000   0.6250000), wk =   0.0937500
        k(   17) = (   0.5000000   0.0000000   0.5000000), wk =   0.0468750
        k(   18) = (   0.0000000   0.7500000   0.0000000), wk =   0.0234375
        k(   19) = (   0.8750000  -0.1250000   0.8750000), wk =   0.0937500
        k(   20) = (   0.7500000   0.0000000   0.7500000), wk =   0.0468750
        k(   21) = (   0.0000000  -1.0000000   0.0000000), wk =   0.0117188
        k(   22) = (  -0.2500000   0.5000000   0.0000000), wk =   0.0937500
        k(   23) = (   0.6250000  -0.3750000   0.8750000), wk =   0.1875000
        k(   24) = (   0.5000000  -0.2500000   0.7500000), wk =   0.0937500
        k(   25) = (   0.7500000  -0.2500000   1.0000000), wk =   0.0937500
        k(   26) = (   0.6250000  -0.1250000   0.8750000), wk =   0.1875000
        k(   27) = (   0.5000000   0.0000000   0.7500000), wk =   0.0937500
        k(   28) = (  -0.2500000  -1.0000000   0.0000000), wk =   0.0468750
        k(   29) = (  -0.5000000  -1.0000000   0.0000000), wk =   0.0234375

     Dense  grid:      893 G-vectors     FFT dimensions: (  15,  15,  15)

     Estimated max dynamical RAM per process >       0.54 MB

     Estimated total dynamical RAM >       2.70 MB

     Initial potential from superposition of free atoms

     starting charge    2.99771, renormalised to    3.00000
     Starting wfcs are    4 randomized atomic wfcs +    2 random wfcs
     Checking if some PAW data can be deallocated... 

     total cpu time spent up to now is        0.5 secs

     Self-consistent Calculation

     iteration #  1     ecut=    15.00 Ry     beta= 0.70
     Davidson diagonalization with overlap
     ethr =  1.00E-02,  avg # of iterations =  4.4

     Threshold (ethr) on eigenvalues was too large:
     Diagonalizing with lowered threshold

     Davidson diagonalization with overlap
     ethr =  1.93E-04,  avg # of iterations =  1.7

     total cpu time spent up to now is        0.7 secs

     total energy              =     -39.50040611 Ry
     Harris-Foulkes estimate   =     -39.50186907 Ry
     estimated scf accuracy    <       0.00570316 Ry

     iteration #  2     ecut=    15.00 Ry     beta= 0.70
     Davidson diagonalization with overlap
     ethr =  1.90E-04,  avg # of iterations =  1.1

     total cpu time spent up to now is        0.7 secs

     total energy              =     -39.50038063 Ry
     Harris-Foulkes estimate   =     -39.50048110 Ry
     estimated scf accuracy    <       0.00040461 Ry

     iteration #  3     ecut=    15.00 Ry     beta= 0.70
     Davidson diagonalization with overlap
     ethr =  1.35E-05,  avg # of iterations =  1.2

     total cpu time spent up to now is        0.8 secs

     total energy              =     -39.50039708 Ry
     Harris-Foulkes estimate   =     -39.50039748 Ry
     estimated scf accuracy    <       0.00000138 Ry

     iteration #  4     ecut=    15.00 Ry     beta= 0.70
     Davidson diagonalization with overlap
     ethr =  4.60E-08,  avg # of iterations =  3.2

     total cpu time spent up to now is        0.9 secs

     total energy              =     -39.50039893 Ry
     Harris-Foulkes estimate   =     -39.50039893 Ry
     estimated scf accuracy    <       0.00000008 Ry

     iteration #  5     ecut=    15.00 Ry     beta= 0.70
     Davidson diagonalization with overlap
     ethr =  2.67E-09,  avg # of iterations =  1.0

     total cpu time spent up to now is        1.0 secs

     total energy              =     -39.50039894 Ry
     Harris-Foulkes estimate   =     -39.50039893 Ry
     estimated scf accuracy    <       0.00000004 Ry

     iteration #  6     ecut=    15.00 Ry     beta= 0.70
     Davidson diagonalization with overlap
     ethr =  1.33E-09,  avg # of iterations =  1.0

     total cpu time spent up to now is        1.0 secs

     End of self-consistent calculation

          k = 0.0000 0.0000 0.0000 (   113 PWs)   bands (ev):

    -3.2467  20.6620  20.6620  21.8849  21.8849  21.8849

          k =-0.1250 0.1250-0.1250 (   116 PWs)   bands (ev):

    -2.8240  16.2138  19.6058  19.6058  22.5639  23.5416

          k =-0.2500 0.2500-0.2500 (   113 PWs)   bands (ev):

    -1.5621  11.3240  18.8018  18.8018  22.2410  22.7088

          k =-0.3750 0.3750-0.3750 (   114 PWs)   bands (ev):

     0.5175   7.0076  18.7004  18.7004  20.6876  20.6876

          k = 0.5000-0.5000 0.5000 (   108 PWs)   bands (ev):

     3.2794   3.4963  19.2041  19.2041  19.4854  19.4854

          k = 0.0000 0.2500 0.0000 (   117 PWs)   bands (ev):

    -2.6833  17.7989  17.7989  18.1409  20.7412  22.6022

          k =-0.1250 0.3750-0.1250 (   113 PWs)   bands (ev):

    -1.7019  13.1905  16.7210  18.2840  19.5093  22.0286

          k =-0.2500 0.5000-0.2500 (   109 PWs)   bands (ev):

     0.1035   8.7105  16.3665  17.1278  18.1029  24.2271

          k = 0.6250-0.3750 0.6250 (   112 PWs)   bands (ev):

     2.7011   4.8743  15.4769  16.7394  18.5430  22.6719

          k = 0.5000-0.2500 0.5000 (   109 PWs)   bands (ev):

     1.7509   6.0700  14.5910  17.8491  19.7367  21.8290

          k = 0.3750-0.1250 0.3750 (   107 PWs)   bands (ev):

    -0.5881  10.1175  14.4890  19.6638  21.6354  21.7106

          k = 0.2500 0.0000 0.2500 (   117 PWs)   bands (ev):

    -2.1219  14.3442  15.5617  21.7625  21.8766  23.3255

          k = 0.0000 0.5000 0.0000 (   101 PWs)   bands (ev):

    -1.0048  15.3866  15.3866  15.4601  16.1706  18.8485

          k =-0.1250 0.6250-0.1250 (   114 PWs)   bands (ev):

     0.5153  11.1029  13.4640  14.7707  16.2933  20.2844

          k = 0.7500-0.2500 0.7500 (   110 PWs)   bands (ev):

     2.8310   7.1190  11.5315  14.8974  16.6382  24.0133

          k = 0.6250-0.1250 0.6250 (   107 PWs)   bands (ev):

     3.7798   5.8968  10.4062  15.7594  17.6360  25.6726

          k = 0.5000 0.0000 0.5000 (   107 PWs)   bands (ev):

     1.2036   9.1253  10.6145  17.3564  19.3537  25.0734

          k = 0.0000 0.7500 0.0000 (   112 PWs)   bands (ev):

     1.7432  10.4642  13.7685  13.9142  13.9142  17.4212

          k = 0.8750-0.1250 0.8750 (   108 PWs)   bands (ev):

     3.7431   8.2506  10.0886  13.7931  15.2321  19.3510

          k = 0.7500 0.0000 0.7500 (   110 PWs)   bands (ev):

     5.9857   6.5195   7.4659  14.4088  16.1066  23.5926

          k = 0.0000-1.0000 0.0000 (   116 PWs)   bands (ev):

     4.9420   6.2781  13.1948  13.4250  13.4250  16.9186

          k =-0.2500 0.5000 0.0000 (   110 PWs)   bands (ev):

    -0.4499  11.7460  13.1165  16.6674  20.0934  21.7725

          k = 0.6250-0.3750 0.8750 (   109 PWs)   bands (ev):

     1.6129   8.0121  12.4521  14.5143  20.6869  22.7929

          k = 0.5000-0.2500 0.7500 (   112 PWs)   bands (ev):

     4.3289   4.5843  12.8653  13.2944  21.1459  21.7171

          k = 0.7500-0.2500 1.0000 (   107 PWs)   bands (ev):

     2.2882  10.1735  10.8886  11.7307  18.5777  20.5250

          k = 0.6250-0.1250 0.8750 (   108 PWs)   bands (ev):

     4.8110   6.9458   9.3321  11.4809  19.7471  23.8834

          k = 0.5000 0.0000 0.7500 (   109 PWs)   bands (ev):

     3.9106   7.5538   9.0166  12.5936  20.9572  24.2851

          k =-0.2500-1.0000 0.0000 (   108 PWs)   bands (ev):

     5.4635   6.8195   9.6465  11.1235  18.0547  20.0722

          k =-0.5000-1.0000 0.0000 (   108 PWs)   bands (ev):

     7.0303   7.0303   8.0649   8.9357  23.7981  24.2048

     the Fermi energy is     7.9079 ev

!    total energy              =     -39.50039894 Ry
     Harris-Foulkes estimate   =     -39.50039894 Ry
     estimated scf accuracy    <          1.5E-10 Ry

     total all-electron energy =      -485.643179 Ry

     The total energy is the sum of the following terms:

     one-electron contribution =       3.15410930 Ry
     hartree contribution      =       0.00642517 Ry
     xc contribution           =      -2.58801747 Ry
     ewald contribution        =      -5.39395544 Ry
     one-center paw contrib.   =     -34.67864807 Ry
     smearing contrib. (-TS)   =      -0.00031244 Ry

     convergence has been achieved in   6 iterations

     Forces acting on atoms (cartesian axes, Ry/au):

     atom    1 type  1   force =     0.00000000    0.00000000    0.00000000

     Total force =     0.000000     Total SCF correction =     0.000000


     Computing stress (Cartesian axis) and pressure

          total   stress  (Ry/bohr**3)                   (kbar)     P=   -1.67
  -0.00001138  -0.00000000   0.00000000         -1.67     -0.00      0.00
  -0.00000000  -0.00001138   0.00000000         -0.00     -1.67      0.00
  -0.00000000   0.00000000  -0.00001138         -0.00      0.00     -1.67


     Writing output data file Al.save/

     init_run     :      0.07s CPU      0.08s WALL (       1 calls)
     electrons    :      0.44s CPU      0.55s WALL (       1 calls)
     forces       :      0.01s CPU      0.01s WALL (       1 calls)
     stress       :      0.01s CPU      0.01s WALL (       1 calls)

     Called by init_run:
     wfcinit      :      0.01s CPU      0.02s WALL (       1 calls)
     potinit      :      0.02s CPU      0.03s WALL (       1 calls)
     hinit0       :      0.03s CPU      0.03s WALL (       1 calls)

     Called by electrons:
     c_bands      :      0.25s CPU      0.29s WALL (       7 calls)
     sum_band     :      0.04s CPU      0.05s WALL (       7 calls)
     v_of_rho     :      0.01s CPU      0.01s WALL (       7 calls)
     newd         :      0.00s CPU      0.00s WALL (       7 calls)
     PAW_pot      :      0.16s CPU      0.20s WALL (       7 calls)
     mix_rho      :      0.00s CPU      0.00s WALL (       7 calls)

     Called by c_bands:
     init_us_2    :      0.01s CPU      0.01s WALL (     493 calls)
     cegterg      :      0.24s CPU      0.28s WALL (     203 calls)

     Called by sum_band:
     sum_band:bec :      0.00s CPU      0.00s WALL (     203 calls)
     addusdens    :      0.00s CPU      0.00s WALL (       7 calls)

     Called by *egterg:
     h_psi        :      0.17s CPU      0.20s WALL (     627 calls)
     s_psi        :      0.00s CPU      0.00s WALL (     627 calls)
     g_psi        :      0.00s CPU      0.00s WALL (     395 calls)
     cdiaghg      :      0.04s CPU      0.05s WALL (     569 calls)

     Called by h_psi:
     h_psi:pot    :      0.17s CPU      0.20s WALL (     627 calls)
     h_psi:calbec :      0.01s CPU      0.01s WALL (     627 calls)
     vloc_psi     :      0.15s CPU      0.18s WALL (     627 calls)
     add_vuspsi   :      0.00s CPU      0.00s WALL (     627 calls)

     General routines
     calbec       :      0.01s CPU      0.02s WALL (     975 calls)
     fft          :      0.00s CPU      0.01s WALL (     104 calls)
     ffts         :      0.00s CPU      0.00s WALL (       7 calls)
     fftw         :      0.17s CPU      0.20s WALL (    7372 calls)

     Parallel routines
     fft_scatt_xy :      0.02s CPU      0.02s WALL (    7483 calls)
     fft_scatt_yz :      0.08s CPU      0.09s WALL (    7483 calls)

     PWSCF        :     0.99s CPU         1.18s WALL


   This run was terminated on:  19:55: 5  25Mar2024            

=------------------------------------------------------------------------------=
   JOB DONE.
=------------------------------------------------------------------------------=
