
     Program PWSCF v.6.3MaX starts on 25Mar2024 at 20: 8:59 

     This program is part of the open-source Quantum ESPRESSO suite
     for quantum simulation of materials; please cite
         "P. Giannozzi et al., J. Phys.:Condens. Matter 21 395502 (2009);
         "P. Giannozzi et al., J. Phys.:Condens. Matter 29 465901 (2017);
          URL http://www.quantum-espresso.org", 
     in publications or presentations arising from this work. More details at
     http://www.quantum-espresso.org/quote

     Parallel version (MPI), running on     5 processors

     MPI processes distributed on     1 nodes
     R & G space division:  proc/nbgrp/npool/nimage =       5
     Waiting for input...
     Reading input from standard input

     Current dimensions of program PWSCF are:
     Max number of different atomic species (ntypx) = 10
     Max number of k-points (npk) =  40000
     Max angular momentum in pseudopotentials (lmaxx) =  3
               file Al.pbe-nl-kjpaw_psl.1.0.0.UPF: wavefunction(s)  3S 3P renormalized

     Subspace diagonalization in iterative solution of the eigenvalue problem:
     a serial algorithm will be used


     Parallelization info
     --------------------
     sticks:   dense  smooth     PW     G-vecs:    dense   smooth      PW
     Min         119     119     39                 1967     1967     351
     Max         119     119     40                 1969     1969     352
     Sum         595     595    199                 9841     9841    1759



     bravais-lattice index     =            2
     lattice parameter (alat)  =       7.6500  a.u.
     unit-cell volume          =     111.9243 (a.u.)^3
     number of atoms/cell      =            1
     number of atomic types    =            1
     number of electrons       =         3.00
     number of Kohn-Sham states=            6
     kinetic-energy cutoff     =      75.0000  Ry
     charge density cutoff     =     300.0000  Ry
     convergence threshold     =      1.0E-08
     mixing beta               =       0.7000
     number of iterations used =            8  plain     mixing
     Exchange-correlation      = SLA PW PBX PBC ( 1  4  3  4 0 0)

     celldm(1)=   7.650000  celldm(2)=   0.000000  celldm(3)=   0.000000
     celldm(4)=   0.000000  celldm(5)=   0.000000  celldm(6)=   0.000000

     crystal axes: (cart. coord. in units of alat)
               a(1) = (  -0.500000   0.000000   0.500000 )  
               a(2) = (   0.000000   0.500000   0.500000 )  
               a(3) = (  -0.500000   0.500000   0.000000 )  

     reciprocal axes: (cart. coord. in units 2 pi/alat)
               b(1) = ( -1.000000 -1.000000  1.000000 )  
               b(2) = (  1.000000  1.000000  1.000000 )  
               b(3) = ( -1.000000  1.000000 -1.000000 )  


     PseudoPot. # 1 for Al read from file:
     /home/lorenzo/pseudos/Al/Al.pbe-nl-kjpaw_psl.1.0.0.UPF
     MD5 check sum: 8cf6d98cc7ef3f4b729b574060f3a10f
     Pseudo is Projector augmented-wave + core cor, Zval =  3.0
     Generated using "atomic" code by A. Dal Corso v.6.3
     Shape of augmentation charge: PSQ
     Using radial grid of 1135 points,  4 beta functions with: 
                l(1) =   0
                l(2) =   0
                l(3) =   1
                l(4) =   1
     Q(r) pseudized with 0 coefficients 


     atomic species   valence    mass     pseudopotential
        Al             3.00    26.98150     Al( 1.00)

     48 Sym. Ops., with inversion, found



   Cartesian axes

     site n.     atom                  positions (alat units)
         1           Al  tau(   1) = (   0.0000000   0.0000000   0.0000000  )

     number of k points=    16  gaussian smearing, width (Ry)=  0.0100
                       cart. coord. in units 2pi/alat
        k(    1) = (   0.0000000   0.0000000   0.0000000), wk =   0.0092593
        k(    2) = (  -0.1666667   0.1666667  -0.1666667), wk =   0.0740741
        k(    3) = (  -0.3333333   0.3333333  -0.3333333), wk =   0.0740741
        k(    4) = (   0.5000000  -0.5000000   0.5000000), wk =   0.0370370
        k(    5) = (   0.0000000   0.3333333   0.0000000), wk =   0.0555556
        k(    6) = (  -0.1666667   0.5000000  -0.1666667), wk =   0.2222222
        k(    7) = (   0.6666667  -0.3333333   0.6666667), wk =   0.2222222
        k(    8) = (   0.5000000  -0.1666667   0.5000000), wk =   0.2222222
        k(    9) = (   0.3333333   0.0000000   0.3333333), wk =   0.1111111
        k(   10) = (   0.0000000   0.6666667   0.0000000), wk =   0.0555556
        k(   11) = (   0.8333333  -0.1666667   0.8333333), wk =   0.2222222
        k(   12) = (   0.6666667  -0.0000000   0.6666667), wk =   0.1111111
        k(   13) = (   0.0000000  -1.0000000   0.0000000), wk =   0.0277778
        k(   14) = (   0.6666667  -0.3333333   1.0000000), wk =   0.2222222
        k(   15) = (   0.5000000  -0.1666667   0.8333333), wk =   0.2222222
        k(   16) = (  -0.3333333  -1.0000000   0.0000000), wk =   0.1111111

     Dense  grid:     9841 G-vectors     FFT dimensions: (  30,  30,  30)

     Estimated max dynamical RAM per process >       3.59 MB

     Estimated total dynamical RAM >      17.93 MB

     Initial potential from superposition of free atoms

     starting charge    2.99771, renormalised to    3.00000
     Starting wfcs are    4 randomized atomic wfcs +    2 random wfcs
     Checking if some PAW data can be deallocated... 

     total cpu time spent up to now is        0.6 secs

     Self-consistent Calculation

     iteration #  1     ecut=    75.00 Ry     beta= 0.70
     Davidson diagonalization with overlap
     ethr =  1.00E-02,  avg # of iterations =  5.0

     Threshold (ethr) on eigenvalues was too large:
     Diagonalizing with lowered threshold

     Davidson diagonalization with overlap
     ethr =  1.81E-04,  avg # of iterations =  2.8

     total cpu time spent up to now is        1.0 secs

     total energy              =     -39.50767382 Ry
     Harris-Foulkes estimate   =     -39.50915622 Ry
     estimated scf accuracy    <       0.00535486 Ry

     iteration #  2     ecut=    75.00 Ry     beta= 0.70
     Davidson diagonalization with overlap
     ethr =  1.78E-04,  avg # of iterations =  1.0

     total cpu time spent up to now is        1.1 secs

     total energy              =     -39.50766869 Ry
     Harris-Foulkes estimate   =     -39.50776176 Ry
     estimated scf accuracy    <       0.00036540 Ry

     iteration #  3     ecut=    75.00 Ry     beta= 0.70
     Davidson diagonalization with overlap
     ethr =  1.22E-05,  avg # of iterations =  1.2

     total cpu time spent up to now is        1.2 secs

     total energy              =     -39.50768972 Ry
     Harris-Foulkes estimate   =     -39.50769028 Ry
     estimated scf accuracy    <       0.00000143 Ry

     iteration #  4     ecut=    75.00 Ry     beta= 0.70
     Davidson diagonalization with overlap
     ethr =  4.76E-08,  avg # of iterations =  3.3

     total cpu time spent up to now is        1.4 secs

     total energy              =     -39.50769202 Ry
     Harris-Foulkes estimate   =     -39.50769201 Ry
     estimated scf accuracy    <       0.00000012 Ry

     iteration #  5     ecut=    75.00 Ry     beta= 0.70
     Davidson diagonalization with overlap
     ethr =  4.07E-09,  avg # of iterations =  1.0

     total cpu time spent up to now is        1.5 secs

     End of self-consistent calculation

          k = 0.0000 0.0000 0.0000 (  1243 PWs)   bands (ev):

    -3.2530  20.4369  20.4370  21.8756  21.8757  21.8757

          k =-0.1667 0.1667-0.1667 (  1230 PWs)   bands (ev):

    -2.5020  14.4732  19.1577  19.1577  22.3783  23.7934

          k =-0.3333 0.3333-0.3333 (  1236 PWs)   bands (ev):

    -0.2719   8.3452  18.5767  18.5767  21.1590  21.1590

          k = 0.5000-0.5000 0.5000 (  1224 PWs)   bands (ev):

     3.2752   3.4774  19.1941  19.1941  19.2868  19.2868

          k = 0.0000 0.3333 0.0000 (  1239 PWs)   bands (ev):

    -2.2525  16.8291  16.8291  17.0031  20.0591  20.2966

          k =-0.1667 0.5000-0.1667 (  1239 PWs)   bands (ev):

    -0.5182  10.8439  15.7733  16.5073  17.4170  22.2926

          k = 0.6667-0.3333 0.6667 (  1219 PWs)   bands (ev):

     2.6457   5.5231  14.0484  15.9995  17.7782  23.7606

          k = 0.5000-0.1667 0.5000 (  1224 PWs)   bands (ev):

     1.4389   7.1500  12.9393  17.5086  19.4333  22.6986

          k = 0.3333 0.0000 0.3333 (  1239 PWs)   bands (ev):

    -1.2589  12.3271  13.7253  20.2560  22.2751  22.3767

          k = 0.0000 0.6667 0.0000 (  1242 PWs)   bands (ev):

     0.7059  12.2176  14.1002  14.2725  14.2726  17.7573

          k = 0.8333-0.1667 0.8333 (  1220 PWs)   bands (ev):

     3.3470   8.8849   9.3456  14.0627  15.5703  20.7208

          k = 0.6667-0.0000 0.6667 (  1220 PWs)   bands (ev):

     4.5546   6.7799   8.2367  15.1403  16.9027  26.4491

          k = 0.0000-1.0000 0.0000 (  1234 PWs)   bands (ev):

     4.9361   6.2529  13.1133  13.4192  13.4192  16.8630

          k = 0.6667-0.3333 1.0000 (  1222 PWs)   bands (ev):

     1.6793   9.5536  11.0037  13.2023  20.6277  22.2446

          k = 0.5000-0.1667 0.8333 (  1226 PWs)   bands (ev):

     5.1267   5.3843  10.8512  11.4034  21.8164  22.3049

          k =-0.3333-1.0000 0.0000 (  1220 PWs)   bands (ev):

     5.8573   7.2020   8.6285  10.1835  19.7422  21.5596

     the Fermi energy is     8.2044 ev

!    total energy              =     -39.50769202 Ry
     Harris-Foulkes estimate   =     -39.50769202 Ry
     estimated scf accuracy    <          5.7E-09 Ry

     total all-electron energy =      -485.650473 Ry

     The total energy is the sum of the following terms:

     one-electron contribution =       3.14701651 Ry
     hartree contribution      =       0.00562459 Ry
     xc contribution           =      -2.58818177 Ry
     ewald contribution        =      -5.39395538 Ry
     one-center paw contrib.   =     -34.67782798 Ry
     smearing contrib. (-TS)   =      -0.00036799 Ry

     convergence has been achieved in   5 iterations

     Forces acting on atoms (cartesian axes, Ry/au):

     atom    1 type  1   force =     0.00000000    0.00000000    0.00000000

     Total force =     0.000000     Total SCF correction =     0.000000


     Computing stress (Cartesian axis) and pressure

          total   stress  (Ry/bohr**3)                   (kbar)     P=   -0.06
  -0.00000038   0.00000000   0.00000000         -0.06      0.00      0.00
   0.00000000  -0.00000038  -0.00000000          0.00     -0.06     -0.00
   0.00000000  -0.00000000  -0.00000038          0.00     -0.00     -0.06


     Writing output data file Al.save/

     init_run     :      0.18s CPU      0.19s WALL (       1 calls)
     electrons    :      0.83s CPU      0.91s WALL (       1 calls)
     forces       :      0.02s CPU      0.02s WALL (       1 calls)
     stress       :      0.08s CPU      0.08s WALL (       1 calls)

     Called by init_run:
     wfcinit      :      0.04s CPU      0.04s WALL (       1 calls)
     potinit      :      0.03s CPU      0.04s WALL (       1 calls)
     hinit0       :      0.09s CPU      0.10s WALL (       1 calls)

     Called by electrons:
     c_bands      :      0.57s CPU      0.61s WALL (       6 calls)
     sum_band     :      0.12s CPU      0.12s WALL (       6 calls)
     v_of_rho     :      0.03s CPU      0.03s WALL (       6 calls)
     newd         :      0.01s CPU      0.02s WALL (       6 calls)
     PAW_pot      :      0.13s CPU      0.16s WALL (       6 calls)
     mix_rho      :      0.00s CPU      0.00s WALL (       6 calls)

     Called by c_bands:
     init_us_2    :      0.03s CPU      0.03s WALL (     240 calls)
     cegterg      :      0.54s CPU      0.57s WALL (      96 calls)

     Called by sum_band:
     sum_band:bec :      0.00s CPU      0.00s WALL (      96 calls)
     addusdens    :      0.01s CPU      0.01s WALL (       6 calls)

     Called by *egterg:
     h_psi        :      0.47s CPU      0.50s WALL (     342 calls)
     s_psi        :      0.01s CPU      0.01s WALL (     342 calls)
     g_psi        :      0.00s CPU      0.00s WALL (     230 calls)
     cdiaghg      :      0.03s CPU      0.03s WALL (     310 calls)

     Called by h_psi:
     h_psi:pot    :      0.47s CPU      0.49s WALL (     342 calls)
     h_psi:calbec :      0.01s CPU      0.02s WALL (     342 calls)
     vloc_psi     :      0.44s CPU      0.47s WALL (     342 calls)
     add_vuspsi   :      0.01s CPU      0.01s WALL (     342 calls)

     General routines
     calbec       :      0.02s CPU      0.02s WALL (     518 calls)
     fft          :      0.02s CPU      0.03s WALL (      93 calls)
     ffts         :      0.00s CPU      0.00s WALL (       6 calls)
     fftw         :      0.49s CPU      0.52s WALL (    3680 calls)

     Parallel routines
     fft_scatt_xy :      0.04s CPU      0.05s WALL (    3779 calls)
     fft_scatt_yz :      0.12s CPU      0.13s WALL (    3779 calls)

     PWSCF        :     1.54s CPU         1.68s WALL


   This run was terminated on:  20: 9: 1  25Mar2024            

=------------------------------------------------------------------------------=
   JOB DONE.
=------------------------------------------------------------------------------=
