
     Program PWSCF v.6.3MaX starts on 25Mar2024 at 20: 4:31 

     This program is part of the open-source Quantum ESPRESSO suite
     for quantum simulation of materials; please cite
         "P. Giannozzi et al., J. Phys.:Condens. Matter 21 395502 (2009);
         "P. Giannozzi et al., J. Phys.:Condens. Matter 29 465901 (2017);
          URL http://www.quantum-espresso.org", 
     in publications or presentations arising from this work. More details at
     http://www.quantum-espresso.org/quote

     Parallel version (MPI), running on     5 processors

     MPI processes distributed on     1 nodes
     R & G space division:  proc/nbgrp/npool/nimage =       5
     Waiting for input...
     Reading input from standard input

     Current dimensions of program PWSCF are:
     Max number of different atomic species (ntypx) = 10
     Max number of k-points (npk) =  40000
     Max angular momentum in pseudopotentials (lmaxx) =  3
               file Al.pbe-n-kjpaw_psl.1.0.0.UPF: wavefunction(s)  3S 3P renormalized

     Subspace diagonalization in iterative solution of the eigenvalue problem:
     a serial algorithm will be used


     Parallelization info
     --------------------
     sticks:   dense  smooth     PW     G-vecs:    dense   smooth      PW
     Min          99      99     30                 1395     1395     241
     Max         101     101     31                 1395     1395     244
     Sum         499     499    151                 6975     6975    1211



     bravais-lattice index     =            2
     lattice parameter (alat)  =       7.6500  a.u.
     unit-cell volume          =     111.9243 (a.u.)^3
     number of atoms/cell      =            1
     number of atomic types    =            1
     number of electrons       =         3.00
     number of Kohn-Sham states=            6
     kinetic-energy cutoff     =      60.0000  Ry
     charge density cutoff     =     240.0000  Ry
     convergence threshold     =      1.0E-08
     mixing beta               =       0.7000
     number of iterations used =            8  plain     mixing
     Exchange-correlation      = SLA PW PBX PBC ( 1  4  3  4 0 0)

     celldm(1)=   7.650000  celldm(2)=   0.000000  celldm(3)=   0.000000
     celldm(4)=   0.000000  celldm(5)=   0.000000  celldm(6)=   0.000000

     crystal axes: (cart. coord. in units of alat)
               a(1) = (  -0.500000   0.000000   0.500000 )  
               a(2) = (   0.000000   0.500000   0.500000 )  
               a(3) = (  -0.500000   0.500000   0.000000 )  

     reciprocal axes: (cart. coord. in units 2 pi/alat)
               b(1) = ( -1.000000 -1.000000  1.000000 )  
               b(2) = (  1.000000  1.000000  1.000000 )  
               b(3) = ( -1.000000  1.000000 -1.000000 )  


     PseudoPot. # 1 for Al read from file:
     /home/lorenzo/pseudos/Al/Al.pbe-n-kjpaw_psl.1.0.0.UPF
     MD5 check sum: 502b6b27b9c6270cab5dd1084b96fa6d
     Pseudo is Projector augmented-wave + core cor, Zval =  3.0
     Generated using "atomic" code by A. Dal Corso v.6.3
     Shape of augmentation charge: PSQ
     Using radial grid of 1135 points,  6 beta functions with: 
                l(1) =   0
                l(2) =   0
                l(3) =   1
                l(4) =   1
                l(5) =   2
                l(6) =   2
     Q(r) pseudized with 0 coefficients 


     atomic species   valence    mass     pseudopotential
        Al             3.00    26.98150     Al( 1.00)

     48 Sym. Ops., with inversion, found



   Cartesian axes

     site n.     atom                  positions (alat units)
         1           Al  tau(   1) = (   0.0000000   0.0000000   0.0000000  )

     number of k points=     4  gaussian smearing, width (Ry)=  0.0100
                       cart. coord. in units 2pi/alat
        k(    1) = (   0.0000000   0.0000000   0.0000000), wk =   0.0740741
        k(    2) = (  -0.3333333   0.3333333  -0.3333333), wk =   0.5925926
        k(    3) = (   0.0000000   0.6666667   0.0000000), wk =   0.4444444
        k(    4) = (   0.6666667  -0.0000000   0.6666667), wk =   0.8888889

     Dense  grid:     6975 G-vectors     FFT dimensions: (  27,  27,  27)

     Estimated max dynamical RAM per process >       6.80 MB

     Estimated total dynamical RAM >      34.01 MB

     Initial potential from superposition of free atoms

     starting charge    2.99771, renormalised to    3.00000
     Starting wfcs are    4 randomized atomic wfcs +    2 random wfcs
     Checking if some PAW data can be deallocated... 

     total cpu time spent up to now is        1.4 secs

     Self-consistent Calculation

     iteration #  1     ecut=    60.00 Ry     beta= 0.70
     Davidson diagonalization with overlap
     ethr =  1.00E-02,  avg # of iterations =  5.5

     Threshold (ethr) on eigenvalues was too large:
     Diagonalizing with lowered threshold

     Davidson diagonalization with overlap
     ethr =  2.74E-04,  avg # of iterations =  2.2

     total cpu time spent up to now is        1.6 secs

     total energy              =     -39.46104272 Ry
     Harris-Foulkes estimate   =     -39.46221572 Ry
     estimated scf accuracy    <       0.00812286 Ry

     iteration #  2     ecut=    60.00 Ry     beta= 0.70
     Davidson diagonalization with overlap
     ethr =  2.71E-04,  avg # of iterations =  1.0

     total cpu time spent up to now is        1.7 secs

     total energy              =     -39.46098767 Ry
     Harris-Foulkes estimate   =     -39.46108956 Ry
     estimated scf accuracy    <       0.00063601 Ry

     iteration #  3     ecut=    60.00 Ry     beta= 0.70
     Davidson diagonalization with overlap
     ethr =  2.12E-05,  avg # of iterations =  1.8

     total cpu time spent up to now is        1.9 secs

     total energy              =     -39.46099707 Ry
     Harris-Foulkes estimate   =     -39.46099728 Ry
     estimated scf accuracy    <       0.00000064 Ry

     iteration #  4     ecut=    60.00 Ry     beta= 0.70
     Davidson diagonalization with overlap
     ethr =  2.14E-08,  avg # of iterations =  3.2

     total cpu time spent up to now is        2.1 secs

     total energy              =     -39.46099799 Ry
     Harris-Foulkes estimate   =     -39.46099799 Ry
     estimated scf accuracy    <       0.00000001 Ry

     iteration #  5     ecut=    60.00 Ry     beta= 0.70
     Davidson diagonalization with overlap
     ethr =  3.40E-10,  avg # of iterations =  1.2

     total cpu time spent up to now is        2.2 secs

     End of self-consistent calculation

          k = 0.0000 0.0000 0.0000 (   893 PWs)   bands (ev):

    -3.2411  20.4414  20.4414  21.8967  21.8967  21.8967

          k =-0.3333 0.3333-0.3333 (   878 PWs)   bands (ev):

    -0.2599   8.3556  18.5887  18.5887  21.1703  21.1703

          k = 0.0000 0.6667 0.0000 (   866 PWs)   bands (ev):

     0.7179  12.2268  14.1144  14.2866  14.2866  17.7659

          k = 0.6667-0.0000 0.6667 (   873 PWs)   bands (ev):

     4.5652   6.7930   8.2439  15.1533  16.9183  26.4654

     the Fermi energy is     8.1302 ev

!    total energy              =     -39.46099799 Ry
     Harris-Foulkes estimate   =     -39.46099799 Ry
     estimated scf accuracy    <          2.0E-10 Ry

     total all-electron energy =      -485.603778 Ry

     The total energy is the sum of the following terms:

     one-electron contribution =       3.18999897 Ry
     hartree contribution      =       0.00983699 Ry
     xc contribution           =      -2.58915428 Ry
     ewald contribution        =      -5.39395538 Ry
     one-center paw contrib.   =     -34.67636967 Ry
     smearing contrib. (-TS)   =      -0.00135462 Ry

     convergence has been achieved in   5 iterations

     Forces acting on atoms (cartesian axes, Ry/au):

     atom    1 type  1   force =     0.00000000    0.00000000    0.00000000

     Total force =     0.000000     Total SCF correction =     0.000000


     Computing stress (Cartesian axis) and pressure

          total   stress  (Ry/bohr**3)                   (kbar)     P=  -14.34
  -0.00009750   0.00000000  -0.00000000        -14.34      0.00     -0.00
   0.00000000  -0.00009750  -0.00000000          0.00    -14.34     -0.00
  -0.00000000  -0.00000000  -0.00009750         -0.00     -0.00    -14.34


     Writing output data file Al.save/

     init_run     :      0.29s CPU      0.31s WALL (       1 calls)
     electrons    :      0.76s CPU      0.85s WALL (       1 calls)
     forces       :      0.02s CPU      0.02s WALL (       1 calls)
     stress       :      0.08s CPU      0.08s WALL (       1 calls)

     Called by init_run:
     wfcinit      :      0.02s CPU      0.02s WALL (       1 calls)
     potinit      :      0.11s CPU      0.12s WALL (       1 calls)
     hinit0       :      0.14s CPU      0.14s WALL (       1 calls)

     Called by electrons:
     c_bands      :      0.13s CPU      0.14s WALL (       6 calls)
     sum_band     :      0.07s CPU      0.07s WALL (       6 calls)
     v_of_rho     :      0.02s CPU      0.03s WALL (       6 calls)
     newd         :      0.05s CPU      0.05s WALL (       6 calls)
     PAW_pot      :      0.59s CPU      0.67s WALL (       6 calls)
     mix_rho      :      0.00s CPU      0.00s WALL (       6 calls)

     Called by c_bands:
     init_us_2    :      0.01s CPU      0.01s WALL (      60 calls)
     cegterg      :      0.12s CPU      0.13s WALL (      24 calls)

     Called by sum_band:
     sum_band:bec :      0.00s CPU      0.00s WALL (      24 calls)
     addusdens    :      0.04s CPU      0.04s WALL (       6 calls)

     Called by *egterg:
     h_psi        :      0.11s CPU      0.12s WALL (      88 calls)
     s_psi        :      0.00s CPU      0.00s WALL (      88 calls)
     g_psi        :      0.00s CPU      0.00s WALL (      60 calls)
     cdiaghg      :      0.01s CPU      0.01s WALL (      80 calls)

     Called by h_psi:
     h_psi:pot    :      0.11s CPU      0.11s WALL (      88 calls)
     h_psi:calbec :      0.01s CPU      0.01s WALL (      88 calls)
     vloc_psi     :      0.10s CPU      0.10s WALL (      88 calls)
     add_vuspsi   :      0.00s CPU      0.00s WALL (      88 calls)

     General routines
     calbec       :      0.01s CPU      0.01s WALL (     132 calls)
     fft          :      0.02s CPU      0.02s WALL (      93 calls)
     ffts         :      0.00s CPU      0.00s WALL (       6 calls)
     fftw         :      0.11s CPU      0.11s WALL (     926 calls)

     Parallel routines
     fft_scatt_xy :      0.01s CPU      0.01s WALL (    1025 calls)
     fft_scatt_yz :      0.04s CPU      0.04s WALL (    1025 calls)

     PWSCF        :     2.23s CPU         2.37s WALL


   This run was terminated on:  20: 4:34  25Mar2024            

=------------------------------------------------------------------------------=
   JOB DONE.
=------------------------------------------------------------------------------=
