
     Program PWSCF v.6.3MaX starts on 25Mar2024 at 19:55:24 

     This program is part of the open-source Quantum ESPRESSO suite
     for quantum simulation of materials; please cite
         "P. Giannozzi et al., J. Phys.:Condens. Matter 21 395502 (2009);
         "P. Giannozzi et al., J. Phys.:Condens. Matter 29 465901 (2017);
          URL http://www.quantum-espresso.org", 
     in publications or presentations arising from this work. More details at
     http://www.quantum-espresso.org/quote

     Parallel version (MPI), running on     5 processors

     MPI processes distributed on     1 nodes
     R & G space division:  proc/nbgrp/npool/nimage =       5
     Waiting for input...
     Reading input from standard input

     Current dimensions of program PWSCF are:
     Max number of different atomic species (ntypx) = 10
     Max number of k-points (npk) =  40000
     Max angular momentum in pseudopotentials (lmaxx) =  3
               file Al.pbe-nl-kjpaw_psl.1.0.0.UPF: wavefunction(s)  3S 3P renormalized

     Subspace diagonalization in iterative solution of the eigenvalue problem:
     a serial algorithm will be used


     Parallelization info
     --------------------
     sticks:   dense  smooth     PW     G-vecs:    dense   smooth      PW
     Min          32      32     12                  272      272      66
     Max          33      33     13                  273      273      67
     Sum         163     163     61                 1363     1363     331



     bravais-lattice index     =            2
     lattice parameter (alat)  =       7.6500  a.u.
     unit-cell volume          =     111.9243 (a.u.)^3
     number of atoms/cell      =            1
     number of atomic types    =            1
     number of electrons       =         3.00
     number of Kohn-Sham states=            6
     kinetic-energy cutoff     =      20.0000  Ry
     charge density cutoff     =      80.0000  Ry
     convergence threshold     =      1.0E-08
     mixing beta               =       0.7000
     number of iterations used =            8  plain     mixing
     Exchange-correlation      = SLA PW PBX PBC ( 1  4  3  4 0 0)

     celldm(1)=   7.650000  celldm(2)=   0.000000  celldm(3)=   0.000000
     celldm(4)=   0.000000  celldm(5)=   0.000000  celldm(6)=   0.000000

     crystal axes: (cart. coord. in units of alat)
               a(1) = (  -0.500000   0.000000   0.500000 )  
               a(2) = (   0.000000   0.500000   0.500000 )  
               a(3) = (  -0.500000   0.500000   0.000000 )  

     reciprocal axes: (cart. coord. in units 2 pi/alat)
               b(1) = ( -1.000000 -1.000000  1.000000 )  
               b(2) = (  1.000000  1.000000  1.000000 )  
               b(3) = ( -1.000000  1.000000 -1.000000 )  


     PseudoPot. # 1 for Al read from file:
     /home/lorenzo/pseudos/Al/Al.pbe-nl-kjpaw_psl.1.0.0.UPF
     MD5 check sum: 8cf6d98cc7ef3f4b729b574060f3a10f
     Pseudo is Projector augmented-wave + core cor, Zval =  3.0
     Generated using "atomic" code by A. Dal Corso v.6.3
     Shape of augmentation charge: PSQ
     Using radial grid of 1135 points,  4 beta functions with: 
                l(1) =   0
                l(2) =   0
                l(3) =   1
                l(4) =   1
     Q(r) pseudized with 0 coefficients 


     atomic species   valence    mass     pseudopotential
        Al             3.00    26.98150     Al( 1.00)

     48 Sym. Ops., with inversion, found



   Cartesian axes

     site n.     atom                  positions (alat units)
         1           Al  tau(   1) = (   0.0000000   0.0000000   0.0000000  )

     number of k points=    56  gaussian smearing, width (Ry)=  0.0100
                       cart. coord. in units 2pi/alat
        k(    1) = (   0.0000000   0.0000000   0.0000000), wk =   0.0015026
        k(    2) = (  -0.0909091   0.0909091  -0.0909091), wk =   0.0120210
        k(    3) = (  -0.1818182   0.1818182  -0.1818182), wk =   0.0120210
        k(    4) = (  -0.2727273   0.2727273  -0.2727273), wk =   0.0120210
        k(    5) = (  -0.3636364   0.3636364  -0.3636364), wk =   0.0120210
        k(    6) = (  -0.4545455   0.4545455  -0.4545455), wk =   0.0120210
        k(    7) = (   0.0000000   0.1818182   0.0000000), wk =   0.0090158
        k(    8) = (  -0.0909091   0.2727273  -0.0909091), wk =   0.0360631
        k(    9) = (  -0.1818182   0.3636364  -0.1818182), wk =   0.0360631
        k(   10) = (  -0.2727273   0.4545455  -0.2727273), wk =   0.0360631
        k(   11) = (  -0.3636364   0.5454545  -0.3636364), wk =   0.0360631
        k(   12) = (   0.5454545  -0.3636364   0.5454545), wk =   0.0360631
        k(   13) = (   0.4545455  -0.2727273   0.4545455), wk =   0.0360631
        k(   14) = (   0.3636364  -0.1818182   0.3636364), wk =   0.0360631
        k(   15) = (   0.2727273  -0.0909091   0.2727273), wk =   0.0360631
        k(   16) = (   0.1818182  -0.0000000   0.1818182), wk =   0.0180316
        k(   17) = (   0.0000000   0.3636364   0.0000000), wk =   0.0090158
        k(   18) = (  -0.0909091   0.4545455  -0.0909091), wk =   0.0360631
        k(   19) = (  -0.1818182   0.5454545  -0.1818182), wk =   0.0360631
        k(   20) = (  -0.2727273   0.6363636  -0.2727273), wk =   0.0360631
        k(   21) = (   0.6363636  -0.2727273   0.6363636), wk =   0.0360631
        k(   22) = (   0.5454545  -0.1818182   0.5454545), wk =   0.0360631
        k(   23) = (   0.4545455  -0.0909091   0.4545455), wk =   0.0360631
        k(   24) = (   0.3636364   0.0000000   0.3636364), wk =   0.0180316
        k(   25) = (   0.0000000   0.5454545   0.0000000), wk =   0.0090158
        k(   26) = (  -0.0909091   0.6363636  -0.0909091), wk =   0.0360631
        k(   27) = (  -0.1818182   0.7272727  -0.1818182), wk =   0.0360631
        k(   28) = (   0.7272727  -0.1818182   0.7272727), wk =   0.0360631
        k(   29) = (   0.6363636  -0.0909091   0.6363636), wk =   0.0360631
        k(   30) = (   0.5454545   0.0000000   0.5454545), wk =   0.0180316
        k(   31) = (   0.0000000   0.7272727   0.0000000), wk =   0.0090158
        k(   32) = (  -0.0909091   0.8181818  -0.0909091), wk =   0.0360631
        k(   33) = (   0.8181818  -0.0909091   0.8181818), wk =   0.0360631
        k(   34) = (   0.7272727   0.0000000   0.7272727), wk =   0.0180316
        k(   35) = (   0.0000000   0.9090909   0.0000000), wk =   0.0090158
        k(   36) = (   0.9090909  -0.0000000   0.9090909), wk =   0.0180316
        k(   37) = (  -0.1818182   0.3636364   0.0000000), wk =   0.0360631
        k(   38) = (  -0.2727273   0.4545455  -0.0909091), wk =   0.0721262
        k(   39) = (  -0.3636364   0.5454545  -0.1818182), wk =   0.0721262
        k(   40) = (   0.5454545  -0.3636364   0.7272727), wk =   0.0721262
        k(   41) = (  -0.1818182   0.5454545   0.0000000), wk =   0.0360631
        k(   42) = (  -0.2727273   0.6363636  -0.0909091), wk =   0.0721262
        k(   43) = (   0.6363636  -0.2727273   0.8181818), wk =   0.0721262
        k(   44) = (   0.5454545  -0.1818182   0.7272727), wk =   0.0721262
        k(   45) = (   0.4545455  -0.0909091   0.6363636), wk =   0.0721262
        k(   46) = (   0.3636364   0.0000000   0.5454545), wk =   0.0360631
        k(   47) = (  -0.1818182   0.7272727   0.0000000), wk =   0.0360631
        k(   48) = (   0.7272727  -0.1818182   0.9090909), wk =   0.0721262
        k(   49) = (   0.6363636  -0.0909091   0.8181818), wk =   0.0721262
        k(   50) = (   0.5454545   0.0000000   0.7272727), wk =   0.0360631
        k(   51) = (   0.8181818  -0.0909091   1.0000000), wk =   0.0360631
        k(   52) = (   0.7272727   0.0000000   0.9090909), wk =   0.0360631
        k(   53) = (   0.6363636  -0.2727273   1.0000000), wk =   0.0360631
        k(   54) = (   0.5454545  -0.1818182   0.9090909), wk =   0.0721262
        k(   55) = (   0.6363636  -0.0909091   1.0000000), wk =   0.0360631
        k(   56) = (   0.5454545   0.0000000   0.9090909), wk =   0.0360631

     Dense  grid:     1363 G-vectors     FFT dimensions: (  15,  15,  15)

     Estimated max dynamical RAM per process >       0.79 MB

     Estimated total dynamical RAM >       3.97 MB

     Initial potential from superposition of free atoms

     starting charge    2.99771, renormalised to    3.00000
     Starting wfcs are    4 randomized atomic wfcs +    2 random wfcs
     Checking if some PAW data can be deallocated... 

     total cpu time spent up to now is        0.6 secs

     Self-consistent Calculation

     iteration #  1     ecut=    20.00 Ry     beta= 0.70
     Davidson diagonalization with overlap
     ethr =  1.00E-02,  avg # of iterations =  4.7

     Threshold (ethr) on eigenvalues was too large:
     Diagonalizing with lowered threshold

     Davidson diagonalization with overlap
     ethr =  1.89E-04,  avg # of iterations =  1.9

     total cpu time spent up to now is        0.9 secs

     total energy              =     -39.50245284 Ry
     Harris-Foulkes estimate   =     -39.50395220 Ry
     estimated scf accuracy    <       0.00561829 Ry

     iteration #  2     ecut=    20.00 Ry     beta= 0.70
     Davidson diagonalization with overlap
     ethr =  1.87E-04,  avg # of iterations =  1.1

     total cpu time spent up to now is        1.0 secs

     total energy              =     -39.50243781 Ry
     Harris-Foulkes estimate   =     -39.50253640 Ry
     estimated scf accuracy    <       0.00039081 Ry

     iteration #  3     ecut=    20.00 Ry     beta= 0.70
     Davidson diagonalization with overlap
     ethr =  1.30E-05,  avg # of iterations =  1.4

     total cpu time spent up to now is        1.1 secs

     total energy              =     -39.50245760 Ry
     Harris-Foulkes estimate   =     -39.50245813 Ry
     estimated scf accuracy    <       0.00000152 Ry

     iteration #  4     ecut=    20.00 Ry     beta= 0.70
     Davidson diagonalization with overlap
     ethr =  5.05E-08,  avg # of iterations =  3.1

     total cpu time spent up to now is        1.3 secs

     total energy              =     -39.50245953 Ry
     Harris-Foulkes estimate   =     -39.50245954 Ry
     estimated scf accuracy    <       0.00000010 Ry

     iteration #  5     ecut=    20.00 Ry     beta= 0.70
     Davidson diagonalization with overlap
     ethr =  3.43E-09,  avg # of iterations =  1.0

     total cpu time spent up to now is        1.4 secs

     End of self-consistent calculation

          k = 0.0000 0.0000 0.0000 (   169 PWs)   bands (ev):

    -3.2508  20.5410  20.5410  21.8778  21.8778  21.8778

          k =-0.0909 0.0909-0.0909 (   169 PWs)   bands (ev):

    -3.0270  17.5657  19.8552  19.8552  22.5886  22.9032

          k =-0.1818 0.1818-0.1818 (   171 PWs)   bands (ev):

    -2.3574  13.9054  19.1028  19.1028  22.3659  23.7525

          k =-0.2727 0.2727-0.2727 (   162 PWs)   bands (ev):

    -1.2478  10.4717  18.6882  18.6882  22.1641  22.2251

          k =-0.3636 0.3636-0.3636 (   168 PWs)   bands (ev):

     0.2915   7.3589  18.6413  18.6413  20.7853  20.7853

          k =-0.4545 0.4545-0.4545 (   168 PWs)   bands (ev):

     2.2460   4.6155  18.9689  18.9689  19.7064  19.7064

          k = 0.0000 0.1818 0.0000 (   169 PWs)   bands (ev):

    -2.9524  18.5745  18.5745  18.9124  21.2143  24.2814

          k =-0.0909 0.2727-0.0909 (   167 PWs)   bands (ev):

    -2.4314  15.2339  17.6382  19.0031  21.5669  22.2567

          k =-0.1818 0.3636-0.1818 (   165 PWs)   bands (ev):

    -1.4691  11.7473  17.0764  18.6535  19.9604  23.7252

          k =-0.2727 0.4545-0.2727 (   164 PWs)   bands (ev):

    -0.0738   8.5363  16.8969  18.3255  18.5427  23.2725

          k =-0.3636 0.5455-0.3636 (   169 PWs)   bands (ev):

     1.7418   5.6736  17.0795  17.0968  18.7723  22.0843

          k = 0.5455-0.3636 0.5455 (   166 PWs)   bands (ev):

     3.1692   3.9837  16.2153  17.6831  19.4005  21.2613

          k = 0.4545-0.2727 0.4545 (   167 PWs)   bands (ev):

     1.0911   6.5848  15.7479  18.6448  20.4150  20.8064

          k = 0.3636-0.1818 0.3636 (   163 PWs)   bands (ev):

    -0.5863   9.5652  15.6819  19.9470  20.7628  21.7894

          k = 0.2727-0.0909 0.2727 (   166 PWs)   bands (ev):

    -1.8385  12.8559  16.0308  20.8801  21.7197  23.3709

          k = 0.1818-0.0000 0.1818 (   170 PWs)   bands (ev):

    -2.6547  16.0812  17.0682  21.1227  22.1814  23.2854

          k = 0.0000 0.3636 0.0000 (   169 PWs)   bands (ev):

    -2.0606  16.5524  16.5524  16.7341  19.5286  19.8747

          k =-0.0909 0.4545-0.0909 (   166 PWs)   bands (ev):

    -1.2480  13.3426  15.8546  17.1866  17.4340  20.4082

          k =-0.1818 0.5455-0.1818 (   166 PWs)   bands (ev):

    -0.0012  10.0949  15.5387  15.5569  17.2186  22.5454

          k =-0.2727 0.6364-0.2727 (   172 PWs)   bands (ev):

     1.6680   7.1382  14.1430  15.6083  17.3690  24.8293

          k = 0.6364-0.2727 0.6364 (   170 PWs)   bands (ev):

     3.7313   4.5532  13.1324  16.0644  17.8942  23.9085

          k = 0.5455-0.1818 0.5455 (   168 PWs)   bands (ev):

     2.3175   6.2164  12.5373  16.9058  18.8163  23.3386

          k = 0.4545-0.0909 0.4545 (   169 PWs)   bands (ev):

     0.5096   9.0106  12.3969  18.1263  20.1182  23.1103

          k = 0.3636 0.0000 0.3636 (   168 PWs)   bands (ev):

    -0.8800  11.6961  13.1202  19.7132  21.7436  22.8519

          k = 0.0000 0.5455 0.0000 (   165 PWs)   bands (ev):

    -0.5868  15.0087  15.0209  15.0209  15.0269  18.5041

          k =-0.0909 0.6364-0.0909 (   169 PWs)   bands (ev):

     0.5078  11.9625  13.0685  14.5734  15.8919  19.2219

          k =-0.1818 0.7273-0.1818 (   167 PWs)   bands (ev):

     2.0247   8.9775  11.5003  14.5129  16.1306  21.6245

          k = 0.7273-0.1818 0.7273 (   174 PWs)   bands (ev):

     3.9401   6.2947  10.3448  14.8370  16.5676  24.5639

          k = 0.6364-0.0909 0.6364 (   172 PWs)   bands (ev):

     3.9564   6.2256   9.6530  15.5473  17.3822  26.2212

          k = 0.5455 0.0000 0.5455 (   168 PWs)   bands (ev):

     2.0297   8.3823   9.8736  16.6457  18.5834  26.1392

          k = 0.0000 0.7273 0.0000 (   170 PWs)   bands (ev):

     1.4475  10.9250  13.8375  13.9972  13.9972  17.4909

          k =-0.0909 0.8182-0.0909 (   168 PWs)   bands (ev):

     2.8024   9.1980  11.1638  13.8063  15.0502  18.4685

          k = 0.8182-0.0909 0.8182 (   174 PWs)   bands (ev):

     4.5273   7.8704   8.5141  14.0004  15.5655  21.1384

          k = 0.7273 0.0000 0.7273 (   172 PWs)   bands (ev):

     5.9768   6.1766   7.6301  14.5802  16.2930  24.3597

          k = 0.0000 0.9091 0.0000 (   178 PWs)   bands (ev):

     3.9646   7.3703  13.2429  13.4858  13.4858  16.9588

          k = 0.9091-0.0000 0.9091 (   178 PWs)   bands (ev):

     5.0767   6.4067  10.8828  13.5505  14.7645  18.2059

          k =-0.1818 0.3636 0.0000 (   164 PWs)   bands (ev):

    -1.7644  13.9026  15.1070  19.7397  19.8695  21.6397

          k =-0.2727 0.4545-0.0909 (   166 PWs)   bands (ev):

    -0.6598  10.9411  14.2282  17.8637  20.0939  23.1343

          k =-0.3636 0.5455-0.1818 (   171 PWs)   bands (ev):

     0.8728   7.8956  14.1158  16.3438  20.1496  22.4108

          k = 0.5455-0.3636 0.7273 (   167 PWs)   bands (ev):

     2.8178   5.1766  14.4216  15.2290  20.4941  21.3543

          k =-0.1818 0.5455 0.0000 (   169 PWs)   bands (ev):

    -0.2939  12.2515  13.5265  15.3313  18.3122  20.3549

          k =-0.2727 0.6364-0.0909 (   173 PWs)   bands (ev):

     1.0890   9.5553  12.8417  13.6835  18.8566  22.1915

          k = 0.6364-0.2727 0.8182 (   169 PWs)   bands (ev):

     2.8859   6.7743  12.2685  13.1236  19.2067  24.0305

          k = 0.5455-0.1818 0.7273 (   170 PWs)   bands (ev):

     4.2965   5.1032  11.4337  13.6820  19.8565  23.3189

          k = 0.4545-0.0909 0.6364 (   169 PWs)   bands (ev):

     2.2446   7.6196  11.0291  14.6823  20.8550  22.7931

          k = 0.3636 0.0000 0.5455 (   170 PWs)   bands (ev):

     0.5820  10.0388  11.5102  16.0852  22.0897  22.1295

          k =-0.1818 0.7273 0.0000 (   172 PWs)   bands (ev):

     1.7363  11.1471  11.1640  12.5482  17.2359  19.4074

          k = 0.7273-0.1818 0.9091 (   169 PWs)   bands (ev):

     3.3734   8.7024   9.7868  12.1283  18.0690  21.5113

          k = 0.6364-0.0909 0.8182 (   173 PWs)   bands (ev):

     5.3583   6.2152   8.8105  12.5414  18.6939  24.4850

          k = 0.5455 0.0000 0.7273 (   173 PWs)   bands (ev):

     4.0254   7.2779   8.7443  13.4063  19.6139  25.3662

          k = 0.8182-0.0909 1.0000 (   171 PWs)   bands (ev):

     4.2464   7.6484  10.5946  11.9820  16.6927  18.9088

          k = 0.7273 0.0000 0.9091 (   172 PWs)   bands (ev):

     5.6264   6.9652   8.4842  11.8471  17.8000  21.2708

          k = 0.6364-0.2727 1.0000 (   167 PWs)   bands (ev):

     2.5995   8.9356  10.3711  12.1146  21.0827  22.5650

          k = 0.5455-0.1818 0.9091 (   172 PWs)   bands (ev):

     4.5064   6.7809  10.1146  11.0167  21.9920  22.9055

          k = 0.6364-0.0909 1.0000 (   166 PWs)   bands (ev):

     5.0892   8.3843   8.4388   9.9752  20.5544  22.2289

          k = 0.5455 0.0000 0.9091 (   171 PWs)   bands (ev):

     6.4731   6.7268   8.1371  10.0136  21.7910  24.6069

     the Fermi energy is     7.8734 ev

!    total energy              =     -39.50245954 Ry
     Harris-Foulkes estimate   =     -39.50245953 Ry
     estimated scf accuracy    <          6.5E-09 Ry

     total all-electron energy =      -485.645240 Ry

     The total energy is the sum of the following terms:

     one-electron contribution =       3.15166754 Ry
     hartree contribution      =       0.00606459 Ry
     xc contribution           =      -2.58808027 Ry
     ewald contribution        =      -5.39395546 Ry
     one-center paw contrib.   =     -34.67783879 Ry
     smearing contrib. (-TS)   =      -0.00031714 Ry

     convergence has been achieved in   5 iterations

     Forces acting on atoms (cartesian axes, Ry/au):

     atom    1 type  1   force =     0.00000000    0.00000000    0.00000000

     Total force =     0.000000     Total SCF correction =     0.000000


     Computing stress (Cartesian axis) and pressure

          total   stress  (Ry/bohr**3)                   (kbar)     P=   -4.07
  -0.00002770   0.00000000   0.00000000         -4.07      0.00      0.00
  -0.00000000  -0.00002770   0.00000000         -0.00     -4.07      0.00
  -0.00000000   0.00000000  -0.00002770         -0.00      0.00     -4.07


     Writing output data file Al.save/

     init_run     :      0.10s CPU      0.12s WALL (       1 calls)
     electrons    :      0.66s CPU      0.79s WALL (       1 calls)
     forces       :      0.01s CPU      0.01s WALL (       1 calls)
     stress       :      0.02s CPU      0.03s WALL (       1 calls)

     Called by init_run:
     wfcinit      :      0.03s CPU      0.04s WALL (       1 calls)
     potinit      :      0.02s CPU      0.03s WALL (       1 calls)
     hinit0       :      0.05s CPU      0.05s WALL (       1 calls)

     Called by electrons:
     c_bands      :      0.46s CPU      0.55s WALL (       6 calls)
     sum_band     :      0.08s CPU      0.09s WALL (       6 calls)
     v_of_rho     :      0.00s CPU      0.00s WALL (       6 calls)
     newd         :      0.00s CPU      0.00s WALL (       6 calls)
     PAW_pot      :      0.13s CPU      0.17s WALL (       6 calls)
     mix_rho      :      0.00s CPU      0.00s WALL (       6 calls)

     Called by c_bands:
     init_us_2    :      0.01s CPU      0.01s WALL (     840 calls)
     cegterg      :      0.44s CPU      0.52s WALL (     336 calls)

     Called by sum_band:
     sum_band:bec :      0.00s CPU      0.00s WALL (     336 calls)
     addusdens    :      0.00s CPU      0.00s WALL (       6 calls)

     Called by *egterg:
     h_psi        :      0.30s CPU      0.37s WALL (    1130 calls)
     s_psi        :      0.01s CPU      0.01s WALL (    1130 calls)
     g_psi        :      0.00s CPU      0.00s WALL (     738 calls)
     cdiaghg      :      0.08s CPU      0.09s WALL (    1018 calls)

     Called by h_psi:
     h_psi:pot    :      0.30s CPU      0.36s WALL (    1130 calls)
     h_psi:calbec :      0.02s CPU      0.03s WALL (    1130 calls)
     vloc_psi     :      0.26s CPU      0.32s WALL (    1130 calls)
     add_vuspsi   :      0.01s CPU      0.01s WALL (    1130 calls)

     General routines
     calbec       :      0.03s CPU      0.03s WALL (    1746 calls)
     fft          :      0.01s CPU      0.01s WALL (      93 calls)
     ffts         :      0.00s CPU      0.00s WALL (       6 calls)
     fftw         :      0.30s CPU      0.35s WALL (   12688 calls)

     Parallel routines
     fft_scatt_xy :      0.03s CPU      0.04s WALL (   12787 calls)
     fft_scatt_yz :      0.14s CPU      0.16s WALL (   12787 calls)

     PWSCF        :     1.31s CPU         1.50s WALL


   This run was terminated on:  19:55:25  25Mar2024            

=------------------------------------------------------------------------------=
   JOB DONE.
=------------------------------------------------------------------------------=
