
     Program PWSCF v.6.3MaX starts on 25Mar2024 at 20: 5:34 

     This program is part of the open-source Quantum ESPRESSO suite
     for quantum simulation of materials; please cite
         "P. Giannozzi et al., J. Phys.:Condens. Matter 21 395502 (2009);
         "P. Giannozzi et al., J. Phys.:Condens. Matter 29 465901 (2017);
          URL http://www.quantum-espresso.org", 
     in publications or presentations arising from this work. More details at
     http://www.quantum-espresso.org/quote

     Parallel version (MPI), running on     5 processors

     MPI processes distributed on     1 nodes
     R & G space division:  proc/nbgrp/npool/nimage =       5
     Waiting for input...
     Reading input from standard input

     Current dimensions of program PWSCF are:
     Max number of different atomic species (ntypx) = 10
     Max number of k-points (npk) =  40000
     Max angular momentum in pseudopotentials (lmaxx) =  3
               file Al.pbe-nl-kjpaw_psl.1.0.0.UPF: wavefunction(s)  3S 3P renormalized

     Subspace diagonalization in iterative solution of the eigenvalue problem:
     a serial algorithm will be used


     Parallelization info
     --------------------
     sticks:   dense  smooth     PW     G-vecs:    dense   smooth      PW
     Min         103     103     32                 1564     1564     290
     Max         104     104     33                 1565     1565     293
     Sum         517     517    163                 7823     7823    1459



     bravais-lattice index     =            2
     lattice parameter (alat)  =       7.6500  a.u.
     unit-cell volume          =     111.9243 (a.u.)^3
     number of atoms/cell      =            1
     number of atomic types    =            1
     number of electrons       =         3.00
     number of Kohn-Sham states=            6
     kinetic-energy cutoff     =      65.0000  Ry
     charge density cutoff     =     260.0000  Ry
     convergence threshold     =      1.0E-08
     mixing beta               =       0.7000
     number of iterations used =            8  plain     mixing
     Exchange-correlation      = SLA PW PBX PBC ( 1  4  3  4 0 0)

     celldm(1)=   7.650000  celldm(2)=   0.000000  celldm(3)=   0.000000
     celldm(4)=   0.000000  celldm(5)=   0.000000  celldm(6)=   0.000000

     crystal axes: (cart. coord. in units of alat)
               a(1) = (  -0.500000   0.000000   0.500000 )  
               a(2) = (   0.000000   0.500000   0.500000 )  
               a(3) = (  -0.500000   0.500000   0.000000 )  

     reciprocal axes: (cart. coord. in units 2 pi/alat)
               b(1) = ( -1.000000 -1.000000  1.000000 )  
               b(2) = (  1.000000  1.000000  1.000000 )  
               b(3) = ( -1.000000  1.000000 -1.000000 )  


     PseudoPot. # 1 for Al read from file:
     /home/lorenzo/pseudos/Al/Al.pbe-nl-kjpaw_psl.1.0.0.UPF
     MD5 check sum: 8cf6d98cc7ef3f4b729b574060f3a10f
     Pseudo is Projector augmented-wave + core cor, Zval =  3.0
     Generated using "atomic" code by A. Dal Corso v.6.3
     Shape of augmentation charge: PSQ
     Using radial grid of 1135 points,  4 beta functions with: 
                l(1) =   0
                l(2) =   0
                l(3) =   1
                l(4) =   1
     Q(r) pseudized with 0 coefficients 


     atomic species   valence    mass     pseudopotential
        Al             3.00    26.98150     Al( 1.00)

     48 Sym. Ops., with inversion, found



   Cartesian axes

     site n.     atom                  positions (alat units)
         1           Al  tau(   1) = (   0.0000000   0.0000000   0.0000000  )

     number of k points=    56  gaussian smearing, width (Ry)=  0.0100
                       cart. coord. in units 2pi/alat
        k(    1) = (   0.0000000   0.0000000   0.0000000), wk =   0.0015026
        k(    2) = (  -0.0909091   0.0909091  -0.0909091), wk =   0.0120210
        k(    3) = (  -0.1818182   0.1818182  -0.1818182), wk =   0.0120210
        k(    4) = (  -0.2727273   0.2727273  -0.2727273), wk =   0.0120210
        k(    5) = (  -0.3636364   0.3636364  -0.3636364), wk =   0.0120210
        k(    6) = (  -0.4545455   0.4545455  -0.4545455), wk =   0.0120210
        k(    7) = (   0.0000000   0.1818182   0.0000000), wk =   0.0090158
        k(    8) = (  -0.0909091   0.2727273  -0.0909091), wk =   0.0360631
        k(    9) = (  -0.1818182   0.3636364  -0.1818182), wk =   0.0360631
        k(   10) = (  -0.2727273   0.4545455  -0.2727273), wk =   0.0360631
        k(   11) = (  -0.3636364   0.5454545  -0.3636364), wk =   0.0360631
        k(   12) = (   0.5454545  -0.3636364   0.5454545), wk =   0.0360631
        k(   13) = (   0.4545455  -0.2727273   0.4545455), wk =   0.0360631
        k(   14) = (   0.3636364  -0.1818182   0.3636364), wk =   0.0360631
        k(   15) = (   0.2727273  -0.0909091   0.2727273), wk =   0.0360631
        k(   16) = (   0.1818182  -0.0000000   0.1818182), wk =   0.0180316
        k(   17) = (   0.0000000   0.3636364   0.0000000), wk =   0.0090158
        k(   18) = (  -0.0909091   0.4545455  -0.0909091), wk =   0.0360631
        k(   19) = (  -0.1818182   0.5454545  -0.1818182), wk =   0.0360631
        k(   20) = (  -0.2727273   0.6363636  -0.2727273), wk =   0.0360631
        k(   21) = (   0.6363636  -0.2727273   0.6363636), wk =   0.0360631
        k(   22) = (   0.5454545  -0.1818182   0.5454545), wk =   0.0360631
        k(   23) = (   0.4545455  -0.0909091   0.4545455), wk =   0.0360631
        k(   24) = (   0.3636364   0.0000000   0.3636364), wk =   0.0180316
        k(   25) = (   0.0000000   0.5454545   0.0000000), wk =   0.0090158
        k(   26) = (  -0.0909091   0.6363636  -0.0909091), wk =   0.0360631
        k(   27) = (  -0.1818182   0.7272727  -0.1818182), wk =   0.0360631
        k(   28) = (   0.7272727  -0.1818182   0.7272727), wk =   0.0360631
        k(   29) = (   0.6363636  -0.0909091   0.6363636), wk =   0.0360631
        k(   30) = (   0.5454545   0.0000000   0.5454545), wk =   0.0180316
        k(   31) = (   0.0000000   0.7272727   0.0000000), wk =   0.0090158
        k(   32) = (  -0.0909091   0.8181818  -0.0909091), wk =   0.0360631
        k(   33) = (   0.8181818  -0.0909091   0.8181818), wk =   0.0360631
        k(   34) = (   0.7272727   0.0000000   0.7272727), wk =   0.0180316
        k(   35) = (   0.0000000   0.9090909   0.0000000), wk =   0.0090158
        k(   36) = (   0.9090909  -0.0000000   0.9090909), wk =   0.0180316
        k(   37) = (  -0.1818182   0.3636364   0.0000000), wk =   0.0360631
        k(   38) = (  -0.2727273   0.4545455  -0.0909091), wk =   0.0721262
        k(   39) = (  -0.3636364   0.5454545  -0.1818182), wk =   0.0721262
        k(   40) = (   0.5454545  -0.3636364   0.7272727), wk =   0.0721262
        k(   41) = (  -0.1818182   0.5454545   0.0000000), wk =   0.0360631
        k(   42) = (  -0.2727273   0.6363636  -0.0909091), wk =   0.0721262
        k(   43) = (   0.6363636  -0.2727273   0.8181818), wk =   0.0721262
        k(   44) = (   0.5454545  -0.1818182   0.7272727), wk =   0.0721262
        k(   45) = (   0.4545455  -0.0909091   0.6363636), wk =   0.0721262
        k(   46) = (   0.3636364   0.0000000   0.5454545), wk =   0.0360631
        k(   47) = (  -0.1818182   0.7272727   0.0000000), wk =   0.0360631
        k(   48) = (   0.7272727  -0.1818182   0.9090909), wk =   0.0721262
        k(   49) = (   0.6363636  -0.0909091   0.8181818), wk =   0.0721262
        k(   50) = (   0.5454545   0.0000000   0.7272727), wk =   0.0360631
        k(   51) = (   0.8181818  -0.0909091   1.0000000), wk =   0.0360631
        k(   52) = (   0.7272727   0.0000000   0.9090909), wk =   0.0360631
        k(   53) = (   0.6363636  -0.2727273   1.0000000), wk =   0.0360631
        k(   54) = (   0.5454545  -0.1818182   0.9090909), wk =   0.0721262
        k(   55) = (   0.6363636  -0.0909091   1.0000000), wk =   0.0360631
        k(   56) = (   0.5454545   0.0000000   0.9090909), wk =   0.0360631

     Dense  grid:     7823 G-vectors     FFT dimensions: (  27,  27,  27)

     Estimated max dynamical RAM per process >       3.65 MB

     Estimated total dynamical RAM >      18.26 MB

     Initial potential from superposition of free atoms

     starting charge    2.99771, renormalised to    3.00000
     Starting wfcs are    4 randomized atomic wfcs +    2 random wfcs
     Checking if some PAW data can be deallocated... 

     total cpu time spent up to now is        0.7 secs

     Self-consistent Calculation

     iteration #  1     ecut=    65.00 Ry     beta= 0.70
     Davidson diagonalization with overlap
     ethr =  1.00E-02,  avg # of iterations =  4.8

     Threshold (ethr) on eigenvalues was too large:
     Diagonalizing with lowered threshold

     Davidson diagonalization with overlap
     ethr =  1.90E-04,  avg # of iterations =  2.0

     total cpu time spent up to now is        1.6 secs

     total energy              =     -39.50341137 Ry
     Harris-Foulkes estimate   =     -39.50490431 Ry
     estimated scf accuracy    <       0.00563245 Ry

     iteration #  2     ecut=    65.00 Ry     beta= 0.70
     Davidson diagonalization with overlap
     ethr =  1.88E-04,  avg # of iterations =  1.0

     total cpu time spent up to now is        1.9 secs

     total energy              =     -39.50340904 Ry
     Harris-Foulkes estimate   =     -39.50350389 Ry
     estimated scf accuracy    <       0.00038873 Ry

     iteration #  3     ecut=    65.00 Ry     beta= 0.70
     Davidson diagonalization with overlap
     ethr =  1.30E-05,  avg # of iterations =  1.9

     total cpu time spent up to now is        2.3 secs

     total energy              =     -39.50343049 Ry
     Harris-Foulkes estimate   =     -39.50343109 Ry
     estimated scf accuracy    <       0.00000142 Ry

     iteration #  4     ecut=    65.00 Ry     beta= 0.70
     Davidson diagonalization with overlap
     ethr =  4.74E-08,  avg # of iterations =  2.9

     total cpu time spent up to now is        2.7 secs

     total energy              =     -39.50343252 Ry
     Harris-Foulkes estimate   =     -39.50343250 Ry
     estimated scf accuracy    <       0.00000009 Ry

     iteration #  5     ecut=    65.00 Ry     beta= 0.70
     Davidson diagonalization with overlap
     ethr =  3.12E-09,  avg # of iterations =  1.2

     total cpu time spent up to now is        3.1 secs

     total energy              =     -39.50343251 Ry
     Harris-Foulkes estimate   =     -39.50343253 Ry
     estimated scf accuracy    <       0.00000004 Ry

     iteration #  6     ecut=    65.00 Ry     beta= 0.70
     Davidson diagonalization with overlap
     ethr =  1.19E-09,  avg # of iterations =  1.0

     total cpu time spent up to now is        3.4 secs

     End of self-consistent calculation

          k = 0.0000 0.0000 0.0000 (   965 PWs)   bands (ev):

    -3.2522  20.4385  20.4385  21.8755  21.8756  21.8756

          k =-0.0909 0.0909-0.0909 (   965 PWs)   bands (ev):

    -3.0284  17.5197  19.7897  19.7897  22.5587  22.8606

          k =-0.1818 0.1818-0.1818 (   980 PWs)   bands (ev):

    -2.3589  13.8776  19.0566  19.0566  22.3302  23.6805

          k =-0.2727 0.2727-0.2727 (   980 PWs)   bands (ev):

    -1.2499  10.4535  18.6480  18.6480  22.1199  22.1456

          k =-0.3636 0.3636-0.3636 (   984 PWs)   bands (ev):

     0.2888   7.3504  18.6039  18.6039  20.7208  20.7208

          k =-0.4545 0.4545-0.4545 (   987 PWs)   bands (ev):

     2.2426   4.6102  18.9320  18.9320  19.6444  19.6444

          k = 0.0000 0.1818 0.0000 (   957 PWs)   bands (ev):

    -2.9538  18.5289  18.5289  18.8354  21.2106  24.2122

          k =-0.0909 0.2727-0.0909 (   974 PWs)   bands (ev):

    -2.4331  15.1991  17.6037  18.9462  21.5452  22.1776

          k =-0.1818 0.3636-0.1818 (   983 PWs)   bands (ev):

    -1.4710  11.7256  17.0479  18.6053  19.9094  23.6780

          k =-0.2727 0.4545-0.2727 (   991 PWs)   bands (ev):

    -0.0762   8.5247  16.8688  18.2678  18.5115  23.1833

          k =-0.3636 0.5455-0.3636 (   999 PWs)   bands (ev):

     1.7386   5.6672  17.0427  17.0688  18.7304  22.0101

          k = 0.5455-0.3636 0.5455 (   992 PWs)   bands (ev):

     3.1655   3.9785  16.1847  17.6488  19.3552  21.1893

          k = 0.4545-0.2727 0.4545 (   989 PWs)   bands (ev):

     1.0882   6.5773  15.7201  18.6061  20.3640  20.7392

          k = 0.3636-0.1818 0.3636 (   986 PWs)   bands (ev):

    -0.5885   9.5496  15.6545  19.9089  20.6803  21.7327

          k = 0.2727-0.0909 0.2727 (   978 PWs)   bands (ev):

    -1.8403  12.8304  16.0026  20.8276  21.6411  23.3311

          k = 0.1818-0.0000 0.1818 (   973 PWs)   bands (ev):

    -2.6560  16.0393  17.0399  21.0175  22.1795  23.2608

          k = 0.0000 0.3636 0.0000 (   978 PWs)   bands (ev):

    -2.0623  16.5281  16.5281  16.6688  19.4838  19.8515

          k =-0.0909 0.4545-0.0909 (   989 PWs)   bands (ev):

    -1.2499  13.3148  15.8342  17.1291  17.4028  20.3780

          k =-0.1818 0.5455-0.1818 (   990 PWs)   bands (ev):

    -0.0036  10.0777  15.5223  15.5230  17.1749  22.4976

          k =-0.2727 0.6364-0.2727 (   994 PWs)   bands (ev):

     1.6650   7.1290  14.1188  15.5921  17.3265  24.7333

          k = 0.6364-0.2727 0.6364 (   992 PWs)   bands (ev):

     3.7272   4.5476  13.1112  16.0441  17.8521  23.8150

          k = 0.5455-0.1818 0.5455 (   994 PWs)   bands (ev):

     2.3139   6.2095  12.5185  16.8782  18.7721  23.2472

          k = 0.4545-0.0909 0.4545 (   985 PWs)   bands (ev):

     0.5070   8.9967  12.3808  18.0912  20.0696  23.0236

          k = 0.3636 0.0000 0.3636 (   985 PWs)   bands (ev):

    -0.8821  11.6719  13.1060  19.6675  21.6898  22.7448

          k = 0.0000 0.5455 0.0000 (   998 PWs)   bands (ev):

    -0.5889  14.9453  14.9947  15.0068  15.0068  18.4833

          k =-0.0909 0.6364-0.0909 (   998 PWs)   bands (ev):

     0.5055  11.9383  13.0471  14.5638  15.8463  19.1948

          k =-0.1818 0.7273-0.1818 (   993 PWs)   bands (ev):

     2.0214   8.9632  11.4824  14.5038  16.0836  21.5766

          k = 0.7273-0.1818 0.7273 (   989 PWs)   bands (ev):

     3.9359   6.2868  10.3302  14.8264  16.5240  24.4962

          k = 0.6364-0.0909 0.6364 (   989 PWs)   bands (ev):

     3.9518   6.2183   9.6404  15.5323  17.3383  26.1133

          k = 0.5455 0.0000 0.5455 (   991 PWs)   bands (ev):

     2.0262   8.3695   9.8617  16.6215  18.5359  26.0414

          k = 0.0000 0.7273 0.0000 (  1006 PWs)   bands (ev):

     1.4446  10.9081  13.7770  13.9909  13.9909  17.4668

          k =-0.0909 0.8182-0.0909 (   992 PWs)   bands (ev):

     2.7991   9.1838  11.1439  13.8015  15.0058  18.4386

          k = 0.8182-0.0909 0.8182 (   993 PWs)   bands (ev):

     4.5233   7.8583   8.5031  13.9949  15.5206  21.0941

          k = 0.7273 0.0000 0.7273 (   989 PWs)   bands (ev):

     5.9691   6.1711   7.6193  14.5714  16.2476  24.2905

          k = 0.0000 0.9091 0.0000 (   990 PWs)   bands (ev):

     3.9611   7.3586  13.1893  13.4832  13.4832  16.9308

          k = 0.9091-0.0000 0.9091 (   993 PWs)   bands (ev):

     5.0744   6.3969  10.8639  13.5476  14.7234  18.1797

          k =-0.1818 0.3636 0.0000 (   979 PWs)   bands (ev):

    -1.7663  13.8685  15.0871  19.6924  19.8020  21.6080

          k =-0.2727 0.4545-0.0909 (   987 PWs)   bands (ev):

    -0.6619  10.9212  14.2073  17.8255  20.0387  23.0930

          k =-0.3636 0.5455-0.1818 (   991 PWs)   bands (ev):

     0.8701   7.8852  14.0942  16.3142  20.1014  22.3436

          k = 0.5455-0.3636 0.7273 (   988 PWs)   bands (ev):

     2.8140   5.1706  14.3953  15.2075  20.4526  21.2775

          k =-0.1818 0.5455 0.0000 (   991 PWs)   bands (ev):

    -0.2960  12.2246  13.5115  15.3046  18.2589  20.3292

          k =-0.2727 0.6364-0.0909 (   993 PWs)   bands (ev):

     1.0863   9.5407  12.8221  13.6673  18.8085  22.1498

          k = 0.6364-0.2727 0.8182 (   990 PWs)   bands (ev):

     2.8821   6.7662  12.2459  13.1110  19.1607  23.9597

          k = 0.5455-0.1818 0.7273 (   991 PWs)   bands (ev):

     4.2919   5.0975  11.4164  13.6648  19.8098  23.2386

          k = 0.4545-0.0909 0.6364 (   994 PWs)   bands (ev):

     2.2410   7.6089  11.0144  14.6610  20.8068  22.7119

          k = 0.3636 0.0000 0.5455 (   993 PWs)   bands (ev):

     0.5794  10.0212  11.4981  16.0563  22.0146  22.0859

          k =-0.1818 0.7273 0.0000 (  1004 PWs)   bands (ev):

     1.7333  11.1242  11.1451  12.5424  17.1886  19.3803

          k = 0.7273-0.1818 0.9091 (  1001 PWs)   bands (ev):

     3.3694   8.6880   9.7728  12.1167  18.0216  21.4662

          k = 0.6364-0.0909 0.8182 (   994 PWs)   bands (ev):

     5.3527   6.2079   8.7992  12.5275  18.6497  24.4216

          k = 0.5455 0.0000 0.7273 (   992 PWs)   bands (ev):

     4.0208   7.2697   8.7333  13.3902  19.5669  25.2766

          k = 0.8182-0.0909 1.0000 (   991 PWs)   bands (ev):

     4.2427   7.6369  10.5731  11.9759  16.6484  18.8811

          k = 0.7273 0.0000 0.9091 (   994 PWs)   bands (ev):

     5.6225   6.9540   8.4719  11.8356  17.7549  21.2284

          k = 0.6364-0.2727 1.0000 (   999 PWs)   bands (ev):

     2.5959   8.9203  10.3579  12.1004  21.0101  22.5337

          k = 0.5455-0.1818 0.9091 (   995 PWs)   bands (ev):

     4.5016   6.7730  10.0981  11.0073  21.9374  22.8307

          k = 0.6364-0.0909 1.0000 (   992 PWs)   bands (ev):

     5.0839   8.3699   8.4249   9.9691  20.4851  22.1873

          k = 0.5455 0.0000 0.9091 (   990 PWs)   bands (ev):

     6.4655   6.7202   8.1260  10.0038  21.7284  24.5536

     the Fermi energy is     7.8625 ev

!    total energy              =     -39.50343251 Ry
     Harris-Foulkes estimate   =     -39.50343251 Ry
     estimated scf accuracy    <          5.1E-11 Ry

     total all-electron energy =      -485.646213 Ry

     The total energy is the sum of the following terms:

     one-electron contribution =       3.15003082 Ry
     hartree contribution      =       0.00608486 Ry
     xc contribution           =      -2.58812938 Ry
     ewald contribution        =      -5.39395538 Ry
     one-center paw contrib.   =     -34.67714666 Ry
     smearing contrib. (-TS)   =      -0.00031678 Ry

     convergence has been achieved in   6 iterations

     Forces acting on atoms (cartesian axes, Ry/au):

     atom    1 type  1   force =     0.00000000    0.00000000    0.00000000

     Total force =     0.000000     Total SCF correction =     0.000000


     Computing stress (Cartesian axis) and pressure

          total   stress  (Ry/bohr**3)                   (kbar)     P=   -3.98
  -0.00002707   0.00000000  -0.00000000         -3.98      0.00     -0.00
   0.00000000  -0.00002707  -0.00000000          0.00     -3.98     -0.00
  -0.00000000   0.00000000  -0.00002707         -0.00      0.00     -3.98


     Writing output data file Al.save/

     init_run     :      0.25s CPU      0.26s WALL (       1 calls)
     electrons    :      2.52s CPU      2.70s WALL (       1 calls)
     forces       :      0.03s CPU      0.03s WALL (       1 calls)
     stress       :      0.16s CPU      0.16s WALL (       1 calls)

     Called by init_run:
     wfcinit      :      0.11s CPU      0.12s WALL (       1 calls)
     potinit      :      0.04s CPU      0.04s WALL (       1 calls)
     hinit0       :      0.09s CPU      0.09s WALL (       1 calls)

     Called by electrons:
     c_bands      :      1.93s CPU      2.06s WALL (       7 calls)
     sum_band     :      0.38s CPU      0.40s WALL (       7 calls)
     v_of_rho     :      0.03s CPU      0.03s WALL (       7 calls)
     newd         :      0.02s CPU      0.02s WALL (       7 calls)
     PAW_pot      :      0.18s CPU      0.22s WALL (       7 calls)
     mix_rho      :      0.00s CPU      0.00s WALL (       7 calls)

     Called by c_bands:
     init_us_2    :      0.07s CPU      0.07s WALL (     952 calls)
     cegterg      :      1.85s CPU      1.97s WALL (     392 calls)

     Called by sum_band:
     sum_band:bec :      0.00s CPU      0.00s WALL (     392 calls)
     addusdens    :      0.01s CPU      0.01s WALL (       7 calls)

     Called by *egterg:
     h_psi        :      1.59s CPU      1.69s WALL (    1278 calls)
     s_psi        :      0.02s CPU      0.03s WALL (    1278 calls)
     g_psi        :      0.01s CPU      0.01s WALL (     830 calls)
     cdiaghg      :      0.11s CPU      0.12s WALL (    1166 calls)

     Called by h_psi:
     h_psi:pot    :      1.58s CPU      1.68s WALL (    1278 calls)
     h_psi:calbec :      0.07s CPU      0.07s WALL (    1278 calls)
     vloc_psi     :      1.48s CPU      1.57s WALL (    1278 calls)
     add_vuspsi   :      0.03s CPU      0.03s WALL (    1278 calls)

     General routines
     calbec       :      0.12s CPU      0.12s WALL (    1950 calls)
     fft          :      0.03s CPU      0.03s WALL (     104 calls)
     ffts         :      0.00s CPU      0.00s WALL (       7 calls)
     fftw         :      1.68s CPU      1.77s WALL (   14568 calls)

     Parallel routines
     fft_scatt_xy :      0.13s CPU      0.14s WALL (   14679 calls)
     fft_scatt_yz :      0.55s CPU      0.58s WALL (   14679 calls)

     PWSCF        :     3.49s CPU         3.80s WALL


   This run was terminated on:  20: 5:38  25Mar2024            

=------------------------------------------------------------------------------=
   JOB DONE.
=------------------------------------------------------------------------------=
