
     Program PWSCF v.6.3MaX starts on 25Mar2024 at 20: 6:30 

     This program is part of the open-source Quantum ESPRESSO suite
     for quantum simulation of materials; please cite
         "P. Giannozzi et al., J. Phys.:Condens. Matter 21 395502 (2009);
         "P. Giannozzi et al., J. Phys.:Condens. Matter 29 465901 (2017);
          URL http://www.quantum-espresso.org", 
     in publications or presentations arising from this work. More details at
     http://www.quantum-espresso.org/quote

     Parallel version (MPI), running on     5 processors

     MPI processes distributed on     1 nodes
     R & G space division:  proc/nbgrp/npool/nimage =       5
     Waiting for input...
     Reading input from standard input

     Current dimensions of program PWSCF are:
     Max number of different atomic species (ntypx) = 10
     Max number of k-points (npk) =  40000
     Max angular momentum in pseudopotentials (lmaxx) =  3
               file Al.pbe-n-kjpaw_psl.1.0.0.UPF: wavefunction(s)  3S 3P renormalized

     Subspace diagonalization in iterative solution of the eigenvalue problem:
     a serial algorithm will be used


     Parallelization info
     --------------------
     sticks:   dense  smooth     PW     G-vecs:    dense   smooth      PW
     Min         103     103     32                 1564     1564     280
     Max         104     104     33                 1565     1565     283
     Sum         517     517    163                 7823     7823    1411



     bravais-lattice index     =            2
     lattice parameter (alat)  =       7.6500  a.u.
     unit-cell volume          =     111.9243 (a.u.)^3
     number of atoms/cell      =            1
     number of atomic types    =            1
     number of electrons       =         3.00
     number of Kohn-Sham states=            6
     kinetic-energy cutoff     =      65.0000  Ry
     charge density cutoff     =     260.0000  Ry
     convergence threshold     =      1.0E-08
     mixing beta               =       0.7000
     number of iterations used =            8  plain     mixing
     Exchange-correlation      = SLA PW PBX PBC ( 1  4  3  4 0 0)

     celldm(1)=   7.650000  celldm(2)=   0.000000  celldm(3)=   0.000000
     celldm(4)=   0.000000  celldm(5)=   0.000000  celldm(6)=   0.000000

     crystal axes: (cart. coord. in units of alat)
               a(1) = (  -0.500000   0.000000   0.500000 )  
               a(2) = (   0.000000   0.500000   0.500000 )  
               a(3) = (  -0.500000   0.500000   0.000000 )  

     reciprocal axes: (cart. coord. in units 2 pi/alat)
               b(1) = ( -1.000000 -1.000000  1.000000 )  
               b(2) = (  1.000000  1.000000  1.000000 )  
               b(3) = ( -1.000000  1.000000 -1.000000 )  


     PseudoPot. # 1 for Al read from file:
     /home/lorenzo/pseudos/Al/Al.pbe-n-kjpaw_psl.1.0.0.UPF
     MD5 check sum: 502b6b27b9c6270cab5dd1084b96fa6d
     Pseudo is Projector augmented-wave + core cor, Zval =  3.0
     Generated using "atomic" code by A. Dal Corso v.6.3
     Shape of augmentation charge: PSQ
     Using radial grid of 1135 points,  6 beta functions with: 
                l(1) =   0
                l(2) =   0
                l(3) =   1
                l(4) =   1
                l(5) =   2
                l(6) =   2
     Q(r) pseudized with 0 coefficients 


     atomic species   valence    mass     pseudopotential
        Al             3.00    26.98150     Al( 1.00)

     48 Sym. Ops., with inversion, found



   Cartesian axes

     site n.     atom                  positions (alat units)
         1           Al  tau(   1) = (   0.0000000   0.0000000   0.0000000  )

     number of k points=    35  gaussian smearing, width (Ry)=  0.0100
                       cart. coord. in units 2pi/alat
        k(    1) = (   0.0000000   0.0000000   0.0000000), wk =   0.0027435
        k(    2) = (  -0.1111111   0.1111111  -0.1111111), wk =   0.0219479
        k(    3) = (  -0.2222222   0.2222222  -0.2222222), wk =   0.0219479
        k(    4) = (  -0.3333333   0.3333333  -0.3333333), wk =   0.0219479
        k(    5) = (  -0.4444444   0.4444444  -0.4444444), wk =   0.0219479
        k(    6) = (   0.0000000   0.2222222   0.0000000), wk =   0.0164609
        k(    7) = (  -0.1111111   0.3333333  -0.1111111), wk =   0.0658436
        k(    8) = (  -0.2222222   0.4444444  -0.2222222), wk =   0.0658436
        k(    9) = (  -0.3333333   0.5555556  -0.3333333), wk =   0.0658436
        k(   10) = (   0.5555556  -0.3333333   0.5555556), wk =   0.0658436
        k(   11) = (   0.4444444  -0.2222222   0.4444444), wk =   0.0658436
        k(   12) = (   0.3333333  -0.1111111   0.3333333), wk =   0.0658436
        k(   13) = (   0.2222222  -0.0000000   0.2222222), wk =   0.0329218
        k(   14) = (   0.0000000   0.4444444   0.0000000), wk =   0.0164609
        k(   15) = (  -0.1111111   0.5555556  -0.1111111), wk =   0.0658436
        k(   16) = (  -0.2222222   0.6666667  -0.2222222), wk =   0.0658436
        k(   17) = (   0.6666667  -0.2222222   0.6666667), wk =   0.0658436
        k(   18) = (   0.5555556  -0.1111111   0.5555556), wk =   0.0658436
        k(   19) = (   0.4444444   0.0000000   0.4444444), wk =   0.0329218
        k(   20) = (   0.0000000   0.6666667   0.0000000), wk =   0.0164609
        k(   21) = (  -0.1111111   0.7777778  -0.1111111), wk =   0.0658436
        k(   22) = (   0.7777778  -0.1111111   0.7777778), wk =   0.0658436
        k(   23) = (   0.6666667  -0.0000000   0.6666667), wk =   0.0329218
        k(   24) = (   0.0000000   0.8888889   0.0000000), wk =   0.0164609
        k(   25) = (   0.8888889   0.0000000   0.8888889), wk =   0.0329218
        k(   26) = (  -0.2222222   0.4444444   0.0000000), wk =   0.0658436
        k(   27) = (  -0.3333333   0.5555556  -0.1111111), wk =   0.1316872
        k(   28) = (   0.5555556  -0.3333333   0.7777778), wk =   0.1316872
        k(   29) = (  -0.2222222   0.6666667   0.0000000), wk =   0.0658436
        k(   30) = (   0.6666667  -0.2222222   0.8888889), wk =   0.1316872
        k(   31) = (   0.5555556  -0.1111111   0.7777778), wk =   0.1316872
        k(   32) = (   0.4444444   0.0000000   0.6666667), wk =   0.0658436
        k(   33) = (   0.7777778  -0.1111111   1.0000000), wk =   0.0658436
        k(   34) = (   0.6666667  -0.0000000   0.8888889), wk =   0.0658436
        k(   35) = (   0.5555556  -0.1111111   1.0000000), wk =   0.0658436

     Dense  grid:     7823 G-vectors     FFT dimensions: (  27,  27,  27)

     Estimated max dynamical RAM per process >       8.03 MB

     Estimated total dynamical RAM >      40.17 MB

     Initial potential from superposition of free atoms

     starting charge    2.99771, renormalised to    3.00000
     Starting wfcs are    4 randomized atomic wfcs +    2 random wfcs
     Checking if some PAW data can be deallocated... 

     total cpu time spent up to now is        1.2 secs

     Self-consistent Calculation

     iteration #  1     ecut=    65.00 Ry     beta= 0.70
     Davidson diagonalization with overlap
     ethr =  1.00E-02,  avg # of iterations =  4.9

     Threshold (ethr) on eigenvalues was too large:
     Diagonalizing with lowered threshold

     Davidson diagonalization with overlap
     ethr =  1.84E-04,  avg # of iterations =  1.9

     total cpu time spent up to now is        1.9 secs

     total energy              =     -39.50081922 Ry
     Harris-Foulkes estimate   =     -39.50195798 Ry
     estimated scf accuracy    <       0.00544426 Ry

     iteration #  2     ecut=    65.00 Ry     beta= 0.70
     Davidson diagonalization with overlap
     ethr =  1.81E-04,  avg # of iterations =  1.0

     total cpu time spent up to now is        2.2 secs

     total energy              =     -39.50077761 Ry
     Harris-Foulkes estimate   =     -39.50086491 Ry
     estimated scf accuracy    <       0.00039981 Ry

     iteration #  3     ecut=    65.00 Ry     beta= 0.70
     Davidson diagonalization with overlap
     ethr =  1.33E-05,  avg # of iterations =  1.7

     total cpu time spent up to now is        2.5 secs

     total energy              =     -39.50078579 Ry
     Harris-Foulkes estimate   =     -39.50078593 Ry
     estimated scf accuracy    <       0.00000043 Ry

     iteration #  4     ecut=    65.00 Ry     beta= 0.70
     Davidson diagonalization with overlap
     ethr =  1.44E-08,  avg # of iterations =  3.1

     total cpu time spent up to now is        2.9 secs

     total energy              =     -39.50078702 Ry
     Harris-Foulkes estimate   =     -39.50078703 Ry
     estimated scf accuracy    <       0.00000002 Ry

     iteration #  5     ecut=    65.00 Ry     beta= 0.70
     Davidson diagonalization with overlap
     ethr =  5.29E-10,  avg # of iterations =  1.2

     total cpu time spent up to now is        3.2 secs

     End of self-consistent calculation

          k = 0.0000 0.0000 0.0000 (   965 PWs)   bands (ev):

    -3.2492  20.4343  20.4343  21.8947  21.8947  21.8947

          k =-0.1111 0.1111-0.1111 (   968 PWs)   bands (ev):

    -2.9149  16.7076  19.6077  19.6077  22.5632  23.2066

          k =-0.2222 0.2222-0.2222 (   983 PWs)   bands (ev):

    -1.9165  12.3223  18.8366  18.8366  22.2379  23.0479

          k =-0.3333 0.3333-0.3333 (   996 PWs)   bands (ev):

    -0.2679   8.3476  18.5839  18.5839  21.1659  21.1659

          k =-0.4444 0.4444-0.4444 (   987 PWs)   bands (ev):

     2.0085   4.8974  18.8847  18.8847  19.7506  19.7506

          k = 0.0000 0.2222 0.0000 (   970 PWs)   bands (ev):

    -2.8036  18.0513  18.0513  18.3371  20.9488  23.1646

          k =-0.1111 0.3333-0.1111 (   982 PWs)   bands (ev):

    -2.0271  13.9629  17.0298  18.4958  20.3959  21.9081

          k =-0.2222 0.4444-0.2222 (   986 PWs)   bands (ev):

    -0.5962   9.8773  16.5696  18.1030  18.3042  24.2465

          k =-0.3333 0.5556-0.3333 (   991 PWs)   bands (ev):

     1.4695   6.2615  16.5080  16.6756  18.3936  22.7102

          k = 0.5556-0.3333 0.5556 (   994 PWs)   bands (ev):

     3.1792   4.1611  15.4185  17.3500  19.1334  21.6778

          k = 0.4444-0.2222 0.4444 (   994 PWs)   bands (ev):

     0.7122   7.4033  14.9244  18.5893  20.4507  21.1936

          k = 0.3333-0.1111 0.3333 (   983 PWs)   bands (ev):

    -1.1448  11.1674  15.0486  20.3451  21.2646  22.2917

          k = 0.2222-0.0000 0.2222 (   971 PWs)   bands (ev):

    -2.3593  14.9868  16.1383  21.3027  22.1350  23.3338

          k = 0.0000 0.4444 0.0000 (   982 PWs)   bands (ev):

    -1.4750  15.7967  15.7967  15.8388  17.4564  19.2217

          k =-0.1111 0.5556-0.1111 (   992 PWs)   bands (ev):

    -0.2684  11.9297  14.9601  15.1369  16.5815  20.2297

          k =-0.2222 0.6667-0.2222 (   994 PWs)   bands (ev):

     1.5752   8.2179  13.0502  15.0481  16.7172  23.2395

          k = 0.6667-0.2222 0.6667 (   987 PWs)   bands (ev):

     4.0155   5.0076  11.7398  15.5299  17.3089  25.0196

          k = 0.5556-0.1111 0.5556 (   994 PWs)   bands (ev):

     2.3297   7.0378  11.0808  16.5833  18.4847  24.3632

          k = 0.4444 0.0000 0.4444 (   987 PWs)   bands (ev):

     0.2773  10.0687  11.5610  18.2045  20.2113  23.8836

          k = 0.0000 0.6667 0.0000 (  1002 PWs)   bands (ev):

     0.7098  12.2204  14.0993  14.2819  14.2819  17.7633

          k =-0.1111 0.7778-0.1111 (   996 PWs)   bands (ev):

     2.3204  10.0330  10.7480  13.9996  15.3288  19.1300

          k = 0.7778-0.1111 0.7778 (   993 PWs)   bands (ev):

     4.5123   7.3581   8.6121  14.2882  15.8882  22.5586

          k = 0.6667-0.0000 0.6667 (   981 PWs)   bands (ev):

     4.5572   6.7828   8.2396  15.1487  16.9094  26.4600

          k = 0.0000 0.8889 0.0000 (   998 PWs)   bands (ev):

     3.6709   7.7166  13.2197  13.5249  13.5249  16.9680

          k = 0.8889 0.0000 0.8889 (   997 PWs)   bands (ev):

     5.1456   6.4674  10.3057  13.6209  14.9045  18.7483

          k =-0.2222 0.4444 0.0000 (   990 PWs)   bands (ev):

    -1.0349  12.5362  13.8793  17.8407  19.8599  21.6402

          k =-0.3333 0.5556-0.1111 (   993 PWs)   bands (ev):

     0.6031   9.1099  13.0797  15.7742  20.2991  22.9866

          k = 0.5556-0.3333 0.7778 (   994 PWs)   bands (ev):

     2.8627   5.7281  13.3109  14.3038  20.6800  21.6730

          k =-0.2222 0.6667 0.0000 (   999 PWs)   bands (ev):

     1.1431  10.8930  12.1486  12.8151  18.2998  20.3308

          k = 0.6667-0.2222 0.8889 (   991 PWs)   bands (ev):

     3.1750   7.8603  10.8645  11.9628  19.1871  23.0083

          k = 0.5556-0.1111 0.7778 (   993 PWs)   bands (ev):

     4.8575   5.7960   9.8285  12.5841  20.0023  24.2118

          k = 0.4444 0.0000 0.6667 (   993 PWs)   bands (ev):

     2.4352   8.4245   9.9082  13.8813  21.2870  23.1501

          k = 0.7778-0.1111 1.0000 (   989 PWs)   bands (ev):

     4.0927   8.1272  10.0699  11.5457  17.4969  19.6087

          k = 0.6667-0.0000 0.8889 (   997 PWs)   bands (ev):

     5.9635   7.1560   7.6422  11.5114  18.7973  22.6936

          k = 0.5556-0.1111 1.0000 (   995 PWs)   bands (ev):

     5.3498   7.6033   8.8585   9.6796  22.3967  23.4082

     the Fermi energy is     7.8209 ev

!    total energy              =     -39.50078702 Ry
     Harris-Foulkes estimate   =     -39.50078702 Ry
     estimated scf accuracy    <          1.5E-10 Ry

     total all-electron energy =      -485.643567 Ry

     The total energy is the sum of the following terms:

     one-electron contribution =       3.15478059 Ry
     hartree contribution      =       0.00599846 Ry
     xc contribution           =      -2.58811956 Ry
     ewald contribution        =      -5.39395538 Ry
     one-center paw contrib.   =     -34.67907506 Ry
     smearing contrib. (-TS)   =      -0.00041607 Ry

     convergence has been achieved in   5 iterations

     Forces acting on atoms (cartesian axes, Ry/au):

     atom    1 type  1   force =     0.00000000    0.00000000    0.00000000

     Total force =     0.000000     Total SCF correction =     0.000000


     Computing stress (Cartesian axis) and pressure

          total   stress  (Ry/bohr**3)                   (kbar)     P=   -1.75
  -0.00001192  -0.00000000  -0.00000000         -1.75     -0.00     -0.00
  -0.00000000  -0.00001192   0.00000000         -0.00     -1.75      0.00
  -0.00000000   0.00000000  -0.00001192         -0.00      0.00     -1.75


     Writing output data file Al.save/

     init_run     :      0.39s CPU      0.42s WALL (       1 calls)
     electrons    :      1.92s CPU      2.05s WALL (       1 calls)
     forces       :      0.04s CPU      0.04s WALL (       1 calls)
     stress       :      0.16s CPU      0.16s WALL (       1 calls)

     Called by init_run:
     wfcinit      :      0.08s CPU      0.08s WALL (       1 calls)
     potinit      :      0.12s CPU      0.13s WALL (       1 calls)
     hinit0       :      0.17s CPU      0.17s WALL (       1 calls)

     Called by electrons:
     c_bands      :      1.13s CPU      1.19s WALL (       6 calls)
     sum_band     :      0.25s CPU      0.26s WALL (       6 calls)
     v_of_rho     :      0.03s CPU      0.03s WALL (       6 calls)
     newd         :      0.05s CPU      0.06s WALL (       6 calls)
     PAW_pot      :      0.57s CPU      0.64s WALL (       6 calls)
     mix_rho      :      0.00s CPU      0.00s WALL (       6 calls)

     Called by c_bands:
     init_us_2    :      0.06s CPU      0.07s WALL (     525 calls)
     cegterg      :      1.04s CPU      1.10s WALL (     210 calls)

     Called by sum_band:
     sum_band:bec :      0.00s CPU      0.00s WALL (     210 calls)
     addusdens    :      0.04s CPU      0.05s WALL (       6 calls)

     Called by *egterg:
     h_psi        :      0.89s CPU      0.94s WALL (     729 calls)
     s_psi        :      0.03s CPU      0.03s WALL (     729 calls)
     g_psi        :      0.00s CPU      0.00s WALL (     484 calls)
     cdiaghg      :      0.06s CPU      0.07s WALL (     659 calls)

     Called by h_psi:
     h_psi:pot    :      0.88s CPU      0.93s WALL (     729 calls)
     h_psi:calbec :      0.05s CPU      0.05s WALL (     729 calls)
     vloc_psi     :      0.80s CPU      0.84s WALL (     729 calls)
     add_vuspsi   :      0.03s CPU      0.03s WALL (     729 calls)

     General routines
     calbec       :      0.10s CPU      0.10s WALL (    1114 calls)
     fft          :      0.03s CPU      0.03s WALL (      93 calls)
     ffts         :      0.00s CPU      0.00s WALL (       6 calls)
     fftw         :      0.89s CPU      0.94s WALL (    8032 calls)

     Parallel routines
     fft_scatt_xy :      0.07s CPU      0.07s WALL (    8131 calls)
     fft_scatt_yz :      0.29s CPU      0.30s WALL (    8131 calls)

     PWSCF        :     3.31s CPU         3.52s WALL


   This run was terminated on:  20: 6:34  25Mar2024            

=------------------------------------------------------------------------------=
   JOB DONE.
=------------------------------------------------------------------------------=
