
     Program PWSCF v.6.3MaX starts on 25Mar2024 at 20: 4:41 

     This program is part of the open-source Quantum ESPRESSO suite
     for quantum simulation of materials; please cite
         "P. Giannozzi et al., J. Phys.:Condens. Matter 21 395502 (2009);
         "P. Giannozzi et al., J. Phys.:Condens. Matter 29 465901 (2017);
          URL http://www.quantum-espresso.org", 
     in publications or presentations arising from this work. More details at
     http://www.quantum-espresso.org/quote

     Parallel version (MPI), running on     5 processors

     MPI processes distributed on     1 nodes
     R & G space division:  proc/nbgrp/npool/nimage =       5
     Waiting for input...
     Reading input from standard input

     Current dimensions of program PWSCF are:
     Max number of different atomic species (ntypx) = 10
     Max number of k-points (npk) =  40000
     Max angular momentum in pseudopotentials (lmaxx) =  3

     Subspace diagonalization in iterative solution of the eigenvalue problem:
     a serial algorithm will be used


     Parallelization info
     --------------------
     sticks:   dense  smooth     PW     G-vecs:    dense   smooth      PW
     Min          99      99     30                 1395     1395     248
     Max         101     101     31                 1395     1395     251
     Sum         499     499    151                 6975     6975    1243



     bravais-lattice index     =            2
     lattice parameter (alat)  =       7.6500  a.u.
     unit-cell volume          =     111.9243 (a.u.)^3
     number of atoms/cell      =            1
     number of atomic types    =            1
     number of electrons       =         3.00
     number of Kohn-Sham states=            6
     kinetic-energy cutoff     =      60.0000  Ry
     charge density cutoff     =     240.0000  Ry
     convergence threshold     =      1.0E-08
     mixing beta               =       0.7000
     number of iterations used =            8  plain     mixing
     Exchange-correlation      = PBE ( 1  4  3  4 0 0)

     celldm(1)=   7.650000  celldm(2)=   0.000000  celldm(3)=   0.000000
     celldm(4)=   0.000000  celldm(5)=   0.000000  celldm(6)=   0.000000

     crystal axes: (cart. coord. in units of alat)
               a(1) = (  -0.500000   0.000000   0.500000 )  
               a(2) = (   0.000000   0.500000   0.500000 )  
               a(3) = (  -0.500000   0.500000   0.000000 )  

     reciprocal axes: (cart. coord. in units 2 pi/alat)
               b(1) = ( -1.000000 -1.000000  1.000000 )  
               b(2) = (  1.000000  1.000000  1.000000 )  
               b(3) = ( -1.000000  1.000000 -1.000000 )  


     PseudoPot. # 1 for Al read from file:
     /home/lorenzo/pseudos/Al/Al.pbe-nl-rrkjus_psl.1.0.0.UPF
     MD5 check sum: 6db8691240a1c860ce6448702d298c4b
     Pseudo is Ultrasoft + core correction, Zval =  3.0
     Generated using "atomic" code by A. Dal Corso v.6.3
     Using radial grid of 1135 points,  4 beta functions with: 
                l(1) =   0
                l(2) =   0
                l(3) =   1
                l(4) =   1
     Q(r) pseudized with 0 coefficients 


     atomic species   valence    mass     pseudopotential
        Al             3.00    26.98150     Al( 1.00)

     48 Sym. Ops., with inversion, found



   Cartesian axes

     site n.     atom                  positions (alat units)
         1           Al  tau(   1) = (   0.0000000   0.0000000   0.0000000  )

     number of k points=     8  gaussian smearing, width (Ry)=  0.0100
                       cart. coord. in units 2pi/alat
        k(    1) = (   0.0000000   0.0000000   0.0000000), wk =   0.0312500
        k(    2) = (  -0.2500000   0.2500000  -0.2500000), wk =   0.2500000
        k(    3) = (   0.5000000  -0.5000000   0.5000000), wk =   0.1250000
        k(    4) = (   0.0000000   0.5000000   0.0000000), wk =   0.1875000
        k(    5) = (   0.7500000  -0.2500000   0.7500000), wk =   0.7500000
        k(    6) = (   0.5000000   0.0000000   0.5000000), wk =   0.3750000
        k(    7) = (   0.0000000  -1.0000000   0.0000000), wk =   0.0937500
        k(    8) = (  -0.5000000  -1.0000000   0.0000000), wk =   0.1875000

     Dense  grid:     6975 G-vectors     FFT dimensions: (  27,  27,  27)

     Estimated max dynamical RAM per process >       2.54 MB

     Estimated total dynamical RAM >      12.71 MB

     Initial potential from superposition of free atoms

     starting charge    2.99771, renormalised to    3.00000
     Starting wfcs are    4 randomized atomic wfcs +    2 random wfcs

     total cpu time spent up to now is        0.8 secs

     Self-consistent Calculation

     iteration #  1     ecut=    60.00 Ry     beta= 0.70
     Davidson diagonalization with overlap
     ethr =  1.00E-02,  avg # of iterations =  5.1

     Threshold (ethr) on eigenvalues was too large:
     Diagonalizing with lowered threshold

     Davidson diagonalization with overlap
     ethr =  2.13E-04,  avg # of iterations =  1.8

     total cpu time spent up to now is        0.9 secs

     total energy              =      -5.01819913 Ry
     Harris-Foulkes estimate   =      -5.01949930 Ry
     estimated scf accuracy    <       0.00621895 Ry

     iteration #  2     ecut=    60.00 Ry     beta= 0.70
     Davidson diagonalization with overlap
     ethr =  2.07E-04,  avg # of iterations =  1.0

     total cpu time spent up to now is        1.0 secs

     total energy              =      -5.01819054 Ry
     Harris-Foulkes estimate   =      -5.01828089 Ry
     estimated scf accuracy    <       0.00046177 Ry

     iteration #  3     ecut=    60.00 Ry     beta= 0.70
     Davidson diagonalization with overlap
     ethr =  1.54E-05,  avg # of iterations =  2.8

     total cpu time spent up to now is        1.0 secs

     total energy              =      -5.01821107 Ry
     Harris-Foulkes estimate   =      -5.01821125 Ry
     estimated scf accuracy    <       0.00000145 Ry

     iteration #  4     ecut=    60.00 Ry     beta= 0.70
     Davidson diagonalization with overlap
     ethr =  4.82E-08,  avg # of iterations =  3.5

     total cpu time spent up to now is        1.1 secs

     total energy              =      -5.01821317 Ry
     Harris-Foulkes estimate   =      -5.01821315 Ry
     estimated scf accuracy    <       0.00000010 Ry

     iteration #  5     ecut=    60.00 Ry     beta= 0.70
     Davidson diagonalization with overlap
     ethr =  3.50E-09,  avg # of iterations =  1.4

     total cpu time spent up to now is        1.1 secs

     total energy              =      -5.01821316 Ry
     Harris-Foulkes estimate   =      -5.01821317 Ry
     estimated scf accuracy    <       0.00000004 Ry

     iteration #  6     ecut=    60.00 Ry     beta= 0.70
     Davidson diagonalization with overlap
     ethr =  1.21E-09,  avg # of iterations =  1.0

     total cpu time spent up to now is        1.2 secs

     End of self-consistent calculation

          k = 0.0000 0.0000 0.0000 (   893 PWs)   bands (ev):

    -3.2458  20.4439  20.4439  21.8788  21.8789  21.8789

          k =-0.2500 0.2500-0.2500 (   890 PWs)   bands (ev):

    -1.5618  11.2867  18.7207  18.7207  22.1592  22.5497

          k = 0.5000-0.5000 0.5000 (   886 PWs)   bands (ev):

     3.2781   3.4870  19.1997  19.1997  19.2906  19.2906

          k = 0.0000 0.5000 0.0000 (   881 PWs)   bands (ev):

    -1.0049  15.3335  15.3435  15.3435  16.0891  18.8043

          k = 0.7500-0.2500 0.7500 (   875 PWs)   bands (ev):

     2.8274   7.1039  11.5005  14.8725  16.5597  23.8831

          k = 0.5000 0.0000 0.5000 (   883 PWs)   bands (ev):

     1.2019   9.0970  10.5929  17.2969  19.2589  24.7777

          k = 0.0000-1.0000 0.0000 (   846 PWs)   bands (ev):

     4.9423   6.2579  13.1235  13.4228  13.4228  16.8691

          k =-0.5000-1.0000 0.0000 (   876 PWs)   bands (ev):

     7.0172   7.0172   8.0329   8.9360  23.6246  23.6246

     the Fermi energy is     7.1885 ev

!    total energy              =      -5.01821316 Ry
     Harris-Foulkes estimate   =      -5.01821316 Ry
     estimated scf accuracy    <          3.6E-10 Ry

     The total energy is the sum of the following terms:

     one-electron contribution =       2.95862606 Ry
     hartree contribution      =       0.00759213 Ry
     xc contribution           =      -2.58882210 Ry
     ewald contribution        =      -5.39395538 Ry
     smearing contrib. (-TS)   =      -0.00165387 Ry

     convergence has been achieved in   6 iterations

     Forces acting on atoms (cartesian axes, Ry/au):

     atom    1 type  1   force =     0.00000000    0.00000000    0.00000000

     Total force =     0.000000     Total SCF correction =     0.000000


     Computing stress (Cartesian axis) and pressure

          total   stress  (Ry/bohr**3)                   (kbar)     P=    3.49
   0.00002369   0.00000000   0.00000000          3.49      0.00      0.00
   0.00000000   0.00002369   0.00000000          0.00      3.49      0.00
   0.00000000  -0.00000000   0.00002369          0.00     -0.00      3.49


     Writing output data file Al.save/

     init_run     :      0.10s CPU      0.11s WALL (       1 calls)
     electrons    :      0.33s CPU      0.36s WALL (       1 calls)
     forces       :      0.02s CPU      0.02s WALL (       1 calls)
     stress       :      0.04s CPU      0.04s WALL (       1 calls)

     Called by init_run:
     wfcinit      :      0.01s CPU      0.01s WALL (       1 calls)
     potinit      :      0.01s CPU      0.01s WALL (       1 calls)
     hinit0       :      0.08s CPU      0.08s WALL (       1 calls)

     Called by electrons:
     c_bands      :      0.23s CPU      0.25s WALL (       7 calls)
     sum_band     :      0.06s CPU      0.06s WALL (       7 calls)
     v_of_rho     :      0.03s CPU      0.03s WALL (       7 calls)
     newd         :      0.01s CPU      0.01s WALL (       7 calls)
     mix_rho      :      0.00s CPU      0.00s WALL (       7 calls)

     Called by c_bands:
     init_us_2    :      0.01s CPU      0.01s WALL (     136 calls)
     cegterg      :      0.22s CPU      0.24s WALL (      56 calls)

     Called by sum_band:
     sum_band:bec :      0.00s CPU      0.00s WALL (      56 calls)
     addusdens    :      0.01s CPU      0.01s WALL (       7 calls)

     Called by *egterg:
     h_psi        :      0.19s CPU      0.20s WALL (     196 calls)
     s_psi        :      0.00s CPU      0.00s WALL (     196 calls)
     g_psi        :      0.00s CPU      0.00s WALL (     132 calls)
     cdiaghg      :      0.02s CPU      0.02s WALL (     180 calls)

     Called by h_psi:
     h_psi:pot    :      0.19s CPU      0.20s WALL (     196 calls)
     h_psi:calbec :      0.01s CPU      0.01s WALL (     196 calls)
     vloc_psi     :      0.18s CPU      0.19s WALL (     196 calls)
     add_vuspsi   :      0.00s CPU      0.00s WALL (     196 calls)

     General routines
     calbec       :      0.01s CPU      0.01s WALL (     292 calls)
     fft          :      0.02s CPU      0.02s WALL (     104 calls)
     ffts         :      0.00s CPU      0.00s WALL (       7 calls)
     fftw         :      0.20s CPU      0.22s WALL (    2086 calls)

     Parallel routines
     fft_scatt_xy :      0.02s CPU      0.02s WALL (    2197 calls)
     fft_scatt_yz :      0.06s CPU      0.06s WALL (    2197 calls)

     PWSCF        :     1.21s CPU         1.28s WALL


   This run was terminated on:  20: 4:42  25Mar2024            

=------------------------------------------------------------------------------=
   JOB DONE.
=------------------------------------------------------------------------------=
