
     Program PWSCF v.6.3MaX starts on 25Mar2024 at 19:58:41 

     This program is part of the open-source Quantum ESPRESSO suite
     for quantum simulation of materials; please cite
         "P. Giannozzi et al., J. Phys.:Condens. Matter 21 395502 (2009);
         "P. Giannozzi et al., J. Phys.:Condens. Matter 29 465901 (2017);
          URL http://www.quantum-espresso.org", 
     in publications or presentations arising from this work. More details at
     http://www.quantum-espresso.org/quote

     Parallel version (MPI), running on     5 processors

     MPI processes distributed on     1 nodes
     R & G space division:  proc/nbgrp/npool/nimage =       5
     Waiting for input...
     Reading input from standard input

     Current dimensions of program PWSCF are:
     Max number of different atomic species (ntypx) = 10
     Max number of k-points (npk) =  40000
     Max angular momentum in pseudopotentials (lmaxx) =  3
               file Al.pbe-n-kjpaw_psl.1.0.0.UPF: wavefunction(s)  3S 3P renormalized

     Subspace diagonalization in iterative solution of the eigenvalue problem:
     a serial algorithm will be used


     Parallelization info
     --------------------
     sticks:   dense  smooth     PW     G-vecs:    dense   smooth      PW
     Min          56      56     18                  623      623     121
     Max          57      57     19                  625      625     123
     Sum         283     283     91                 3119     3119     609



     bravais-lattice index     =            2
     lattice parameter (alat)  =       7.6500  a.u.
     unit-cell volume          =     111.9243 (a.u.)^3
     number of atoms/cell      =            1
     number of atomic types    =            1
     number of electrons       =         3.00
     number of Kohn-Sham states=            6
     kinetic-energy cutoff     =      35.0000  Ry
     charge density cutoff     =     140.0000  Ry
     convergence threshold     =      1.0E-08
     mixing beta               =       0.7000
     number of iterations used =            8  plain     mixing
     Exchange-correlation      = SLA PW PBX PBC ( 1  4  3  4 0 0)

     celldm(1)=   7.650000  celldm(2)=   0.000000  celldm(3)=   0.000000
     celldm(4)=   0.000000  celldm(5)=   0.000000  celldm(6)=   0.000000

     crystal axes: (cart. coord. in units of alat)
               a(1) = (  -0.500000   0.000000   0.500000 )  
               a(2) = (   0.000000   0.500000   0.500000 )  
               a(3) = (  -0.500000   0.500000   0.000000 )  

     reciprocal axes: (cart. coord. in units 2 pi/alat)
               b(1) = ( -1.000000 -1.000000  1.000000 )  
               b(2) = (  1.000000  1.000000  1.000000 )  
               b(3) = ( -1.000000  1.000000 -1.000000 )  


     PseudoPot. # 1 for Al read from file:
     /home/lorenzo/pseudos/Al/Al.pbe-n-kjpaw_psl.1.0.0.UPF
     MD5 check sum: 502b6b27b9c6270cab5dd1084b96fa6d
     Pseudo is Projector augmented-wave + core cor, Zval =  3.0
     Generated using "atomic" code by A. Dal Corso v.6.3
     Shape of augmentation charge: PSQ
     Using radial grid of 1135 points,  6 beta functions with: 
                l(1) =   0
                l(2) =   0
                l(3) =   1
                l(4) =   1
                l(5) =   2
                l(6) =   2
     Q(r) pseudized with 0 coefficients 


     atomic species   valence    mass     pseudopotential
        Al             3.00    26.98150     Al( 1.00)

     48 Sym. Ops., with inversion, found



   Cartesian axes

     site n.     atom                  positions (alat units)
         1           Al  tau(   1) = (   0.0000000   0.0000000   0.0000000  )

     number of k points=    10  gaussian smearing, width (Ry)=  0.0100
                       cart. coord. in units 2pi/alat
        k(    1) = (   0.0000000   0.0000000   0.0000000), wk =   0.0160000
        k(    2) = (  -0.2000000   0.2000000  -0.2000000), wk =   0.1280000
        k(    3) = (  -0.4000000   0.4000000  -0.4000000), wk =   0.1280000
        k(    4) = (   0.0000000   0.4000000   0.0000000), wk =   0.0960000
        k(    5) = (  -0.2000000   0.6000000  -0.2000000), wk =   0.3840000
        k(    6) = (   0.6000000  -0.2000000   0.6000000), wk =   0.3840000
        k(    7) = (   0.4000000   0.0000000   0.4000000), wk =   0.1920000
        k(    8) = (   0.0000000   0.8000000   0.0000000), wk =   0.0960000
        k(    9) = (   0.8000000   0.0000000   0.8000000), wk =   0.1920000
        k(   10) = (   0.6000000  -0.2000000   1.0000000), wk =   0.3840000

     Dense  grid:     3119 G-vectors     FFT dimensions: (  24,  24,  24)

     Estimated max dynamical RAM per process >       3.63 MB

     Estimated total dynamical RAM >      18.14 MB

     Initial potential from superposition of free atoms

     starting charge    2.99771, renormalised to    3.00000
     Starting wfcs are    4 randomized atomic wfcs +    2 random wfcs
     Checking if some PAW data can be deallocated... 

     total cpu time spent up to now is        0.9 secs

     Self-consistent Calculation

     iteration #  1     ecut=    35.00 Ry     beta= 0.70
     Davidson diagonalization with overlap
     ethr =  1.00E-02,  avg # of iterations =  4.9

     Threshold (ethr) on eigenvalues was too large:
     Diagonalizing with lowered threshold

     Davidson diagonalization with overlap
     ethr =  1.65E-04,  avg # of iterations =  1.7

     total cpu time spent up to now is        1.1 secs

     total energy              =     -39.49891751 Ry
     Harris-Foulkes estimate   =     -39.50000033 Ry
     estimated scf accuracy    <       0.00489884 Ry

     iteration #  2     ecut=    35.00 Ry     beta= 0.70
     Davidson diagonalization with overlap
     ethr =  1.63E-04,  avg # of iterations =  1.0

     total cpu time spent up to now is        1.3 secs

     total energy              =     -39.49887393 Ry
     Harris-Foulkes estimate   =     -39.49895705 Ry
     estimated scf accuracy    <       0.00035884 Ry

     iteration #  3     ecut=    35.00 Ry     beta= 0.70
     Davidson diagonalization with overlap
     ethr =  1.20E-05,  avg # of iterations =  1.7

     total cpu time spent up to now is        1.4 secs

     total energy              =     -39.49888056 Ry
     Harris-Foulkes estimate   =     -39.49888069 Ry
     estimated scf accuracy    <       0.00000035 Ry

     iteration #  4     ecut=    35.00 Ry     beta= 0.70
     Davidson diagonalization with overlap
     ethr =  1.17E-08,  avg # of iterations =  2.8

     total cpu time spent up to now is        1.6 secs

     total energy              =     -39.49888169 Ry
     Harris-Foulkes estimate   =     -39.49888171 Ry
     estimated scf accuracy    <       0.00000002 Ry

     iteration #  5     ecut=    35.00 Ry     beta= 0.70
     Davidson diagonalization with overlap
     ethr =  5.84E-10,  avg # of iterations =  1.0

     total cpu time spent up to now is        1.8 secs

     End of self-consistent calculation

          k = 0.0000 0.0000 0.0000 (   387 PWs)   bands (ev):

    -3.2491  20.4351  20.4351  21.8975  21.8975  21.8975

          k =-0.2000 0.2000-0.2000 (   386 PWs)   bands (ev):

    -2.1686  13.1733  18.9532  18.9532  22.3003  23.4308

          k =-0.4000 0.4000-0.4000 (   389 PWs)   bands (ev):

     1.0248   6.2109  18.6988  18.6988  20.2530  20.2530

          k = 0.0000 0.4000 0.0000 (   379 PWs)   bands (ev):

    -1.8102  16.1912  16.1912  16.2839  18.5729  19.5705

          k =-0.2000 0.6000-0.2000 (   394 PWs)   bands (ev):

     0.6723   9.2081  14.3831  15.2799  16.9402  22.8074

          k = 0.6000-0.2000 0.6000 (   389 PWs)   bands (ev):

     3.4542   5.1758  12.1084  16.2170  18.0650  23.9991

          k = 0.4000 0.0000 0.4000 (   395 PWs)   bands (ev):

    -0.3858  10.9240  12.3954  18.9936  21.0187  23.2348

          k = 0.0000 0.8000 0.0000 (   396 PWs)   bands (ev):

     2.4076   9.4133  13.4655  13.7379  13.7379  17.1968

          k = 0.8000 0.0000 0.8000 (   391 PWs)   bands (ev):

     5.6033   6.9082   7.9353  14.0494  15.5969  21.6801

          k = 0.6000-0.2000 1.0000 (   392 PWs)   bands (ev):

     3.7879   8.2602   9.6593  10.9000  21.5780  22.9352

     the Fermi energy is     8.2019 ev

!    total energy              =     -39.49888170 Ry
     Harris-Foulkes estimate   =     -39.49888170 Ry
     estimated scf accuracy    <          2.5E-10 Ry

     total all-electron energy =      -485.641662 Ry

     The total energy is the sum of the following terms:

     one-electron contribution =       3.15929981 Ry
     hartree contribution      =       0.00553384 Ry
     xc contribution           =      -2.58855305 Ry
     ewald contribution        =      -5.39395543 Ry
     one-center paw contrib.   =     -34.68029375 Ry
     smearing contrib. (-TS)   =      -0.00091312 Ry

     convergence has been achieved in   5 iterations

     Forces acting on atoms (cartesian axes, Ry/au):

     atom    1 type  1   force =     0.00000000    0.00000000    0.00000000

     Total force =     0.000000     Total SCF correction =     0.000000


     Computing stress (Cartesian axis) and pressure

          total   stress  (Ry/bohr**3)                   (kbar)     P=   14.10
   0.00009588  -0.00000000  -0.00000000         14.10     -0.00     -0.00
   0.00000000   0.00009588   0.00000000          0.00     14.10      0.00
  -0.00000000   0.00000000   0.00009588         -0.00      0.00     14.10


     Writing output data file Al.save/

     init_run     :      0.22s CPU      0.24s WALL (       1 calls)
     electrons    :      0.76s CPU      0.85s WALL (       1 calls)
     forces       :      0.02s CPU      0.02s WALL (       1 calls)
     stress       :      0.06s CPU      0.06s WALL (       1 calls)

     Called by init_run:
     wfcinit      :      0.01s CPU      0.01s WALL (       1 calls)
     potinit      :      0.09s CPU      0.10s WALL (       1 calls)
     hinit0       :      0.11s CPU      0.11s WALL (       1 calls)

     Called by electrons:
     c_bands      :      0.18s CPU      0.20s WALL (       6 calls)
     sum_band     :      0.06s CPU      0.07s WALL (       6 calls)
     v_of_rho     :      0.02s CPU      0.02s WALL (       6 calls)
     newd         :      0.02s CPU      0.02s WALL (       6 calls)
     PAW_pot      :      0.56s CPU      0.63s WALL (       6 calls)
     mix_rho      :      0.00s CPU      0.00s WALL (       6 calls)

     Called by c_bands:
     init_us_2    :      0.01s CPU      0.01s WALL (     150 calls)
     cegterg      :      0.17s CPU      0.19s WALL (      60 calls)

     Called by sum_band:
     sum_band:bec :      0.00s CPU      0.00s WALL (      60 calls)
     addusdens    :      0.02s CPU      0.02s WALL (       6 calls)

     Called by *egterg:
     h_psi        :      0.14s CPU      0.15s WALL (     201 calls)
     s_psi        :      0.00s CPU      0.00s WALL (     201 calls)
     g_psi        :      0.00s CPU      0.00s WALL (     131 calls)
     cdiaghg      :      0.02s CPU      0.02s WALL (     181 calls)

     Called by h_psi:
     h_psi:pot    :      0.14s CPU      0.15s WALL (     201 calls)
     h_psi:calbec :      0.01s CPU      0.01s WALL (     201 calls)
     vloc_psi     :      0.12s CPU      0.14s WALL (     201 calls)
     add_vuspsi   :      0.00s CPU      0.00s WALL (     201 calls)

     General routines
     calbec       :      0.01s CPU      0.01s WALL (     311 calls)
     fft          :      0.01s CPU      0.01s WALL (      93 calls)
     ffts         :      0.00s CPU      0.00s WALL (       6 calls)
     fftw         :      0.14s CPU      0.15s WALL (    2292 calls)

     Parallel routines
     fft_scatt_xy :      0.01s CPU      0.01s WALL (    2391 calls)
     fft_scatt_yz :      0.05s CPU      0.06s WALL (    2391 calls)

     PWSCF        :     1.75s CPU         1.91s WALL


   This run was terminated on:  19:58:43  25Mar2024            

=------------------------------------------------------------------------------=
   JOB DONE.
=------------------------------------------------------------------------------=
