
     Program PWSCF v.6.3MaX starts on 25Mar2024 at 19:59:50 

     This program is part of the open-source Quantum ESPRESSO suite
     for quantum simulation of materials; please cite
         "P. Giannozzi et al., J. Phys.:Condens. Matter 21 395502 (2009);
         "P. Giannozzi et al., J. Phys.:Condens. Matter 29 465901 (2017);
          URL http://www.quantum-espresso.org", 
     in publications or presentations arising from this work. More details at
     http://www.quantum-espresso.org/quote

     Parallel version (MPI), running on     5 processors

     MPI processes distributed on     1 nodes
     R & G space division:  proc/nbgrp/npool/nimage =       5
     Waiting for input...
     Reading input from standard input

     Current dimensions of program PWSCF are:
     Max number of different atomic species (ntypx) = 10
     Max number of k-points (npk) =  40000
     Max angular momentum in pseudopotentials (lmaxx) =  3

     Subspace diagonalization in iterative solution of the eigenvalue problem:
     a serial algorithm will be used


     Parallelization info
     --------------------
     sticks:   dense  smooth     PW     G-vecs:    dense   smooth      PW
     Min          62      62     21                  765      765     144
     Max          63      63     22                  770      770     146
     Sum         313     313    109                 3839     3839     725



     bravais-lattice index     =            2
     lattice parameter (alat)  =       7.6500  a.u.
     unit-cell volume          =     111.9243 (a.u.)^3
     number of atoms/cell      =            1
     number of atomic types    =            1
     number of electrons       =         3.00
     number of Kohn-Sham states=            6
     kinetic-energy cutoff     =      40.0000  Ry
     charge density cutoff     =     160.0000  Ry
     convergence threshold     =      1.0E-08
     mixing beta               =       0.7000
     number of iterations used =            8  plain     mixing
     Exchange-correlation      = PBE ( 1  4  3  4 0 0)

     celldm(1)=   7.650000  celldm(2)=   0.000000  celldm(3)=   0.000000
     celldm(4)=   0.000000  celldm(5)=   0.000000  celldm(6)=   0.000000

     crystal axes: (cart. coord. in units of alat)
               a(1) = (  -0.500000   0.000000   0.500000 )  
               a(2) = (   0.000000   0.500000   0.500000 )  
               a(3) = (  -0.500000   0.500000   0.000000 )  

     reciprocal axes: (cart. coord. in units 2 pi/alat)
               b(1) = ( -1.000000 -1.000000  1.000000 )  
               b(2) = (  1.000000  1.000000  1.000000 )  
               b(3) = ( -1.000000  1.000000 -1.000000 )  


     PseudoPot. # 1 for Al read from file:
     /home/lorenzo/pseudos/Al/Al.pbe-nl-rrkjus_psl.1.0.0.UPF
     MD5 check sum: 6db8691240a1c860ce6448702d298c4b
     Pseudo is Ultrasoft + core correction, Zval =  3.0
     Generated using "atomic" code by A. Dal Corso v.6.3
     Using radial grid of 1135 points,  4 beta functions with: 
                l(1) =   0
                l(2) =   0
                l(3) =   1
                l(4) =   1
     Q(r) pseudized with 0 coefficients 


     atomic species   valence    mass     pseudopotential
        Al             3.00    26.98150     Al( 1.00)

     48 Sym. Ops., with inversion, found



   Cartesian axes

     site n.     atom                  positions (alat units)
         1           Al  tau(   1) = (   0.0000000   0.0000000   0.0000000  )

     number of k points=    10  gaussian smearing, width (Ry)=  0.0100
                       cart. coord. in units 2pi/alat
        k(    1) = (   0.0000000   0.0000000   0.0000000), wk =   0.0160000
        k(    2) = (  -0.2000000   0.2000000  -0.2000000), wk =   0.1280000
        k(    3) = (  -0.4000000   0.4000000  -0.4000000), wk =   0.1280000
        k(    4) = (   0.0000000   0.4000000   0.0000000), wk =   0.0960000
        k(    5) = (  -0.2000000   0.6000000  -0.2000000), wk =   0.3840000
        k(    6) = (   0.6000000  -0.2000000   0.6000000), wk =   0.3840000
        k(    7) = (   0.4000000   0.0000000   0.4000000), wk =   0.1920000
        k(    8) = (   0.0000000   0.8000000   0.0000000), wk =   0.0960000
        k(    9) = (   0.8000000   0.0000000   0.8000000), wk =   0.1920000
        k(   10) = (   0.6000000  -0.2000000   1.0000000), wk =   0.3840000

     Dense  grid:     3839 G-vectors     FFT dimensions: (  24,  24,  24)

     Estimated max dynamical RAM per process >       1.57 MB

     Estimated total dynamical RAM >       7.83 MB

     Initial potential from superposition of free atoms

     starting charge    2.99771, renormalised to    3.00000
     Starting wfcs are    4 randomized atomic wfcs +    2 random wfcs

     total cpu time spent up to now is        0.5 secs

     Self-consistent Calculation

     iteration #  1     ecut=    40.00 Ry     beta= 0.70
     Davidson diagonalization with overlap
     ethr =  1.00E-02,  avg # of iterations =  4.8

     Threshold (ethr) on eigenvalues was too large:
     Diagonalizing with lowered threshold

     Davidson diagonalization with overlap
     ethr =  1.72E-04,  avg # of iterations =  2.2

     total cpu time spent up to now is        0.6 secs

     total energy              =      -5.03487007 Ry
     Harris-Foulkes estimate   =      -5.03616237 Ry
     estimated scf accuracy    <       0.00509217 Ry

     iteration #  2     ecut=    40.00 Ry     beta= 0.70
     Davidson diagonalization with overlap
     ethr =  1.70E-04,  avg # of iterations =  1.0

     total cpu time spent up to now is        0.6 secs

     total energy              =      -5.03486001 Ry
     Harris-Foulkes estimate   =      -5.03494459 Ry
     estimated scf accuracy    <       0.00035889 Ry

     iteration #  3     ecut=    40.00 Ry     beta= 0.70
     Davidson diagonalization with overlap
     ethr =  1.20E-05,  avg # of iterations =  1.9

     total cpu time spent up to now is        0.6 secs

     total energy              =      -5.03488004 Ry
     Harris-Foulkes estimate   =      -5.03488010 Ry
     estimated scf accuracy    <       0.00000141 Ry

     iteration #  4     ecut=    40.00 Ry     beta= 0.70
     Davidson diagonalization with overlap
     ethr =  4.70E-08,  avg # of iterations =  3.0

     total cpu time spent up to now is        0.7 secs

     total energy              =      -5.03488192 Ry
     Harris-Foulkes estimate   =      -5.03488191 Ry
     estimated scf accuracy    <       0.00000008 Ry

     iteration #  5     ecut=    40.00 Ry     beta= 0.70
     Davidson diagonalization with overlap
     ethr =  2.76E-09,  avg # of iterations =  1.1

     total cpu time spent up to now is        0.7 secs

     total energy              =      -5.03488191 Ry
     Harris-Foulkes estimate   =      -5.03488192 Ry
     estimated scf accuracy    <       0.00000002 Ry

     iteration #  6     ecut=    40.00 Ry     beta= 0.70
     Davidson diagonalization with overlap
     ethr =  5.69E-10,  avg # of iterations =  1.0

     total cpu time spent up to now is        0.7 secs

     End of self-consistent calculation

          k = 0.0000 0.0000 0.0000 (   531 PWs)   bands (ev):

    -3.2504  20.4396  20.4396  21.8764  21.8765  21.8765

          k =-0.2000 0.2000-0.2000 (   483 PWs)   bands (ev):

    -2.1703  13.1708  18.9476  18.9476  22.2752  23.4244

          k =-0.4000 0.4000-0.4000 (   477 PWs)   bands (ev):

     1.0229   6.2098  18.6913  18.6913  20.2469  20.2469

          k = 0.0000 0.4000 0.0000 (   480 PWs)   bands (ev):

    -1.8120  16.1844  16.1844  16.2826  18.5659  19.5587

          k =-0.2000 0.6000-0.2000 (   475 PWs)   bands (ev):

     0.6703   9.2068  14.3794  15.2716  16.9354  22.7950

          k = 0.6000-0.2000 0.6000 (   471 PWs)   bands (ev):

     3.4525   5.1745  12.1054  16.2094  18.0575  23.9884

          k = 0.4000 0.0000 0.4000 (   475 PWs)   bands (ev):

    -0.3878  10.9235  12.3906  18.9863  21.0053  23.2273

          k = 0.0000 0.8000 0.0000 (   468 PWs)   bands (ev):

     2.4054   9.4124  13.4717  13.7269  13.7269  17.1945

          k = 0.8000 0.0000 0.8000 (   474 PWs)   bands (ev):

     5.6000   6.9092   7.9334  14.0389  15.5962  21.6706

          k = 0.6000-0.2000 1.0000 (   487 PWs)   bands (ev):

     3.7861   8.2594   9.6575  10.8956  21.5642  22.9206

     the Fermi energy is     8.2011 ev

!    total energy              =      -5.03488192 Ry
     Harris-Foulkes estimate   =      -5.03488191 Ry
     estimated scf accuracy    <          5.6E-10 Ry

     The total energy is the sum of the following terms:

     one-electron contribution =       2.94295884 Ry
     hartree contribution      =       0.00584271 Ry
     xc contribution           =      -2.58881535 Ry
     ewald contribution        =      -5.39395543 Ry
     smearing contrib. (-TS)   =      -0.00091268 Ry

     convergence has been achieved in   6 iterations

     Forces acting on atoms (cartesian axes, Ry/au):

     atom    1 type  1   force =     0.00000000    0.00000000    0.00000000

     Total force =     0.000000     Total SCF correction =     0.000000


     Computing stress (Cartesian axis) and pressure

          total   stress  (Ry/bohr**3)                   (kbar)     P=   13.93
   0.00009472  -0.00000000   0.00000000         13.93     -0.00      0.00
  -0.00000000   0.00009472   0.00000000         -0.00     13.93      0.00
   0.00000000   0.00000000   0.00009472          0.00      0.00     13.93


     Writing output data file Al.save/

     init_run     :      0.08s CPU      0.08s WALL (       1 calls)
     electrons    :      0.26s CPU      0.29s WALL (       1 calls)
     forces       :      0.01s CPU      0.01s WALL (       1 calls)
     stress       :      0.02s CPU      0.02s WALL (       1 calls)

     Called by init_run:
     wfcinit      :      0.01s CPU      0.01s WALL (       1 calls)
     potinit      :      0.00s CPU      0.01s WALL (       1 calls)
     hinit0       :      0.06s CPU      0.06s WALL (       1 calls)

     Called by electrons:
     c_bands      :      0.19s CPU      0.22s WALL (       7 calls)
     sum_band     :      0.04s CPU      0.04s WALL (       7 calls)
     v_of_rho     :      0.02s CPU      0.02s WALL (       7 calls)
     newd         :      0.01s CPU      0.01s WALL (       7 calls)
     mix_rho      :      0.00s CPU      0.00s WALL (       7 calls)

     Called by c_bands:
     init_us_2    :      0.01s CPU      0.01s WALL (     170 calls)
     cegterg      :      0.18s CPU      0.21s WALL (      70 calls)

     Called by sum_band:
     sum_band:bec :      0.00s CPU      0.00s WALL (      70 calls)
     addusdens    :      0.00s CPU      0.01s WALL (       7 calls)

     Called by *egterg:
     h_psi        :      0.15s CPU      0.17s WALL (     230 calls)
     s_psi        :      0.00s CPU      0.00s WALL (     230 calls)
     g_psi        :      0.00s CPU      0.00s WALL (     150 calls)
     cdiaghg      :      0.02s CPU      0.02s WALL (     210 calls)

     Called by h_psi:
     h_psi:pot    :      0.15s CPU      0.17s WALL (     230 calls)
     h_psi:calbec :      0.01s CPU      0.01s WALL (     230 calls)
     vloc_psi     :      0.14s CPU      0.16s WALL (     230 calls)
     add_vuspsi   :      0.00s CPU      0.00s WALL (     230 calls)

     General routines
     calbec       :      0.01s CPU      0.01s WALL (     350 calls)
     fft          :      0.01s CPU      0.01s WALL (     104 calls)
     ffts         :      0.00s CPU      0.00s WALL (       7 calls)
     fftw         :      0.15s CPU      0.17s WALL (    2602 calls)

     Parallel routines
     fft_scatt_xy :      0.02s CPU      0.02s WALL (    2713 calls)
     fft_scatt_yz :      0.05s CPU      0.05s WALL (    2713 calls)

     PWSCF        :     0.76s CPU         0.83s WALL


   This run was terminated on:  19:59:51  25Mar2024            

=------------------------------------------------------------------------------=
   JOB DONE.
=------------------------------------------------------------------------------=
