
     Program PWSCF v.6.3MaX starts on 25Mar2024 at 20:13:53 

     This program is part of the open-source Quantum ESPRESSO suite
     for quantum simulation of materials; please cite
         "P. Giannozzi et al., J. Phys.:Condens. Matter 21 395502 (2009);
         "P. Giannozzi et al., J. Phys.:Condens. Matter 29 465901 (2017);
          URL http://www.quantum-espresso.org", 
     in publications or presentations arising from this work. More details at
     http://www.quantum-espresso.org/quote

     Parallel version (MPI), running on     5 processors

     MPI processes distributed on     1 nodes
     R & G space division:  proc/nbgrp/npool/nimage =       5
     Waiting for input...
     Reading input from standard input

     Current dimensions of program PWSCF are:
     Max number of different atomic species (ntypx) = 10
     Max number of k-points (npk) =  40000
     Max angular momentum in pseudopotentials (lmaxx) =  3
               file Al.pbe-nl-kjpaw_psl.1.0.0.UPF: wavefunction(s)  3S 3P renormalized

     Subspace diagonalization in iterative solution of the eigenvalue problem:
     a serial algorithm will be used


     Parallelization info
     --------------------
     sticks:   dense  smooth     PW     G-vecs:    dense   smooth      PW
     Min         146     146     44                 2587     2587     426
     Max         147     147     45                 2588     2588     427
     Sum         733     733    223                12939    12939    2133



     bravais-lattice index     =            2
     lattice parameter (alat)  =       7.6500  a.u.
     unit-cell volume          =     111.9243 (a.u.)^3
     number of atoms/cell      =            1
     number of atomic types    =            1
     number of electrons       =         3.00
     number of Kohn-Sham states=            6
     kinetic-energy cutoff     =      90.0000  Ry
     charge density cutoff     =     360.0000  Ry
     convergence threshold     =      1.0E-08
     mixing beta               =       0.7000
     number of iterations used =            8  plain     mixing
     Exchange-correlation      = SLA PW PBX PBC ( 1  4  3  4 0 0)

     celldm(1)=   7.650000  celldm(2)=   0.000000  celldm(3)=   0.000000
     celldm(4)=   0.000000  celldm(5)=   0.000000  celldm(6)=   0.000000

     crystal axes: (cart. coord. in units of alat)
               a(1) = (  -0.500000   0.000000   0.500000 )  
               a(2) = (   0.000000   0.500000   0.500000 )  
               a(3) = (  -0.500000   0.500000   0.000000 )  

     reciprocal axes: (cart. coord. in units 2 pi/alat)
               b(1) = ( -1.000000 -1.000000  1.000000 )  
               b(2) = (  1.000000  1.000000  1.000000 )  
               b(3) = ( -1.000000  1.000000 -1.000000 )  


     PseudoPot. # 1 for Al read from file:
     /home/lorenzo/pseudos/Al/Al.pbe-nl-kjpaw_psl.1.0.0.UPF
     MD5 check sum: 8cf6d98cc7ef3f4b729b574060f3a10f
     Pseudo is Projector augmented-wave + core cor, Zval =  3.0
     Generated using "atomic" code by A. Dal Corso v.6.3
     Shape of augmentation charge: PSQ
     Using radial grid of 1135 points,  4 beta functions with: 
                l(1) =   0
                l(2) =   0
                l(3) =   1
                l(4) =   1
     Q(r) pseudized with 0 coefficients 


     atomic species   valence    mass     pseudopotential
        Al             3.00    26.98150     Al( 1.00)

     48 Sym. Ops., with inversion, found



   Cartesian axes

     site n.     atom                  positions (alat units)
         1           Al  tau(   1) = (   0.0000000   0.0000000   0.0000000  )

     number of k points=    16  gaussian smearing, width (Ry)=  0.0100
                       cart. coord. in units 2pi/alat
        k(    1) = (   0.0000000   0.0000000   0.0000000), wk =   0.0092593
        k(    2) = (  -0.1666667   0.1666667  -0.1666667), wk =   0.0740741
        k(    3) = (  -0.3333333   0.3333333  -0.3333333), wk =   0.0740741
        k(    4) = (   0.5000000  -0.5000000   0.5000000), wk =   0.0370370
        k(    5) = (   0.0000000   0.3333333   0.0000000), wk =   0.0555556
        k(    6) = (  -0.1666667   0.5000000  -0.1666667), wk =   0.2222222
        k(    7) = (   0.6666667  -0.3333333   0.6666667), wk =   0.2222222
        k(    8) = (   0.5000000  -0.1666667   0.5000000), wk =   0.2222222
        k(    9) = (   0.3333333   0.0000000   0.3333333), wk =   0.1111111
        k(   10) = (   0.0000000   0.6666667   0.0000000), wk =   0.0555556
        k(   11) = (   0.8333333  -0.1666667   0.8333333), wk =   0.2222222
        k(   12) = (   0.6666667  -0.0000000   0.6666667), wk =   0.1111111
        k(   13) = (   0.0000000  -1.0000000   0.0000000), wk =   0.0277778
        k(   14) = (   0.6666667  -0.3333333   1.0000000), wk =   0.2222222
        k(   15) = (   0.5000000  -0.1666667   0.8333333), wk =   0.2222222
        k(   16) = (  -0.3333333  -1.0000000   0.0000000), wk =   0.1111111

     Dense  grid:    12939 G-vectors     FFT dimensions: (  36,  36,  36)

     Estimated max dynamical RAM per process >       4.83 MB

     Estimated total dynamical RAM >      24.16 MB

     Initial potential from superposition of free atoms

     starting charge    2.99771, renormalised to    3.00000
     Starting wfcs are    4 randomized atomic wfcs +    2 random wfcs
     Checking if some PAW data can be deallocated... 

     total cpu time spent up to now is        0.7 secs

     Self-consistent Calculation

     iteration #  1     ecut=    90.00 Ry     beta= 0.70
     Davidson diagonalization with overlap
     ethr =  1.00E-02,  avg # of iterations =  5.4

     Threshold (ethr) on eigenvalues was too large:
     Diagonalizing with lowered threshold

     Davidson diagonalization with overlap
     ethr =  1.82E-04,  avg # of iterations =  1.8

     total cpu time spent up to now is        1.1 secs

     total energy              =     -39.50767209 Ry
     Harris-Foulkes estimate   =     -39.50915507 Ry
     estimated scf accuracy    <       0.00535429 Ry

     iteration #  2     ecut=    90.00 Ry     beta= 0.70
     Davidson diagonalization with overlap
     ethr =  1.78E-04,  avg # of iterations =  1.2

     total cpu time spent up to now is        1.3 secs

     total energy              =     -39.50767012 Ry
     Harris-Foulkes estimate   =     -39.50776273 Ry
     estimated scf accuracy    <       0.00036484 Ry

     iteration #  3     ecut=    90.00 Ry     beta= 0.70
     Davidson diagonalization with overlap
     ethr =  1.22E-05,  avg # of iterations =  1.6

     total cpu time spent up to now is        1.5 secs

     total energy              =     -39.50769140 Ry
     Harris-Foulkes estimate   =     -39.50769197 Ry
     estimated scf accuracy    <       0.00000140 Ry

     iteration #  4     ecut=    90.00 Ry     beta= 0.70
     Davidson diagonalization with overlap
     ethr =  4.67E-08,  avg # of iterations =  3.3

     total cpu time spent up to now is        1.7 secs

     total energy              =     -39.50769354 Ry
     Harris-Foulkes estimate   =     -39.50769353 Ry
     estimated scf accuracy    <       0.00000012 Ry

     iteration #  5     ecut=    90.00 Ry     beta= 0.70
     Davidson diagonalization with overlap
     ethr =  3.96E-09,  avg # of iterations =  1.0

     total cpu time spent up to now is        1.9 secs

     total energy              =     -39.50769353 Ry
     Harris-Foulkes estimate   =     -39.50769354 Ry
     estimated scf accuracy    <       0.00000002 Ry

     iteration #  6     ecut=    90.00 Ry     beta= 0.70
     Davidson diagonalization with overlap
     ethr =  8.19E-10,  avg # of iterations =  1.0

     total cpu time spent up to now is        2.1 secs

     End of self-consistent calculation

          k = 0.0000 0.0000 0.0000 (  1639 PWs)   bands (ev):

    -3.2530  20.4370  20.4370  21.8758  21.8759  21.8759

          k =-0.1667 0.1667-0.1667 (  1591 PWs)   bands (ev):

    -2.5019  14.4733  19.1577  19.1577  22.3784  23.7935

          k =-0.3333 0.3333-0.3333 (  1616 PWs)   bands (ev):

    -0.2718   8.3453  18.5768  18.5768  21.1591  21.1591

          k = 0.5000-0.5000 0.5000 (  1622 PWs)   bands (ev):

     3.2752   3.4775  19.1943  19.1943  19.2869  19.2869

          k = 0.0000 0.3333 0.0000 (  1607 PWs)   bands (ev):

    -2.2524  16.8292  16.8292  17.0032  20.0592  20.2966

          k =-0.1667 0.5000-0.1667 (  1611 PWs)   bands (ev):

    -0.5182  10.8440  15.7735  16.5073  17.4171  22.2927

          k = 0.6667-0.3333 0.6667 (  1607 PWs)   bands (ev):

     2.6457   5.5232  14.0485  15.9997  17.7783  23.7607

          k = 0.5000-0.1667 0.5000 (  1610 PWs)   bands (ev):

     1.4389   7.1501  12.9394  17.5087  19.4333  22.6987

          k = 0.3333 0.0000 0.3333 (  1604 PWs)   bands (ev):

    -1.2588  12.3271  13.7254  20.2561  22.2752  22.3767

          k = 0.0000 0.6667 0.0000 (  1624 PWs)   bands (ev):

     0.7059  12.2177  14.1003  14.2727  14.2727  17.7574

          k = 0.8333-0.1667 0.8333 (  1619 PWs)   bands (ev):

     3.3471   8.8850   9.3457  14.0628  15.5704  20.7209

          k = 0.6667-0.0000 0.6667 (  1612 PWs)   bands (ev):

     4.5547   6.7800   8.2367  15.1404  16.9027  26.4491

          k = 0.0000-1.0000 0.0000 (  1604 PWs)   bands (ev):

     4.9362   6.2530  13.1133  13.4194  13.4194  16.8631

          k = 0.6667-0.3333 1.0000 (  1610 PWs)   bands (ev):

     1.6793   9.5537  11.0038  13.2024  20.6277  22.2447

          k = 0.5000-0.1667 0.8333 (  1610 PWs)   bands (ev):

     5.1268   5.3844  10.8512  11.4035  21.8165  22.3050

          k =-0.3333-1.0000 0.0000 (  1618 PWs)   bands (ev):

     5.8574   7.2021   8.6286  10.1836  19.7423  21.5597

     the Fermi energy is     8.2045 ev

!    total energy              =     -39.50769353 Ry
     Harris-Foulkes estimate   =     -39.50769353 Ry
     estimated scf accuracy    <          1.8E-10 Ry

     total all-electron energy =      -485.650474 Ry

     The total energy is the sum of the following terms:

     one-electron contribution =       3.14700999 Ry
     hartree contribution      =       0.00562435 Ry
     xc contribution           =      -2.58817930 Ry
     ewald contribution        =      -5.39395538 Ry
     one-center paw contrib.   =     -34.67782520 Ry
     smearing contrib. (-TS)   =      -0.00036799 Ry

     convergence has been achieved in   6 iterations

     Forces acting on atoms (cartesian axes, Ry/au):

     atom    1 type  1   force =     0.00000000    0.00000000    0.00000000

     Total force =     0.000000     Total SCF correction =     0.000000


     Computing stress (Cartesian axis) and pressure

          total   stress  (Ry/bohr**3)                   (kbar)     P=   -0.07
  -0.00000045   0.00000000   0.00000000         -0.07      0.00      0.00
   0.00000000  -0.00000045   0.00000000          0.00     -0.07      0.00
   0.00000000  -0.00000000  -0.00000045          0.00     -0.00     -0.07


     Writing output data file Al.save/

     init_run     :      0.22s CPU      0.24s WALL (       1 calls)
     electrons    :      1.32s CPU      1.45s WALL (       1 calls)
     forces       :      0.03s CPU      0.03s WALL (       1 calls)
     stress       :      0.10s CPU      0.10s WALL (       1 calls)

     Called by init_run:
     wfcinit      :      0.07s CPU      0.07s WALL (       1 calls)
     potinit      :      0.03s CPU      0.04s WALL (       1 calls)
     hinit0       :      0.11s CPU      0.11s WALL (       1 calls)

     Called by electrons:
     c_bands      :      0.88s CPU      0.95s WALL (       7 calls)
     sum_band     :      0.22s CPU      0.23s WALL (       7 calls)
     v_of_rho     :      0.07s CPU      0.07s WALL (       7 calls)
     newd         :      0.02s CPU      0.03s WALL (       7 calls)
     PAW_pot      :      0.15s CPU      0.19s WALL (       7 calls)
     mix_rho      :      0.00s CPU      0.01s WALL (       7 calls)

     Called by c_bands:
     init_us_2    :      0.03s CPU      0.03s WALL (     272 calls)
     cegterg      :      0.85s CPU      0.92s WALL (     112 calls)

     Called by sum_band:
     sum_band:bec :      0.00s CPU      0.00s WALL (     112 calls)
     addusdens    :      0.02s CPU      0.02s WALL (       7 calls)

     Called by *egterg:
     h_psi        :      0.78s CPU      0.85s WALL (     375 calls)
     s_psi        :      0.01s CPU      0.01s WALL (     375 calls)
     g_psi        :      0.00s CPU      0.00s WALL (     247 calls)
     cdiaghg      :      0.04s CPU      0.04s WALL (     343 calls)

     Called by h_psi:
     h_psi:pot    :      0.78s CPU      0.85s WALL (     375 calls)
     h_psi:calbec :      0.03s CPU      0.03s WALL (     375 calls)
     vloc_psi     :      0.74s CPU      0.81s WALL (     375 calls)
     add_vuspsi   :      0.01s CPU      0.01s WALL (     375 calls)

     General routines
     calbec       :      0.04s CPU      0.04s WALL (     567 calls)
     fft          :      0.04s CPU      0.04s WALL (     104 calls)
     ffts         :      0.00s CPU      0.00s WALL (       7 calls)
     fftw         :      0.84s CPU      0.91s WALL (    4158 calls)

     Parallel routines
     fft_scatt_xy :      0.07s CPU      0.08s WALL (    4269 calls)
     fft_scatt_yz :      0.24s CPU      0.26s WALL (    4269 calls)

     PWSCF        :     2.11s CPU         2.31s WALL


   This run was terminated on:  20:13:55  25Mar2024            

=------------------------------------------------------------------------------=
   JOB DONE.
=------------------------------------------------------------------------------=
