
     Program PWSCF v.6.3MaX starts on 25Mar2024 at 19:53:14 

     This program is part of the open-source Quantum ESPRESSO suite
     for quantum simulation of materials; please cite
         "P. Giannozzi et al., J. Phys.:Condens. Matter 21 395502 (2009);
         "P. Giannozzi et al., J. Phys.:Condens. Matter 29 465901 (2017);
          URL http://www.quantum-espresso.org", 
     in publications or presentations arising from this work. More details at
     http://www.quantum-espresso.org/quote

     Parallel version (MPI), running on     5 processors

     MPI processes distributed on     1 nodes
     R & G space division:  proc/nbgrp/npool/nimage =       5
     Waiting for input...
     Reading input from standard input

     Current dimensions of program PWSCF are:
     Max number of different atomic species (ntypx) = 10
     Max number of k-points (npk) =  40000
     Max angular momentum in pseudopotentials (lmaxx) =  3
               file Al.pbe-n-kjpaw_psl.1.0.0.UPF: wavefunction(s)  3S 3P renormalized

     Subspace diagonalization in iterative solution of the eigenvalue problem:
     a serial algorithm will be used


     Parallelization info
     --------------------
     sticks:   dense  smooth     PW     G-vecs:    dense   smooth      PW
     Min         161     161     50                 3017     3017     527
     Max         161     161     51                 3018     3018     528
     Sum         805     805    253                15089    15089    2637



     bravais-lattice index     =            2
     lattice parameter (alat)  =       7.6500  a.u.
     unit-cell volume          =     111.9243 (a.u.)^3
     number of atoms/cell      =            1
     number of atomic types    =            1
     number of electrons       =         3.00
     number of Kohn-Sham states=            6
     kinetic-energy cutoff     =     100.0000  Ry
     charge density cutoff     =     400.0000  Ry
     convergence threshold     =      1.0E-08
     mixing beta               =       0.7000
     number of iterations used =            8  plain     mixing
     Exchange-correlation      = SLA PW PBX PBC ( 1  4  3  4 0 0)

     celldm(1)=   7.650000  celldm(2)=   0.000000  celldm(3)=   0.000000
     celldm(4)=   0.000000  celldm(5)=   0.000000  celldm(6)=   0.000000

     crystal axes: (cart. coord. in units of alat)
               a(1) = (  -0.500000   0.000000   0.500000 )  
               a(2) = (   0.000000   0.500000   0.500000 )  
               a(3) = (  -0.500000   0.500000   0.000000 )  

     reciprocal axes: (cart. coord. in units 2 pi/alat)
               b(1) = ( -1.000000 -1.000000  1.000000 )  
               b(2) = (  1.000000  1.000000  1.000000 )  
               b(3) = ( -1.000000  1.000000 -1.000000 )  


     PseudoPot. # 1 for Al read from file:
     /home/lorenzo/pseudos/Al/Al.pbe-n-kjpaw_psl.1.0.0.UPF
     MD5 check sum: 502b6b27b9c6270cab5dd1084b96fa6d
     Pseudo is Projector augmented-wave + core cor, Zval =  3.0
     Generated using "atomic" code by A. Dal Corso v.6.3
     Shape of augmentation charge: PSQ
     Using radial grid of 1135 points,  6 beta functions with: 
                l(1) =   0
                l(2) =   0
                l(3) =   1
                l(4) =   1
                l(5) =   2
                l(6) =   2
     Q(r) pseudized with 0 coefficients 


     atomic species   valence    mass     pseudopotential
        Al             3.00    26.98150     Al( 1.00)

     48 Sym. Ops., with inversion, found



   Cartesian axes

     site n.     atom                  positions (alat units)
         1           Al  tau(   1) = (   0.0000000   0.0000000   0.0000000  )

     number of k points=    35  gaussian smearing, width (Ry)=  0.0100
                       cart. coord. in units 2pi/alat
        k(    1) = (   0.0000000   0.0000000   0.0000000), wk =   0.0027435
        k(    2) = (  -0.1111111   0.1111111  -0.1111111), wk =   0.0219479
        k(    3) = (  -0.2222222   0.2222222  -0.2222222), wk =   0.0219479
        k(    4) = (  -0.3333333   0.3333333  -0.3333333), wk =   0.0219479
        k(    5) = (  -0.4444444   0.4444444  -0.4444444), wk =   0.0219479
        k(    6) = (   0.0000000   0.2222222   0.0000000), wk =   0.0164609
        k(    7) = (  -0.1111111   0.3333333  -0.1111111), wk =   0.0658436
        k(    8) = (  -0.2222222   0.4444444  -0.2222222), wk =   0.0658436
        k(    9) = (  -0.3333333   0.5555556  -0.3333333), wk =   0.0658436
        k(   10) = (   0.5555556  -0.3333333   0.5555556), wk =   0.0658436
        k(   11) = (   0.4444444  -0.2222222   0.4444444), wk =   0.0658436
        k(   12) = (   0.3333333  -0.1111111   0.3333333), wk =   0.0658436
        k(   13) = (   0.2222222  -0.0000000   0.2222222), wk =   0.0329218
        k(   14) = (   0.0000000   0.4444444   0.0000000), wk =   0.0164609
        k(   15) = (  -0.1111111   0.5555556  -0.1111111), wk =   0.0658436
        k(   16) = (  -0.2222222   0.6666667  -0.2222222), wk =   0.0658436
        k(   17) = (   0.6666667  -0.2222222   0.6666667), wk =   0.0658436
        k(   18) = (   0.5555556  -0.1111111   0.5555556), wk =   0.0658436
        k(   19) = (   0.4444444   0.0000000   0.4444444), wk =   0.0329218
        k(   20) = (   0.0000000   0.6666667   0.0000000), wk =   0.0164609
        k(   21) = (  -0.1111111   0.7777778  -0.1111111), wk =   0.0658436
        k(   22) = (   0.7777778  -0.1111111   0.7777778), wk =   0.0658436
        k(   23) = (   0.6666667  -0.0000000   0.6666667), wk =   0.0329218
        k(   24) = (   0.0000000   0.8888889   0.0000000), wk =   0.0164609
        k(   25) = (   0.8888889   0.0000000   0.8888889), wk =   0.0329218
        k(   26) = (  -0.2222222   0.4444444   0.0000000), wk =   0.0658436
        k(   27) = (  -0.3333333   0.5555556  -0.1111111), wk =   0.1316872
        k(   28) = (   0.5555556  -0.3333333   0.7777778), wk =   0.1316872
        k(   29) = (  -0.2222222   0.6666667   0.0000000), wk =   0.0658436
        k(   30) = (   0.6666667  -0.2222222   0.8888889), wk =   0.1316872
        k(   31) = (   0.5555556  -0.1111111   0.7777778), wk =   0.1316872
        k(   32) = (   0.4444444   0.0000000   0.6666667), wk =   0.0658436
        k(   33) = (   0.7777778  -0.1111111   1.0000000), wk =   0.0658436
        k(   34) = (   0.6666667  -0.0000000   0.8888889), wk =   0.0658436
        k(   35) = (   0.5555556  -0.1111111   1.0000000), wk =   0.0658436

     Dense  grid:    15089 G-vectors     FFT dimensions: (  36,  36,  36)

     Estimated max dynamical RAM per process >      14.53 MB

     Estimated total dynamical RAM >      72.63 MB

     Initial potential from superposition of free atoms

     starting charge    2.99771, renormalised to    3.00000
     Starting wfcs are    4 randomized atomic wfcs +    2 random wfcs
     Checking if some PAW data can be deallocated... 

     total cpu time spent up to now is        1.2 secs

     Self-consistent Calculation

     iteration #  1     ecut=   100.00 Ry     beta= 0.70
     Davidson diagonalization with overlap
     ethr =  1.00E-02,  avg # of iterations =  4.8

     Threshold (ethr) on eigenvalues was too large:
     Diagonalizing with lowered threshold

     Davidson diagonalization with overlap
     ethr =  1.83E-04,  avg # of iterations =  2.0

     total cpu time spent up to now is        2.4 secs

     total energy              =     -39.50082361 Ry
     Harris-Foulkes estimate   =     -39.50196219 Ry
     estimated scf accuracy    <       0.00544540 Ry

     iteration #  2     ecut=   100.00 Ry     beta= 0.70
     Davidson diagonalization with overlap
     ethr =  1.82E-04,  avg # of iterations =  1.0

     total cpu time spent up to now is        2.9 secs

     total energy              =     -39.50078174 Ry
     Harris-Foulkes estimate   =     -39.50086894 Ry
     estimated scf accuracy    <       0.00039940 Ry

     iteration #  3     ecut=   100.00 Ry     beta= 0.70
     Davidson diagonalization with overlap
     ethr =  1.33E-05,  avg # of iterations =  1.5

     total cpu time spent up to now is        3.5 secs

     total energy              =     -39.50078995 Ry
     Harris-Foulkes estimate   =     -39.50079007 Ry
     estimated scf accuracy    <       0.00000044 Ry

     iteration #  4     ecut=   100.00 Ry     beta= 0.70
     Davidson diagonalization with overlap
     ethr =  1.47E-08,  avg # of iterations =  3.1

     total cpu time spent up to now is        4.1 secs

     total energy              =     -39.50079105 Ry
     Harris-Foulkes estimate   =     -39.50079106 Ry
     estimated scf accuracy    <       0.00000001 Ry

     iteration #  5     ecut=   100.00 Ry     beta= 0.70
     Davidson diagonalization with overlap
     ethr =  4.21E-10,  avg # of iterations =  1.3

     total cpu time spent up to now is        4.5 secs

     End of self-consistent calculation

          k = 0.0000 0.0000 0.0000 (  1917 PWs)   bands (ev):

    -3.2492  20.4342  20.4342  21.8947  21.8947  21.8947

          k =-0.1111 0.1111-0.1111 (  1886 PWs)   bands (ev):

    -2.9149  16.7076  19.6077  19.6077  22.5632  23.2066

          k =-0.2222 0.2222-0.2222 (  1901 PWs)   bands (ev):

    -1.9165  12.3223  18.8366  18.8366  22.2378  23.0479

          k =-0.3333 0.3333-0.3333 (  1898 PWs)   bands (ev):

    -0.2679   8.3476  18.5839  18.5839  21.1659  21.1659

          k =-0.4444 0.4444-0.4444 (  1889 PWs)   bands (ev):

     2.0085   4.8974  18.8847  18.8847  19.7506  19.7506

          k = 0.0000 0.2222 0.0000 (  1900 PWs)   bands (ev):

    -2.8036  18.0512  18.0512  18.3371  20.9488  23.1646

          k =-0.1111 0.3333-0.1111 (  1899 PWs)   bands (ev):

    -2.0270  13.9629  17.0298  18.4957  20.3959  21.9081

          k =-0.2222 0.4444-0.2222 (  1902 PWs)   bands (ev):

    -0.5962   9.8773  16.5696  18.1030  18.3042  24.2465

          k =-0.3333 0.5556-0.3333 (  1900 PWs)   bands (ev):

     1.4695   6.2615  16.5080  16.6756  18.3936  22.7102

          k = 0.5556-0.3333 0.5556 (  1882 PWs)   bands (ev):

     3.1792   4.1611  15.4185  17.3500  19.1334  21.6778

          k = 0.4444-0.2222 0.4444 (  1894 PWs)   bands (ev):

     0.7122   7.4033  14.9244  18.5893  20.4507  21.1936

          k = 0.3333-0.1111 0.3333 (  1898 PWs)   bands (ev):

    -1.1448  11.1674  15.0486  20.3451  21.2646  22.2917

          k = 0.2222-0.0000 0.2222 (  1899 PWs)   bands (ev):

    -2.3593  14.9868  16.1383  21.3027  22.1350  23.3337

          k = 0.0000 0.4444 0.0000 (  1904 PWs)   bands (ev):

    -1.4750  15.7967  15.7967  15.8388  17.4564  19.2217

          k =-0.1111 0.5556-0.1111 (  1895 PWs)   bands (ev):

    -0.2684  11.9297  14.9601  15.1369  16.5815  20.2297

          k =-0.2222 0.6667-0.2222 (  1895 PWs)   bands (ev):

     1.5752   8.2179  13.0502  15.0481  16.7172  23.2395

          k = 0.6667-0.2222 0.6667 (  1881 PWs)   bands (ev):

     4.0155   5.0076  11.7398  15.5299  17.3089  25.0197

          k = 0.5556-0.1111 0.5556 (  1894 PWs)   bands (ev):

     2.3297   7.0378  11.0808  16.5833  18.4847  24.3631

          k = 0.4444 0.0000 0.4444 (  1889 PWs)   bands (ev):

     0.2773  10.0687  11.5610  18.2045  20.2113  23.8835

          k = 0.0000 0.6667 0.0000 (  1876 PWs)   bands (ev):

     0.7098  12.2204  14.0992  14.2819  14.2819  17.7633

          k =-0.1111 0.7778-0.1111 (  1903 PWs)   bands (ev):

     2.3204  10.0330  10.7480  13.9996  15.3287  19.1300

          k = 0.7778-0.1111 0.7778 (  1881 PWs)   bands (ev):

     4.5123   7.3581   8.6121  14.2882  15.8882  22.5586

          k = 0.6667-0.0000 0.6667 (  1896 PWs)   bands (ev):

     4.5572   6.7828   8.2396  15.1487  16.9094  26.4600

          k = 0.0000 0.8889 0.0000 (  1896 PWs)   bands (ev):

     3.6709   7.7166  13.2196  13.5249  13.5249  16.9680

          k = 0.8889 0.0000 0.8889 (  1880 PWs)   bands (ev):

     5.1456   6.4674  10.3057  13.6209  14.9045  18.7483

          k =-0.2222 0.4444 0.0000 (  1900 PWs)   bands (ev):

    -1.0349  12.5362  13.8793  17.8407  19.8599  21.6401

          k =-0.3333 0.5556-0.1111 (  1895 PWs)   bands (ev):

     0.6031   9.1099  13.0797  15.7742  20.2990  22.9866

          k = 0.5556-0.3333 0.7778 (  1884 PWs)   bands (ev):

     2.8627   5.7281  13.3108  14.3038  20.6800  21.6729

          k =-0.2222 0.6667 0.0000 (  1894 PWs)   bands (ev):

     1.1431  10.8930  12.1486  12.8151  18.2998  20.3308

          k = 0.6667-0.2222 0.8889 (  1875 PWs)   bands (ev):

     3.1750   7.8603  10.8645  11.9628  19.1871  23.0083

          k = 0.5556-0.1111 0.7778 (  1877 PWs)   bands (ev):

     4.8575   5.7960   9.8285  12.5841  20.0023  24.2118

          k = 0.4444 0.0000 0.6667 (  1886 PWs)   bands (ev):

     2.4352   8.4245   9.9083  13.8813  21.2870  23.1501

          k = 0.7778-0.1111 1.0000 (  1872 PWs)   bands (ev):

     4.0927   8.1271  10.0699  11.5457  17.4969  19.6087

          k = 0.6667-0.0000 0.8889 (  1885 PWs)   bands (ev):

     5.9635   7.1560   7.6422  11.5114  18.7973  22.6936

          k = 0.5556-0.1111 1.0000 (  1888 PWs)   bands (ev):

     5.3498   7.6033   8.8585   9.6796  22.3967  23.4084

     the Fermi energy is     7.8209 ev

!    total energy              =     -39.50079105 Ry
     Harris-Foulkes estimate   =     -39.50079105 Ry
     estimated scf accuracy    <          8.5E-11 Ry

     total all-electron energy =      -485.643571 Ry

     The total energy is the sum of the following terms:

     one-electron contribution =       3.15477413 Ry
     hartree contribution      =       0.00599853 Ry
     xc contribution           =      -2.58811862 Ry
     ewald contribution        =      -5.39395538 Ry
     one-center paw contrib.   =     -34.67907364 Ry
     smearing contrib. (-TS)   =      -0.00041607 Ry

     convergence has been achieved in   5 iterations

     Forces acting on atoms (cartesian axes, Ry/au):

     atom    1 type  1   force =     0.00000000    0.00000000    0.00000000

     Total force =     0.000000     Total SCF correction =     0.000000


     Computing stress (Cartesian axis) and pressure

          total   stress  (Ry/bohr**3)                   (kbar)     P=   -1.74
  -0.00001180   0.00000000   0.00000000         -1.74      0.00      0.00
   0.00000000  -0.00001180  -0.00000000          0.00     -1.74     -0.00
   0.00000000  -0.00000000  -0.00001180          0.00     -0.00     -1.74


     Writing output data file Al.save/

     init_run     :      0.48s CPU      0.51s WALL (       1 calls)
     electrons    :      3.15s CPU      3.34s WALL (       1 calls)
     forces       :      0.07s CPU      0.07s WALL (       1 calls)
     stress       :      0.30s CPU      0.30s WALL (       1 calls)

     Called by init_run:
     wfcinit      :      0.13s CPU      0.14s WALL (       1 calls)
     potinit      :      0.11s CPU      0.13s WALL (       1 calls)
     hinit0       :      0.20s CPU      0.20s WALL (       1 calls)

     Called by electrons:
     c_bands      :      2.08s CPU      2.22s WALL (       6 calls)
     sum_band     :      0.49s CPU      0.52s WALL (       6 calls)
     v_of_rho     :      0.06s CPU      0.06s WALL (       6 calls)
     newd         :      0.09s CPU      0.10s WALL (       6 calls)
     PAW_pot      :      0.54s CPU      0.57s WALL (       6 calls)
     mix_rho      :      0.00s CPU      0.00s WALL (       6 calls)

     Called by c_bands:
     init_us_2    :      0.11s CPU      0.12s WALL (     525 calls)
     cegterg      :      1.95s CPU      2.08s WALL (     210 calls)

     Called by sum_band:
     sum_band:bec :      0.00s CPU      0.00s WALL (     210 calls)
     addusdens    :      0.08s CPU      0.09s WALL (       6 calls)

     Called by *egterg:
     h_psi        :      1.71s CPU      1.83s WALL (     723 calls)
     s_psi        :      0.05s CPU      0.05s WALL (     723 calls)
     g_psi        :      0.00s CPU      0.01s WALL (     478 calls)
     cdiaghg      :      0.08s CPU      0.08s WALL (     653 calls)

     Called by h_psi:
     h_psi:pot    :      1.70s CPU      1.82s WALL (     723 calls)
     h_psi:calbec :      0.09s CPU      0.09s WALL (     723 calls)
     vloc_psi     :      1.56s CPU      1.67s WALL (     723 calls)
     add_vuspsi   :      0.05s CPU      0.05s WALL (     723 calls)

     General routines
     calbec       :      0.16s CPU      0.17s WALL (    1108 calls)
     fft          :      0.05s CPU      0.05s WALL (      93 calls)
     ffts         :      0.00s CPU      0.00s WALL (       6 calls)
     fftw         :      1.75s CPU      1.87s WALL (    8046 calls)

     Parallel routines
     fft_scatt_xy :      0.14s CPU      0.15s WALL (    8145 calls)
     fft_scatt_yz :      0.54s CPU      0.58s WALL (    8145 calls)

     PWSCF        :     4.70s CPU         4.99s WALL


   This run was terminated on:  19:53:19  25Mar2024            

=------------------------------------------------------------------------------=
   JOB DONE.
=------------------------------------------------------------------------------=
