
     Program PWSCF v.6.3MaX starts on 25Mar2024 at 19:57:11 

     This program is part of the open-source Quantum ESPRESSO suite
     for quantum simulation of materials; please cite
         "P. Giannozzi et al., J. Phys.:Condens. Matter 21 395502 (2009);
         "P. Giannozzi et al., J. Phys.:Condens. Matter 29 465901 (2017);
          URL http://www.quantum-espresso.org", 
     in publications or presentations arising from this work. More details at
     http://www.quantum-espresso.org/quote

     Parallel version (MPI), running on     5 processors

     MPI processes distributed on     1 nodes
     R & G space division:  proc/nbgrp/npool/nimage =       5
     Waiting for input...
     Reading input from standard input

     Current dimensions of program PWSCF are:
     Max number of different atomic species (ntypx) = 10
     Max number of k-points (npk) =  40000
     Max angular momentum in pseudopotentials (lmaxx) =  3
               file Al.pbe-nl-kjpaw_psl.1.0.0.UPF: wavefunction(s)  3S 3P renormalized

     Subspace diagonalization in iterative solution of the eigenvalue problem:
     a serial algorithm will be used


     Parallelization info
     --------------------
     sticks:   dense  smooth     PW     G-vecs:    dense   smooth      PW
     Min          48      48     17                  488      488     106
     Max          49      49     17                  491      491     107
     Sum         241     241     85                 2445     2445     531



     bravais-lattice index     =            2
     lattice parameter (alat)  =       7.6500  a.u.
     unit-cell volume          =     111.9243 (a.u.)^3
     number of atoms/cell      =            1
     number of atomic types    =            1
     number of electrons       =         3.00
     number of Kohn-Sham states=            6
     kinetic-energy cutoff     =      30.0000  Ry
     charge density cutoff     =     120.0000  Ry
     convergence threshold     =      1.0E-08
     mixing beta               =       0.7000
     number of iterations used =            8  plain     mixing
     Exchange-correlation      = SLA PW PBX PBC ( 1  4  3  4 0 0)

     celldm(1)=   7.650000  celldm(2)=   0.000000  celldm(3)=   0.000000
     celldm(4)=   0.000000  celldm(5)=   0.000000  celldm(6)=   0.000000

     crystal axes: (cart. coord. in units of alat)
               a(1) = (  -0.500000   0.000000   0.500000 )  
               a(2) = (   0.000000   0.500000   0.500000 )  
               a(3) = (  -0.500000   0.500000   0.000000 )  

     reciprocal axes: (cart. coord. in units 2 pi/alat)
               b(1) = ( -1.000000 -1.000000  1.000000 )  
               b(2) = (  1.000000  1.000000  1.000000 )  
               b(3) = ( -1.000000  1.000000 -1.000000 )  


     PseudoPot. # 1 for Al read from file:
     /home/lorenzo/pseudos/Al/Al.pbe-nl-kjpaw_psl.1.0.0.UPF
     MD5 check sum: 8cf6d98cc7ef3f4b729b574060f3a10f
     Pseudo is Projector augmented-wave + core cor, Zval =  3.0
     Generated using "atomic" code by A. Dal Corso v.6.3
     Shape of augmentation charge: PSQ
     Using radial grid of 1135 points,  4 beta functions with: 
                l(1) =   0
                l(2) =   0
                l(3) =   1
                l(4) =   1
     Q(r) pseudized with 0 coefficients 


     atomic species   valence    mass     pseudopotential
        Al             3.00    26.98150     Al( 1.00)

     48 Sym. Ops., with inversion, found



   Cartesian axes

     site n.     atom                  positions (alat units)
         1           Al  tau(   1) = (   0.0000000   0.0000000   0.0000000  )

     number of k points=    47  gaussian smearing, width (Ry)=  0.0100
                       cart. coord. in units 2pi/alat
        k(    1) = (   0.0000000   0.0000000   0.0000000), wk =   0.0020000
        k(    2) = (  -0.1000000   0.1000000  -0.1000000), wk =   0.0160000
        k(    3) = (  -0.2000000   0.2000000  -0.2000000), wk =   0.0160000
        k(    4) = (  -0.3000000   0.3000000  -0.3000000), wk =   0.0160000
        k(    5) = (  -0.4000000   0.4000000  -0.4000000), wk =   0.0160000
        k(    6) = (   0.5000000  -0.5000000   0.5000000), wk =   0.0080000
        k(    7) = (   0.0000000   0.2000000   0.0000000), wk =   0.0120000
        k(    8) = (  -0.1000000   0.3000000  -0.1000000), wk =   0.0480000
        k(    9) = (  -0.2000000   0.4000000  -0.2000000), wk =   0.0480000
        k(   10) = (  -0.3000000   0.5000000  -0.3000000), wk =   0.0480000
        k(   11) = (   0.6000000  -0.4000000   0.6000000), wk =   0.0480000
        k(   12) = (   0.5000000  -0.3000000   0.5000000), wk =   0.0480000
        k(   13) = (   0.4000000  -0.2000000   0.4000000), wk =   0.0480000
        k(   14) = (   0.3000000  -0.1000000   0.3000000), wk =   0.0480000
        k(   15) = (   0.2000000   0.0000000   0.2000000), wk =   0.0240000
        k(   16) = (   0.0000000   0.4000000   0.0000000), wk =   0.0120000
        k(   17) = (  -0.1000000   0.5000000  -0.1000000), wk =   0.0480000
        k(   18) = (  -0.2000000   0.6000000  -0.2000000), wk =   0.0480000
        k(   19) = (   0.7000000  -0.3000000   0.7000000), wk =   0.0480000
        k(   20) = (   0.6000000  -0.2000000   0.6000000), wk =   0.0480000
        k(   21) = (   0.5000000  -0.1000000   0.5000000), wk =   0.0480000
        k(   22) = (   0.4000000   0.0000000   0.4000000), wk =   0.0240000
        k(   23) = (   0.0000000   0.6000000   0.0000000), wk =   0.0120000
        k(   24) = (  -0.1000000   0.7000000  -0.1000000), wk =   0.0480000
        k(   25) = (   0.8000000  -0.2000000   0.8000000), wk =   0.0480000
        k(   26) = (   0.7000000  -0.1000000   0.7000000), wk =   0.0480000
        k(   27) = (   0.6000000  -0.0000000   0.6000000), wk =   0.0240000
        k(   28) = (   0.0000000   0.8000000   0.0000000), wk =   0.0120000
        k(   29) = (   0.9000000  -0.1000000   0.9000000), wk =   0.0480000
        k(   30) = (   0.8000000   0.0000000   0.8000000), wk =   0.0240000
        k(   31) = (   0.0000000  -1.0000000   0.0000000), wk =   0.0060000
        k(   32) = (  -0.2000000   0.4000000   0.0000000), wk =   0.0480000
        k(   33) = (  -0.3000000   0.5000000  -0.1000000), wk =   0.0960000
        k(   34) = (   0.6000000  -0.4000000   0.8000000), wk =   0.0960000
        k(   35) = (   0.5000000  -0.3000000   0.7000000), wk =   0.0480000
        k(   36) = (  -0.2000000   0.6000000   0.0000000), wk =   0.0480000
        k(   37) = (   0.7000000  -0.3000000   0.9000000), wk =   0.0960000
        k(   38) = (   0.6000000  -0.2000000   0.8000000), wk =   0.0960000
        k(   39) = (   0.5000000  -0.1000000   0.7000000), wk =   0.0960000
        k(   40) = (   0.4000000   0.0000000   0.6000000), wk =   0.0480000
        k(   41) = (   0.8000000  -0.2000000   1.0000000), wk =   0.0480000
        k(   42) = (   0.7000000  -0.1000000   0.9000000), wk =   0.0960000
        k(   43) = (   0.6000000   0.0000000   0.8000000), wk =   0.0480000
        k(   44) = (  -0.2000000  -1.0000000   0.0000000), wk =   0.0240000
        k(   45) = (   0.6000000  -0.2000000   1.0000000), wk =   0.0480000
        k(   46) = (   0.5000000  -0.1000000   0.9000000), wk =   0.0480000
        k(   47) = (  -0.4000000  -1.0000000   0.0000000), wk =   0.0240000

     Dense  grid:     2445 G-vectors     FFT dimensions: (  20,  20,  20)

     Estimated max dynamical RAM per process >       1.27 MB

     Estimated total dynamical RAM >       6.36 MB

     Initial potential from superposition of free atoms

     starting charge    2.99771, renormalised to    3.00000
     Starting wfcs are    4 randomized atomic wfcs +    2 random wfcs
     Checking if some PAW data can be deallocated... 

     total cpu time spent up to now is        0.5 secs

     Self-consistent Calculation

     iteration #  1     ecut=    30.00 Ry     beta= 0.70
     Davidson diagonalization with overlap
     ethr =  1.00E-02,  avg # of iterations =  4.7

     Threshold (ethr) on eigenvalues was too large:
     Diagonalizing with lowered threshold

     Davidson diagonalization with overlap
     ethr =  1.93E-04,  avg # of iterations =  2.3

     total cpu time spent up to now is        0.9 secs

     total energy              =     -39.50130565 Ry
     Harris-Foulkes estimate   =     -39.50285711 Ry
     estimated scf accuracy    <       0.00571223 Ry

     iteration #  2     ecut=    30.00 Ry     beta= 0.70
     Davidson diagonalization with overlap
     ethr =  1.90E-04,  avg # of iterations =  1.0

     total cpu time spent up to now is        1.0 secs

     total energy              =     -39.50130339 Ry
     Harris-Foulkes estimate   =     -39.50140075 Ry
     estimated scf accuracy    <       0.00038873 Ry

     iteration #  3     ecut=    30.00 Ry     beta= 0.70
     Davidson diagonalization with overlap
     ethr =  1.30E-05,  avg # of iterations =  1.5

     total cpu time spent up to now is        1.1 secs

     total energy              =     -39.50132600 Ry
     Harris-Foulkes estimate   =     -39.50132667 Ry
     estimated scf accuracy    <       0.00000162 Ry

     iteration #  4     ecut=    30.00 Ry     beta= 0.70
     Davidson diagonalization with overlap
     ethr =  5.41E-08,  avg # of iterations =  3.1

     total cpu time spent up to now is        1.3 secs

     total energy              =     -39.50132811 Ry
     Harris-Foulkes estimate   =     -39.50132810 Ry
     estimated scf accuracy    <       0.00000013 Ry

     iteration #  5     ecut=    30.00 Ry     beta= 0.70
     Davidson diagonalization with overlap
     ethr =  4.49E-09,  avg # of iterations =  1.0

     total cpu time spent up to now is        1.4 secs

     total energy              =     -39.50132810 Ry
     Harris-Foulkes estimate   =     -39.50132812 Ry
     estimated scf accuracy    <       0.00000004 Ry

     iteration #  6     ecut=    30.00 Ry     beta= 0.70
     Davidson diagonalization with overlap
     ethr =  1.17E-09,  avg # of iterations =  1.0

     total cpu time spent up to now is        1.6 secs

     End of self-consistent calculation

          k = 0.0000 0.0000 0.0000 (   331 PWs)   bands (ev):

    -3.2525  20.4464  20.4464  21.8745  21.8745  21.8745

          k =-0.1000 0.1000-0.1000 (   319 PWs)   bands (ev):

    -2.9817  17.1570  19.7109  19.7109  22.5556  23.0135

          k =-0.2000 0.2000-0.2000 (   311 PWs)   bands (ev):

    -2.1723  13.1720  18.9514  18.9514  22.2771  23.4309

          k =-0.3000 0.3000-0.3000 (   305 PWs)   bands (ev):

    -0.8332   9.4875  18.5998  18.5998  21.6939  21.6939

          k =-0.4000 0.4000-0.4000 (   311 PWs)   bands (ev):

     1.0214   6.2092  18.6940  18.6940  20.2521  20.2521

          k = 0.5000-0.5000 0.5000 (   302 PWs)   bands (ev):

     3.2757   3.4786  19.1935  19.1935  19.3006  19.3006

          k = 0.0000 0.2000 0.0000 (   315 PWs)   bands (ev):

    -2.8915  18.3140  18.3140  18.6159  21.0883  23.7325

          k =-0.1000 0.3000-0.1000 (   310 PWs)   bands (ev):

    -2.2620  14.6379  17.3384  18.7444  21.1321  21.9426

          k =-0.2000 0.4000-0.2000 (   310 PWs)   bands (ev):

    -1.1000  10.8779  16.8140  18.4132  19.1320  23.9638

          k =-0.3000 0.5000-0.3000 (   312 PWs)   bands (ev):

     0.5817   7.4734  16.7479  17.4570  18.4198  22.9459

          k = 0.6000-0.4000 0.6000 (   311 PWs)   bands (ev):

     2.7624   4.5030  16.2619  17.1421  18.8598  21.8133

          k = 0.5000-0.3000 0.5000 (   310 PWs)   bands (ev):

     1.9827   5.4398  15.5389  17.9967  19.7734  21.1202

          k = 0.4000-0.2000 0.4000 (   311 PWs)   bands (ev):

    -0.0356   8.5573  15.2998  19.2992  20.8804  21.1394

          k = 0.3000-0.1000 0.3000 (   311 PWs)   bands (ev):

    -1.5458  12.0703  15.5618  20.8293  21.2443  22.8996

          k = 0.2000 0.0000 0.2000 (   315 PWs)   bands (ev):

    -2.5315  15.5633  16.6330  21.1483  22.1885  23.3794

          k = 0.0000 0.4000 0.0000 (   303 PWs)   bands (ev):

    -1.8140  16.1863  16.1863  16.2891  18.5711  19.5573

          k =-0.1000 0.5000-0.1000 (   309 PWs)   bands (ev):

    -0.8334  12.6727  15.4975  16.2305  16.9272  20.2874

          k =-0.2000 0.6000-0.2000 (   316 PWs)   bands (ev):

     0.6687   9.2071  14.3808  15.2721  16.9366  22.7982

          k = 0.7000-0.3000 0.7000 (   312 PWs)   bands (ev):

     2.6739   6.1157  12.9955  15.5097  17.2651  24.8201

          k = 0.6000-0.2000 0.6000 (   307 PWs)   bands (ev):

     3.4517   5.1736  12.1057  16.2107  18.0599  23.9984

          k = 0.5000-0.1000 0.5000 (   308 PWs)   bands (ev):

     1.2837   8.0754  11.7554  17.3740  19.3244  23.5979

          k = 0.4000 0.0000 0.4000 (   311 PWs)   bands (ev):

    -0.3896  10.9252  12.3899  18.9905  21.0089  23.2391

          k = 0.0000 0.6000 0.0000 (   311 PWs)   bands (ev):

    -0.0366  13.7225  14.5395  14.6492  14.6492  18.1350

          k =-0.1000 0.7000-0.1000 (   313 PWs)   bands (ev):

     1.2802  11.2935  11.7216  14.2661  15.5786  19.1205

          k = 0.8000-0.2000 0.8000 (   307 PWs)   bands (ev):

     3.0965   8.1861  10.1183  14.3469  15.9394  21.9644

          k = 0.7000-0.1000 0.7000 (   305 PWs)   bands (ev):

     5.2680   5.5214   9.0843  14.8913  16.6165  25.3406

          k = 0.6000-0.0000 0.6000 (   303 PWs)   bands (ev):

     3.1091   7.5945   9.0729  15.9008  17.7543  26.8969

          k = 0.0000 0.8000 0.0000 (   322 PWs)   bands (ev):

     2.4041   9.4124  13.4760  13.7264  13.7264  17.1918

          k = 0.9000-0.1000 0.9000 (   316 PWs)   bands (ev):

     3.9999   7.6856  10.6975  13.6508  14.8963  18.5060

          k = 0.8000 0.0000 0.8000 (   310 PWs)   bands (ev):

     5.6002   6.9094   7.9317  14.0386  15.5978  21.6739

          k = 0.0000-1.0000 0.0000 (   302 PWs)   bands (ev):

     4.9368   6.2543  13.1204  13.4192  13.4192  16.8657

          k =-0.2000 0.4000 0.0000 (   310 PWs)   bands (ev):

    -1.4566  13.2548  14.5329  18.8548  19.8160  21.6040

          k =-0.3000 0.5000-0.1000 (   312 PWs)   bands (ev):

    -0.1242  10.0804  13.6750  16.8806  20.1321  23.1659

          k = 0.6000-0.4000 0.8000 (   313 PWs)   bands (ev):

     1.7203   6.8696  13.7042  15.3618  20.3242  22.0033

          k = 0.5000-0.3000 0.7000 (   310 PWs)   bands (ev):

     3.9451   4.1795  14.0990  14.4753  20.7514  21.1435

          k =-0.2000 0.6000 0.0000 (   313 PWs)   bands (ev):

     0.3165  11.5934  12.9044  14.1219  18.2463  20.2976

          k = 0.7000-0.3000 0.9000 (   311 PWs)   bands (ev):

     1.9789   8.7379  12.1251  12.6224  18.9342  22.4937

          k = 0.6000-0.2000 0.8000 (   310 PWs)   bands (ev):

     4.1251   5.8530  11.0894  12.7924  19.4746  24.0473

          k = 0.5000-0.1000 0.7000 (   309 PWs)   bands (ev):

     3.3653   6.7272  10.4187  13.6654  20.3942  23.3472

          k = 0.4000 0.0000 0.6000 (   310 PWs)   bands (ev):

     1.3706   9.2596  10.7439  15.0396  21.7021  22.4878

          k = 0.8000-0.2000 1.0000 (   315 PWs)   bands (ev):

     2.7508   9.7294  10.5937  12.0336  17.2713  19.4280

          k = 0.7000-0.1000 0.9000 (   306 PWs)   bands (ev):

     4.6806   7.9817   8.4699  11.7653  18.2995  21.9532

          k = 0.6000 0.0000 0.8000 (   308 PWs)   bands (ev):

     5.4859   6.5967   8.0433  12.4496  19.1690  25.3246

          k =-0.2000-1.0000 0.0000 (   312 PWs)   bands (ev):

     5.2684   6.6018  10.2601  11.6933  16.9442  19.1267

          k = 0.6000-0.2000 1.0000 (   305 PWs)   bands (ev):

     3.7854   8.2605   9.6579  10.8931  21.5715  22.9225

          k = 0.5000-0.1000 0.9000 (   310 PWs)   bands (ev):

     5.9254   6.1557   9.4592  10.0890  22.5354  22.9922

          k =-0.4000-1.0000 0.0000 (   312 PWs)   bands (ev):

     6.2643   7.5916   7.9274   9.5232  21.2535  22.8258

     the Fermi energy is     7.9849 ev

!    total energy              =     -39.50132810 Ry
     Harris-Foulkes estimate   =     -39.50132810 Ry
     estimated scf accuracy    <          8.8E-11 Ry

     total all-electron energy =      -485.644109 Ry

     The total energy is the sum of the following terms:

     one-electron contribution =       3.15202240 Ry
     hartree contribution      =       0.00590929 Ry
     xc contribution           =      -2.58784100 Ry
     ewald contribution        =      -5.39395543 Ry
     one-center paw contrib.   =     -34.67685980 Ry
     smearing contrib. (-TS)   =      -0.00060357 Ry

     convergence has been achieved in   6 iterations

     Forces acting on atoms (cartesian axes, Ry/au):

     atom    1 type  1   force =     0.00000000    0.00000000    0.00000000

     Total force =     0.000000     Total SCF correction =     0.000000


     Computing stress (Cartesian axis) and pressure

          total   stress  (Ry/bohr**3)                   (kbar)     P=   -5.31
  -0.00003607   0.00000000   0.00000000         -5.31      0.00      0.00
   0.00000000  -0.00003607  -0.00000000          0.00     -5.31     -0.00
   0.00000000  -0.00000000  -0.00003607          0.00     -0.00     -5.31


     Writing output data file Al.save/

     init_run     :      0.12s CPU      0.14s WALL (       1 calls)
     electrons    :      0.89s CPU      1.02s WALL (       1 calls)
     forces       :      0.01s CPU      0.01s WALL (       1 calls)
     stress       :      0.03s CPU      0.03s WALL (       1 calls)

     Called by init_run:
     wfcinit      :      0.03s CPU      0.04s WALL (       1 calls)
     potinit      :      0.03s CPU      0.03s WALL (       1 calls)
     hinit0       :      0.05s CPU      0.06s WALL (       1 calls)

     Called by electrons:
     c_bands      :      0.63s CPU      0.71s WALL (       7 calls)
     sum_band     :      0.11s CPU      0.13s WALL (       7 calls)
     v_of_rho     :      0.01s CPU      0.01s WALL (       7 calls)
     newd         :      0.01s CPU      0.01s WALL (       7 calls)
     PAW_pot      :      0.15s CPU      0.19s WALL (       7 calls)
     mix_rho      :      0.00s CPU      0.00s WALL (       7 calls)

     Called by c_bands:
     init_us_2    :      0.02s CPU      0.02s WALL (     799 calls)
     cegterg      :      0.61s CPU      0.69s WALL (     329 calls)

     Called by sum_band:
     sum_band:bec :      0.00s CPU      0.00s WALL (     329 calls)
     addusdens    :      0.00s CPU      0.00s WALL (       7 calls)

     Called by *egterg:
     h_psi        :      0.48s CPU      0.54s WALL (    1063 calls)
     s_psi        :      0.01s CPU      0.01s WALL (    1063 calls)
     g_psi        :      0.00s CPU      0.00s WALL (     687 calls)
     cdiaghg      :      0.07s CPU      0.08s WALL (     969 calls)

     Called by h_psi:
     h_psi:pot    :      0.47s CPU      0.54s WALL (    1063 calls)
     h_psi:calbec :      0.02s CPU      0.02s WALL (    1063 calls)
     vloc_psi     :      0.44s CPU      0.50s WALL (    1063 calls)
     add_vuspsi   :      0.01s CPU      0.01s WALL (    1063 calls)

     General routines
     calbec       :      0.03s CPU      0.03s WALL (    1627 calls)
     fft          :      0.01s CPU      0.01s WALL (     104 calls)
     ffts         :      0.00s CPU      0.00s WALL (       7 calls)
     fftw         :      0.49s CPU      0.55s WALL (   12154 calls)

     Parallel routines
     fft_scatt_xy :      0.04s CPU      0.05s WALL (   12265 calls)
     fft_scatt_yz :      0.16s CPU      0.18s WALL (   12265 calls)

     PWSCF        :     1.48s CPU         1.69s WALL


   This run was terminated on:  19:57:12  25Mar2024            

=------------------------------------------------------------------------------=
   JOB DONE.
=------------------------------------------------------------------------------=
