
     Program PWSCF v.6.3MaX starts on 25Mar2024 at 20:11:58 

     This program is part of the open-source Quantum ESPRESSO suite
     for quantum simulation of materials; please cite
         "P. Giannozzi et al., J. Phys.:Condens. Matter 21 395502 (2009);
         "P. Giannozzi et al., J. Phys.:Condens. Matter 29 465901 (2017);
          URL http://www.quantum-espresso.org", 
     in publications or presentations arising from this work. More details at
     http://www.quantum-espresso.org/quote

     Parallel version (MPI), running on     5 processors

     MPI processes distributed on     1 nodes
     R & G space division:  proc/nbgrp/npool/nimage =       5
     Waiting for input...
     Reading input from standard input

     Current dimensions of program PWSCF are:
     Max number of different atomic species (ntypx) = 10
     Max number of k-points (npk) =  40000
     Max angular momentum in pseudopotentials (lmaxx) =  3
               file Al.pbe-n-kjpaw_psl.1.0.0.UPF: wavefunction(s)  3S 3P renormalized

     Subspace diagonalization in iterative solution of the eigenvalue problem:
     a serial algorithm will be used


     Parallelization info
     --------------------
     sticks:   dense  smooth     PW     G-vecs:    dense   smooth      PW
     Min         135     135     42                 2387     2387     397
     Max         139     139     43                 2387     2387     398
     Sum         685     685    211                11935    11935    1989



     bravais-lattice index     =            2
     lattice parameter (alat)  =       7.6500  a.u.
     unit-cell volume          =     111.9243 (a.u.)^3
     number of atoms/cell      =            1
     number of atomic types    =            1
     number of electrons       =         3.00
     number of Kohn-Sham states=            6
     kinetic-energy cutoff     =      85.0000  Ry
     charge density cutoff     =     340.0000  Ry
     convergence threshold     =      1.0E-08
     mixing beta               =       0.7000
     number of iterations used =            8  plain     mixing
     Exchange-correlation      = SLA PW PBX PBC ( 1  4  3  4 0 0)

     celldm(1)=   7.650000  celldm(2)=   0.000000  celldm(3)=   0.000000
     celldm(4)=   0.000000  celldm(5)=   0.000000  celldm(6)=   0.000000

     crystal axes: (cart. coord. in units of alat)
               a(1) = (  -0.500000   0.000000   0.500000 )  
               a(2) = (   0.000000   0.500000   0.500000 )  
               a(3) = (  -0.500000   0.500000   0.000000 )  

     reciprocal axes: (cart. coord. in units 2 pi/alat)
               b(1) = ( -1.000000 -1.000000  1.000000 )  
               b(2) = (  1.000000  1.000000  1.000000 )  
               b(3) = ( -1.000000  1.000000 -1.000000 )  


     PseudoPot. # 1 for Al read from file:
     /home/lorenzo/pseudos/Al/Al.pbe-n-kjpaw_psl.1.0.0.UPF
     MD5 check sum: 502b6b27b9c6270cab5dd1084b96fa6d
     Pseudo is Projector augmented-wave + core cor, Zval =  3.0
     Generated using "atomic" code by A. Dal Corso v.6.3
     Shape of augmentation charge: PSQ
     Using radial grid of 1135 points,  6 beta functions with: 
                l(1) =   0
                l(2) =   0
                l(3) =   1
                l(4) =   1
                l(5) =   2
                l(6) =   2
     Q(r) pseudized with 0 coefficients 


     atomic species   valence    mass     pseudopotential
        Al             3.00    26.98150     Al( 1.00)

     48 Sym. Ops., with inversion, found



   Cartesian axes

     site n.     atom                  positions (alat units)
         1           Al  tau(   1) = (   0.0000000   0.0000000   0.0000000  )

     number of k points=    10  gaussian smearing, width (Ry)=  0.0100
                       cart. coord. in units 2pi/alat
        k(    1) = (   0.0000000   0.0000000   0.0000000), wk =   0.0160000
        k(    2) = (  -0.2000000   0.2000000  -0.2000000), wk =   0.1280000
        k(    3) = (  -0.4000000   0.4000000  -0.4000000), wk =   0.1280000
        k(    4) = (   0.0000000   0.4000000   0.0000000), wk =   0.0960000
        k(    5) = (  -0.2000000   0.6000000  -0.2000000), wk =   0.3840000
        k(    6) = (   0.6000000  -0.2000000   0.6000000), wk =   0.3840000
        k(    7) = (   0.4000000   0.0000000   0.4000000), wk =   0.1920000
        k(    8) = (   0.0000000   0.8000000   0.0000000), wk =   0.0960000
        k(    9) = (   0.8000000   0.0000000   0.8000000), wk =   0.1920000
        k(   10) = (   0.6000000  -0.2000000   1.0000000), wk =   0.3840000

     Dense  grid:    11935 G-vectors     FFT dimensions: (  32,  32,  32)

     Estimated max dynamical RAM per process >      10.99 MB

     Estimated total dynamical RAM >      54.93 MB

     Initial potential from superposition of free atoms

     starting charge    2.99771, renormalised to    3.00000
     Starting wfcs are    4 randomized atomic wfcs +    2 random wfcs
     Checking if some PAW data can be deallocated... 

     total cpu time spent up to now is        1.0 secs

     Self-consistent Calculation

     iteration #  1     ecut=    85.00 Ry     beta= 0.70
     Davidson diagonalization with overlap
     ethr =  1.00E-02,  avg # of iterations =  5.2

     Threshold (ethr) on eigenvalues was too large:
     Diagonalizing with lowered threshold

     Davidson diagonalization with overlap
     ethr =  1.65E-04,  avg # of iterations =  1.2

     total cpu time spent up to now is        1.4 secs

     total energy              =     -39.49896224 Ry
     Harris-Foulkes estimate   =     -39.50004104 Ry
     estimated scf accuracy    <       0.00489889 Ry

     iteration #  2     ecut=    85.00 Ry     beta= 0.70
     Davidson diagonalization with overlap
     ethr =  1.63E-04,  avg # of iterations =  1.0

     total cpu time spent up to now is        1.6 secs

     total energy              =     -39.49891881 Ry
     Harris-Foulkes estimate   =     -39.49900127 Ry
     estimated scf accuracy    <       0.00035879 Ry

     iteration #  3     ecut=    85.00 Ry     beta= 0.70
     Davidson diagonalization with overlap
     ethr =  1.20E-05,  avg # of iterations =  1.9

     total cpu time spent up to now is        1.8 secs

     total energy              =     -39.49892563 Ry
     Harris-Foulkes estimate   =     -39.49892578 Ry
     estimated scf accuracy    <       0.00000034 Ry

     iteration #  4     ecut=    85.00 Ry     beta= 0.70
     Davidson diagonalization with overlap
     ethr =  1.15E-08,  avg # of iterations =  3.1

     total cpu time spent up to now is        2.0 secs

     End of self-consistent calculation

          k = 0.0000 0.0000 0.0000 (  1459 PWs)   bands (ev):

    -3.2494  20.4346  20.4346  21.8973  21.8973  21.8973

          k =-0.2000 0.2000-0.2000 (  1471 PWs)   bands (ev):

    -2.1688  13.1730  18.9528  18.9528  22.3001  23.4304

          k =-0.4000 0.4000-0.4000 (  1480 PWs)   bands (ev):

     1.0246   6.2106  18.6985  18.6985  20.2526  20.2527

          k = 0.0000 0.4000 0.0000 (  1479 PWs)   bands (ev):

    -1.8105  16.1909  16.1909  16.2836  18.5726  19.5703

          k =-0.2000 0.6000-0.2000 (  1472 PWs)   bands (ev):

     0.6721   9.2079  14.3828  15.2797  16.9400  22.8071

          k = 0.6000-0.2000 0.6000 (  1491 PWs)   bands (ev):

     3.4540   5.1756  12.1082  16.2167  18.0647  23.9986

          k = 0.4000 0.0000 0.4000 (  1484 PWs)   bands (ev):

    -0.3861  10.9237  12.3952  18.9932  21.0184  23.2343

          k = 0.0000 0.8000 0.0000 (  1480 PWs)   bands (ev):

     2.4074   9.4131  13.4651  13.7377  13.7377  17.1967

          k = 0.8000 0.0000 0.8000 (  1490 PWs)   bands (ev):

     5.6031   6.9080   7.9351  14.0491  15.5967  21.6798

          k = 0.6000-0.2000 1.0000 (  1476 PWs)   bands (ev):

     3.7877   8.2600   9.6591  10.8998  21.5776  22.9349

     the Fermi energy is     8.2017 ev

!    total energy              =     -39.49892636 Ry
     Harris-Foulkes estimate   =     -39.49892636 Ry
     estimated scf accuracy    <          5.0E-09 Ry

     total all-electron energy =      -485.641707 Ry

     The total energy is the sum of the following terms:

     one-electron contribution =       3.15922877 Ry
     hartree contribution      =       0.00553378 Ry
     xc contribution           =      -2.58854897 Ry
     ewald contribution        =      -5.39395538 Ry
     one-center paw contrib.   =     -34.68027143 Ry
     smearing contrib. (-TS)   =      -0.00091312 Ry

     convergence has been achieved in   4 iterations

     Forces acting on atoms (cartesian axes, Ry/au):

     atom    1 type  1   force =     0.00000000    0.00000000    0.00000000

     Total force =     0.000000     Total SCF correction =     0.000000


     Computing stress (Cartesian axis) and pressure

          total   stress  (Ry/bohr**3)                   (kbar)     P=   14.20
   0.00009653  -0.00000000  -0.00000000         14.20     -0.00     -0.00
  -0.00000000   0.00009653   0.00000000         -0.00     14.20      0.00
  -0.00000000   0.00000000   0.00009653         -0.00      0.00     14.20


     Writing output data file Al.save/

     init_run     :      0.34s CPU      0.36s WALL (       1 calls)
     electrons    :      0.89s CPU      0.94s WALL (       1 calls)
     forces       :      0.04s CPU      0.04s WALL (       1 calls)
     stress       :      0.15s CPU      0.15s WALL (       1 calls)

     Called by init_run:
     wfcinit      :      0.03s CPU      0.04s WALL (       1 calls)
     potinit      :      0.10s CPU      0.11s WALL (       1 calls)
     hinit0       :      0.17s CPU      0.17s WALL (       1 calls)

     Called by electrons:
     c_bands      :      0.32s CPU      0.36s WALL (       5 calls)
     sum_band     :      0.13s CPU      0.13s WALL (       5 calls)
     v_of_rho     :      0.03s CPU      0.03s WALL (       5 calls)
     newd         :      0.05s CPU      0.06s WALL (       5 calls)
     PAW_pot      :      0.45s CPU      0.46s WALL (       5 calls)
     mix_rho      :      0.00s CPU      0.00s WALL (       5 calls)

     Called by c_bands:
     init_us_2    :      0.02s CPU      0.02s WALL (     130 calls)
     cegterg      :      0.30s CPU      0.33s WALL (      50 calls)

     Called by sum_band:
     sum_band:bec :      0.00s CPU      0.00s WALL (      50 calls)
     addusdens    :      0.06s CPU      0.06s WALL (       5 calls)

     Called by *egterg:
     h_psi        :      0.27s CPU      0.29s WALL (     184 calls)
     s_psi        :      0.01s CPU      0.01s WALL (     184 calls)
     g_psi        :      0.00s CPU      0.00s WALL (     124 calls)
     cdiaghg      :      0.01s CPU      0.02s WALL (     164 calls)

     Called by h_psi:
     h_psi:pot    :      0.26s CPU      0.29s WALL (     184 calls)
     h_psi:calbec :      0.02s CPU      0.02s WALL (     184 calls)
     vloc_psi     :      0.24s CPU      0.26s WALL (     184 calls)
     add_vuspsi   :      0.01s CPU      0.01s WALL (     184 calls)

     General routines
     calbec       :      0.03s CPU      0.03s WALL (     284 calls)
     fft          :      0.02s CPU      0.02s WALL (      82 calls)
     ffts         :      0.00s CPU      0.00s WALL (       5 calls)
     fftw         :      0.26s CPU      0.29s WALL (    1998 calls)

     Parallel routines
     fft_scatt_xy :      0.03s CPU      0.03s WALL (    2085 calls)
     fft_scatt_yz :      0.11s CPU      0.11s WALL (    2085 calls)

     PWSCF        :     2.12s CPU         2.24s WALL


   This run was terminated on:  20:12: 0  25Mar2024            

=------------------------------------------------------------------------------=
   JOB DONE.
=------------------------------------------------------------------------------=
