
     Program PWSCF v.6.3MaX starts on 25Mar2024 at 19:56:46 

     This program is part of the open-source Quantum ESPRESSO suite
     for quantum simulation of materials; please cite
         "P. Giannozzi et al., J. Phys.:Condens. Matter 21 395502 (2009);
         "P. Giannozzi et al., J. Phys.:Condens. Matter 29 465901 (2017);
          URL http://www.quantum-espresso.org", 
     in publications or presentations arising from this work. More details at
     http://www.quantum-espresso.org/quote

     Parallel version (MPI), running on     5 processors

     MPI processes distributed on     1 nodes
     R & G space division:  proc/nbgrp/npool/nimage =       5
     Waiting for input...
     Reading input from standard input

     Current dimensions of program PWSCF are:
     Max number of different atomic species (ntypx) = 10
     Max number of k-points (npk) =  40000
     Max angular momentum in pseudopotentials (lmaxx) =  3
               file Al.pbe-nl-kjpaw_psl.1.0.0.UPF: wavefunction(s)  3S 3P renormalized

     Subspace diagonalization in iterative solution of the eigenvalue problem:
     a serial algorithm will be used


     Parallelization info
     --------------------
     sticks:   dense  smooth     PW     G-vecs:    dense   smooth      PW
     Min          39      39     14                  381      381      82
     Max          40      40     15                  384      384      83
     Sum         199     199     73                 1917     1917     411



     bravais-lattice index     =            2
     lattice parameter (alat)  =       7.6500  a.u.
     unit-cell volume          =     111.9243 (a.u.)^3
     number of atoms/cell      =            1
     number of atomic types    =            1
     number of electrons       =         3.00
     number of Kohn-Sham states=            6
     kinetic-energy cutoff     =      25.0000  Ry
     charge density cutoff     =     100.0000  Ry
     convergence threshold     =      1.0E-08
     mixing beta               =       0.7000
     number of iterations used =            8  plain     mixing
     Exchange-correlation      = SLA PW PBX PBC ( 1  4  3  4 0 0)

     celldm(1)=   7.650000  celldm(2)=   0.000000  celldm(3)=   0.000000
     celldm(4)=   0.000000  celldm(5)=   0.000000  celldm(6)=   0.000000

     crystal axes: (cart. coord. in units of alat)
               a(1) = (  -0.500000   0.000000   0.500000 )  
               a(2) = (   0.000000   0.500000   0.500000 )  
               a(3) = (  -0.500000   0.500000   0.000000 )  

     reciprocal axes: (cart. coord. in units 2 pi/alat)
               b(1) = ( -1.000000 -1.000000  1.000000 )  
               b(2) = (  1.000000  1.000000  1.000000 )  
               b(3) = ( -1.000000  1.000000 -1.000000 )  


     PseudoPot. # 1 for Al read from file:
     /home/lorenzo/pseudos/Al/Al.pbe-nl-kjpaw_psl.1.0.0.UPF
     MD5 check sum: 8cf6d98cc7ef3f4b729b574060f3a10f
     Pseudo is Projector augmented-wave + core cor, Zval =  3.0
     Generated using "atomic" code by A. Dal Corso v.6.3
     Shape of augmentation charge: PSQ
     Using radial grid of 1135 points,  4 beta functions with: 
                l(1) =   0
                l(2) =   0
                l(3) =   1
                l(4) =   1
     Q(r) pseudized with 0 coefficients 


     atomic species   valence    mass     pseudopotential
        Al             3.00    26.98150     Al( 1.00)

     48 Sym. Ops., with inversion, found



   Cartesian axes

     site n.     atom                  positions (alat units)
         1           Al  tau(   1) = (   0.0000000   0.0000000   0.0000000  )

     number of k points=    16  gaussian smearing, width (Ry)=  0.0100
                       cart. coord. in units 2pi/alat
        k(    1) = (   0.0000000   0.0000000   0.0000000), wk =   0.0092593
        k(    2) = (  -0.1666667   0.1666667  -0.1666667), wk =   0.0740741
        k(    3) = (  -0.3333333   0.3333333  -0.3333333), wk =   0.0740741
        k(    4) = (   0.5000000  -0.5000000   0.5000000), wk =   0.0370370
        k(    5) = (   0.0000000   0.3333333   0.0000000), wk =   0.0555556
        k(    6) = (  -0.1666667   0.5000000  -0.1666667), wk =   0.2222222
        k(    7) = (   0.6666667  -0.3333333   0.6666667), wk =   0.2222222
        k(    8) = (   0.5000000  -0.1666667   0.5000000), wk =   0.2222222
        k(    9) = (   0.3333333   0.0000000   0.3333333), wk =   0.1111111
        k(   10) = (   0.0000000   0.6666667   0.0000000), wk =   0.0555556
        k(   11) = (   0.8333333  -0.1666667   0.8333333), wk =   0.2222222
        k(   12) = (   0.6666667  -0.0000000   0.6666667), wk =   0.1111111
        k(   13) = (   0.0000000  -1.0000000   0.0000000), wk =   0.0277778
        k(   14) = (   0.6666667  -0.3333333   1.0000000), wk =   0.2222222
        k(   15) = (   0.5000000  -0.1666667   0.8333333), wk =   0.2222222
        k(   16) = (  -0.3333333  -1.0000000   0.0000000), wk =   0.1111111

     Dense  grid:     1917 G-vectors     FFT dimensions: (  18,  18,  18)

     Estimated max dynamical RAM per process >       0.90 MB

     Estimated total dynamical RAM >       4.48 MB

     Initial potential from superposition of free atoms

     starting charge    2.99771, renormalised to    3.00000
     Starting wfcs are    4 randomized atomic wfcs +    2 random wfcs
     Checking if some PAW data can be deallocated... 

     total cpu time spent up to now is        0.5 secs

     Self-consistent Calculation

     iteration #  1     ecut=    25.00 Ry     beta= 0.70
     Davidson diagonalization with overlap
     ethr =  1.00E-02,  avg # of iterations =  4.4

     Threshold (ethr) on eigenvalues was too large:
     Diagonalizing with lowered threshold

     Davidson diagonalization with overlap
     ethr =  1.81E-04,  avg # of iterations =  2.0

     total cpu time spent up to now is        0.6 secs

     total energy              =     -39.50731401 Ry
     Harris-Foulkes estimate   =     -39.50880525 Ry
     estimated scf accuracy    <       0.00535752 Ry

     iteration #  2     ecut=    25.00 Ry     beta= 0.70
     Davidson diagonalization with overlap
     ethr =  1.79E-04,  avg # of iterations =  1.0

     total cpu time spent up to now is        0.7 secs

     total energy              =     -39.50730789 Ry
     Harris-Foulkes estimate   =     -39.50740227 Ry
     estimated scf accuracy    <       0.00036452 Ry

     iteration #  3     ecut=    25.00 Ry     beta= 0.70
     Davidson diagonalization with overlap
     ethr =  1.22E-05,  avg # of iterations =  2.1

     total cpu time spent up to now is        0.8 secs

     total energy              =     -39.50732884 Ry
     Harris-Foulkes estimate   =     -39.50732937 Ry
     estimated scf accuracy    <       0.00000153 Ry

     iteration #  4     ecut=    25.00 Ry     beta= 0.70
     Davidson diagonalization with overlap
     ethr =  5.11E-08,  avg # of iterations =  2.9

     total cpu time spent up to now is        0.8 secs

     total energy              =     -39.50733120 Ry
     Harris-Foulkes estimate   =     -39.50733119 Ry
     estimated scf accuracy    <       0.00000014 Ry

     iteration #  5     ecut=    25.00 Ry     beta= 0.70
     Davidson diagonalization with overlap
     ethr =  4.70E-09,  avg # of iterations =  1.1

     total cpu time spent up to now is        0.9 secs

     total energy              =     -39.50733120 Ry
     Harris-Foulkes estimate   =     -39.50733121 Ry
     estimated scf accuracy    <       0.00000002 Ry

     iteration #  6     ecut=    25.00 Ry     beta= 0.70
     Davidson diagonalization with overlap
     ethr =  6.03E-10,  avg # of iterations =  1.1

     total cpu time spent up to now is        1.0 secs

     End of self-consistent calculation

          k = 0.0000 0.0000 0.0000 (   259 PWs)   bands (ev):

    -3.2524  20.4643  20.4643  21.8771  21.8771  21.8771

          k =-0.1667 0.1667-0.1667 (   238 PWs)   bands (ev):

    -2.5011  14.4849  19.1756  19.1756  22.3921  23.8183

          k =-0.3333 0.3333-0.3333 (   232 PWs)   bands (ev):

    -0.2708   8.3494  18.5929  18.5929  21.1863  21.1863

          k = 0.5000-0.5000 0.5000 (   242 PWs)   bands (ev):

     3.2761   3.4796  19.1955  19.1955  19.3161  19.3161

          k = 0.0000 0.3333 0.0000 (   234 PWs)   bands (ev):

    -2.2516  16.8424  16.8424  17.0266  20.0600  20.3219

          k =-0.1667 0.5000-0.1667 (   237 PWs)   bands (ev):

    -0.5172  10.8510  15.7814  16.5214  17.4311  22.3099

          k = 0.6667-0.3333 0.6667 (   241 PWs)   bands (ev):

     2.6470   5.5255  14.0571  16.0063  17.7945  23.7911

          k = 0.5000-0.1667 0.5000 (   236 PWs)   bands (ev):

     1.4401   7.1533  12.9467  17.5200  19.4511  22.7326

          k = 0.3333 0.0000 0.3333 (   236 PWs)   bands (ev):

    -1.2579  12.3387  13.7313  20.2743  22.2979  22.4228

          k = 0.0000 0.6667 0.0000 (   238 PWs)   bands (ev):

     0.7070  12.2245  14.1192  14.2763  14.2763  17.7652

          k = 0.8333-0.1667 0.8333 (   235 PWs)   bands (ev):

     3.3484   8.8902   9.3498  14.0658  15.5868  20.7356

          k = 0.6667-0.0000 0.6667 (   236 PWs)   bands (ev):

     4.5564   6.7827   8.2409  15.1456  16.9189  26.4868

          k = 0.0000-1.0000 0.0000 (   230 PWs)   bands (ev):

     4.9373   6.2583  13.1370  13.4206  13.4206  16.8754

          k = 0.6667-0.3333 1.0000 (   237 PWs)   bands (ev):

     1.6805   9.5597  11.0088  13.2092  20.6527  22.2561

          k = 0.5000-0.1667 0.8333 (   238 PWs)   bands (ev):

     5.1287   5.3866  10.8591  11.4063  21.8316  22.3380

          k =-0.3333-1.0000 0.0000 (   230 PWs)   bands (ev):

     5.8592   7.2076   8.6334  10.1865  19.7643  21.5773

     the Fermi energy is     8.2087 ev

!    total energy              =     -39.50733120 Ry
     Harris-Foulkes estimate   =     -39.50733120 Ry
     estimated scf accuracy    <          5.2E-10 Ry

     total all-electron energy =      -485.650112 Ry

     The total energy is the sum of the following terms:

     one-electron contribution =       3.14762989 Ry
     hartree contribution      =       0.00562454 Ry
     xc contribution           =      -2.58819861 Ry
     ewald contribution        =      -5.39395546 Ry
     one-center paw contrib.   =     -34.67806355 Ry
     smearing contrib. (-TS)   =      -0.00036801 Ry

     convergence has been achieved in   6 iterations

     Forces acting on atoms (cartesian axes, Ry/au):

     atom    1 type  1   force =     0.00000000    0.00000000    0.00000000

     Total force =     0.000000     Total SCF correction =     0.000000


     Computing stress (Cartesian axis) and pressure

          total   stress  (Ry/bohr**3)                   (kbar)     P=   -0.67
  -0.00000455  -0.00000000  -0.00000000         -0.67     -0.00     -0.00
  -0.00000000  -0.00000455   0.00000000         -0.00     -0.67      0.00
  -0.00000000   0.00000000  -0.00000455         -0.00      0.00     -0.67


     Writing output data file Al.save/

     init_run     :      0.09s CPU      0.10s WALL (       1 calls)
     electrons    :      0.39s CPU      0.48s WALL (       1 calls)
     forces       :      0.01s CPU      0.01s WALL (       1 calls)
     stress       :      0.02s CPU      0.02s WALL (       1 calls)

     Called by init_run:
     wfcinit      :      0.01s CPU      0.01s WALL (       1 calls)
     potinit      :      0.02s CPU      0.03s WALL (       1 calls)
     hinit0       :      0.05s CPU      0.05s WALL (       1 calls)

     Called by electrons:
     c_bands      :      0.20s CPU      0.24s WALL (       7 calls)
     sum_band     :      0.04s CPU      0.05s WALL (       7 calls)
     v_of_rho     :      0.01s CPU      0.01s WALL (       7 calls)
     newd         :      0.00s CPU      0.00s WALL (       7 calls)
     PAW_pot      :      0.15s CPU      0.20s WALL (       7 calls)
     mix_rho      :      0.00s CPU      0.00s WALL (       7 calls)

     Called by c_bands:
     init_us_2    :      0.01s CPU      0.01s WALL (     272 calls)
     cegterg      :      0.20s CPU      0.23s WALL (     112 calls)

     Called by sum_band:
     sum_band:bec :      0.00s CPU      0.00s WALL (     112 calls)
     addusdens    :      0.00s CPU      0.00s WALL (       7 calls)

     Called by *egterg:
     h_psi        :      0.15s CPU      0.18s WALL (     361 calls)
     s_psi        :      0.00s CPU      0.00s WALL (     361 calls)
     g_psi        :      0.00s CPU      0.00s WALL (     233 calls)
     cdiaghg      :      0.03s CPU      0.03s WALL (     329 calls)

     Called by h_psi:
     h_psi:pot    :      0.15s CPU      0.18s WALL (     361 calls)
     h_psi:calbec :      0.01s CPU      0.01s WALL (     361 calls)
     vloc_psi     :      0.14s CPU      0.16s WALL (     361 calls)
     add_vuspsi   :      0.00s CPU      0.00s WALL (     361 calls)

     General routines
     calbec       :      0.01s CPU      0.01s WALL (     553 calls)
     fft          :      0.01s CPU      0.01s WALL (     104 calls)
     ffts         :      0.00s CPU      0.00s WALL (       7 calls)
     fftw         :      0.15s CPU      0.18s WALL (    4122 calls)

     Parallel routines
     fft_scatt_xy :      0.01s CPU      0.02s WALL (    4233 calls)
     fft_scatt_yz :      0.06s CPU      0.07s WALL (    4233 calls)

     PWSCF        :     0.92s CPU         1.06s WALL


   This run was terminated on:  19:56:47  25Mar2024            

=------------------------------------------------------------------------------=
   JOB DONE.
=------------------------------------------------------------------------------=
