
     Program PWSCF v.6.3MaX starts on 25Mar2024 at 20: 5:49 

     This program is part of the open-source Quantum ESPRESSO suite
     for quantum simulation of materials; please cite
         "P. Giannozzi et al., J. Phys.:Condens. Matter 21 395502 (2009);
         "P. Giannozzi et al., J. Phys.:Condens. Matter 29 465901 (2017);
          URL http://www.quantum-espresso.org", 
     in publications or presentations arising from this work. More details at
     http://www.quantum-espresso.org/quote

     Parallel version (MPI), running on     5 processors

     MPI processes distributed on     1 nodes
     R & G space division:  proc/nbgrp/npool/nimage =       5
     Waiting for input...
     Reading input from standard input

     Current dimensions of program PWSCF are:
     Max number of different atomic species (ntypx) = 10
     Max number of k-points (npk) =  40000
     Max angular momentum in pseudopotentials (lmaxx) =  3
               file Al.pbe-nl-kjpaw_psl.1.0.0.UPF: wavefunction(s)  3S 3P renormalized

     Subspace diagonalization in iterative solution of the eigenvalue problem:
     a serial algorithm will be used


     Parallelization info
     --------------------
     sticks:   dense  smooth     PW     G-vecs:    dense   smooth      PW
     Min         103     103     32                 1564     1564     272
     Max         104     104     33                 1565     1565     273
     Sum         517     517    163                 7823     7823    1363



     bravais-lattice index     =            2
     lattice parameter (alat)  =       7.6500  a.u.
     unit-cell volume          =     111.9243 (a.u.)^3
     number of atoms/cell      =            1
     number of atomic types    =            1
     number of electrons       =         3.00
     number of Kohn-Sham states=            6
     kinetic-energy cutoff     =      65.0000  Ry
     charge density cutoff     =     260.0000  Ry
     convergence threshold     =      1.0E-08
     mixing beta               =       0.7000
     number of iterations used =            8  plain     mixing
     Exchange-correlation      = SLA PW PBX PBC ( 1  4  3  4 0 0)

     celldm(1)=   7.650000  celldm(2)=   0.000000  celldm(3)=   0.000000
     celldm(4)=   0.000000  celldm(5)=   0.000000  celldm(6)=   0.000000

     crystal axes: (cart. coord. in units of alat)
               a(1) = (  -0.500000   0.000000   0.500000 )  
               a(2) = (   0.000000   0.500000   0.500000 )  
               a(3) = (  -0.500000   0.500000   0.000000 )  

     reciprocal axes: (cart. coord. in units 2 pi/alat)
               b(1) = ( -1.000000 -1.000000  1.000000 )  
               b(2) = (  1.000000  1.000000  1.000000 )  
               b(3) = ( -1.000000  1.000000 -1.000000 )  


     PseudoPot. # 1 for Al read from file:
     /home/lorenzo/pseudos/Al/Al.pbe-nl-kjpaw_psl.1.0.0.UPF
     MD5 check sum: 8cf6d98cc7ef3f4b729b574060f3a10f
     Pseudo is Projector augmented-wave + core cor, Zval =  3.0
     Generated using "atomic" code by A. Dal Corso v.6.3
     Shape of augmentation charge: PSQ
     Using radial grid of 1135 points,  4 beta functions with: 
                l(1) =   0
                l(2) =   0
                l(3) =   1
                l(4) =   1
     Q(r) pseudized with 0 coefficients 


     atomic species   valence    mass     pseudopotential
        Al             3.00    26.98150     Al( 1.00)

     48 Sym. Ops., with inversion, found



   Cartesian axes

     site n.     atom                  positions (alat units)
         1           Al  tau(   1) = (   0.0000000   0.0000000   0.0000000  )

     number of k points=     3  gaussian smearing, width (Ry)=  0.0100
                       cart. coord. in units 2pi/alat
        k(    1) = (   0.0000000   0.0000000   0.0000000), wk =   0.2500000
        k(    2) = (   0.5000000  -0.5000000   0.5000000), wk =   1.0000000
        k(    3) = (   0.0000000  -1.0000000   0.0000000), wk =   0.7500000

     Dense  grid:     7823 G-vectors     FFT dimensions: (  27,  27,  27)

     Estimated max dynamical RAM per process >       2.69 MB

     Estimated total dynamical RAM >      13.46 MB

     Initial potential from superposition of free atoms

     starting charge    2.99771, renormalised to    3.00000
     Starting wfcs are    4 randomized atomic wfcs +    2 random wfcs
     Checking if some PAW data can be deallocated... 

     total cpu time spent up to now is        1.0 secs

     Self-consistent Calculation

     iteration #  1     ecut=    65.00 Ry     beta= 0.70
     Davidson diagonalization with overlap
     ethr =  1.00E-02,  avg # of iterations =  5.3

     Threshold (ethr) on eigenvalues was too large:
     Diagonalizing with lowered threshold

     Davidson diagonalization with overlap
     ethr =  2.73E-04,  avg # of iterations =  1.3

     total cpu time spent up to now is        1.0 secs

     total energy              =     -39.55222082 Ry
     Harris-Foulkes estimate   =     -39.55354271 Ry
     estimated scf accuracy    <       0.00815372 Ry

     iteration #  2     ecut=    65.00 Ry     beta= 0.70
     Davidson diagonalization with overlap
     ethr =  2.72E-04,  avg # of iterations =  1.0

     total cpu time spent up to now is        1.1 secs

     total energy              =     -39.55218405 Ry
     Harris-Foulkes estimate   =     -39.55228790 Ry
     estimated scf accuracy    <       0.00064035 Ry

     iteration #  3     ecut=    65.00 Ry     beta= 0.70
     Davidson diagonalization with overlap
     ethr =  2.13E-05,  avg # of iterations =  2.7

     total cpu time spent up to now is        1.2 secs

     total energy              =     -39.55220234 Ry
     Harris-Foulkes estimate   =     -39.55220294 Ry
     estimated scf accuracy    <       0.00000138 Ry

     iteration #  4     ecut=    65.00 Ry     beta= 0.70
     Davidson diagonalization with overlap
     ethr =  4.60E-08,  avg # of iterations =  2.3

     total cpu time spent up to now is        1.2 secs

     total energy              =     -39.55220335 Ry
     Harris-Foulkes estimate   =     -39.55220336 Ry
     estimated scf accuracy    <       0.00000004 Ry

     iteration #  5     ecut=    65.00 Ry     beta= 0.70
     Davidson diagonalization with overlap
     ethr =  1.19E-09,  avg # of iterations =  1.3

     total cpu time spent up to now is        1.3 secs

     End of self-consistent calculation

          k = 0.0000 0.0000 0.0000 (   965 PWs)   bands (ev):

    -3.2383  20.4531  20.4531  21.8906  21.8907  21.8907

          k = 0.5000-0.5000 0.5000 (   978 PWs)   bands (ev):

     3.2875   3.4954  19.2133  19.2133  19.2958  19.2958

          k = 0.0000-1.0000 0.0000 (   982 PWs)   bands (ev):

     4.9540   6.2637  13.1374  13.4321  13.4321  16.8766

     the Fermi energy is     5.6156 ev

!    total energy              =     -39.55220335 Ry
     Harris-Foulkes estimate   =     -39.55220335 Ry
     estimated scf accuracy    <          1.3E-09 Ry

     total all-electron energy =      -485.694984 Ry

     The total energy is the sum of the following terms:

     one-electron contribution =       3.10225507 Ry
     hartree contribution      =       0.01090450 Ry
     xc contribution           =      -2.59130642 Ry
     ewald contribution        =      -5.39395538 Ry
     one-center paw contrib.   =     -34.68010112 Ry
     smearing contrib. (-TS)   =      -0.00000000 Ry

     convergence has been achieved in   5 iterations

     Forces acting on atoms (cartesian axes, Ry/au):

     atom    1 type  1   force =     0.00000000    0.00000000    0.00000000

     Total force =     0.000000     Total SCF correction =     0.000000


     Computing stress (Cartesian axis) and pressure

          total   stress  (Ry/bohr**3)                   (kbar)     P=  -59.70
  -0.00040586  -0.00000000  -0.00000000        -59.70     -0.00     -0.00
  -0.00000000  -0.00040586   0.00000000         -0.00    -59.70      0.00
   0.00000000   0.00000000  -0.00040586          0.00      0.00    -59.70


     Writing output data file Al.save/

     init_run     :      0.16s CPU      0.16s WALL (       1 calls)
     electrons    :      0.30s CPU      0.34s WALL (       1 calls)
     forces       :      0.02s CPU      0.02s WALL (       1 calls)
     stress       :      0.04s CPU      0.04s WALL (       1 calls)

     Called by init_run:
     wfcinit      :      0.00s CPU      0.01s WALL (       1 calls)
     potinit      :      0.04s CPU      0.04s WALL (       1 calls)
     hinit0       :      0.10s CPU      0.10s WALL (       1 calls)

     Called by electrons:
     c_bands      :      0.10s CPU      0.10s WALL (       6 calls)
     sum_band     :      0.03s CPU      0.03s WALL (       6 calls)
     v_of_rho     :      0.03s CPU      0.03s WALL (       6 calls)
     newd         :      0.01s CPU      0.01s WALL (       6 calls)
     PAW_pot      :      0.16s CPU      0.19s WALL (       6 calls)
     mix_rho      :      0.00s CPU      0.00s WALL (       6 calls)

     Called by c_bands:
     init_us_2    :      0.00s CPU      0.00s WALL (      45 calls)
     cegterg      :      0.09s CPU      0.09s WALL (      18 calls)

     Called by sum_band:
     sum_band:bec :      0.00s CPU      0.00s WALL (      18 calls)
     addusdens    :      0.01s CPU      0.01s WALL (       6 calls)

     Called by *egterg:
     h_psi        :      0.08s CPU      0.08s WALL (      63 calls)
     s_psi        :      0.00s CPU      0.00s WALL (      63 calls)
     g_psi        :      0.00s CPU      0.00s WALL (      42 calls)
     cdiaghg      :      0.01s CPU      0.01s WALL (      57 calls)

     Called by h_psi:
     h_psi:pot    :      0.08s CPU      0.08s WALL (      63 calls)
     h_psi:calbec :      0.01s CPU      0.01s WALL (      63 calls)
     vloc_psi     :      0.07s CPU      0.07s WALL (      63 calls)
     add_vuspsi   :      0.00s CPU      0.00s WALL (      63 calls)

     General routines
     calbec       :      0.01s CPU      0.01s WALL (      96 calls)
     fft          :      0.02s CPU      0.03s WALL (      93 calls)
     ffts         :      0.00s CPU      0.00s WALL (       6 calls)
     fftw         :      0.08s CPU      0.08s WALL (     684 calls)

     Parallel routines
     fft_scatt_xy :      0.01s CPU      0.01s WALL (     783 calls)
     fft_scatt_yz :      0.04s CPU      0.04s WALL (     783 calls)

     PWSCF        :     1.31s CPU         1.38s WALL


   This run was terminated on:  20: 5:50  25Mar2024            

=------------------------------------------------------------------------------=
   JOB DONE.
=------------------------------------------------------------------------------=
