
     Program PWSCF v.6.3MaX starts on 25Mar2024 at 19:57:58 

     This program is part of the open-source Quantum ESPRESSO suite
     for quantum simulation of materials; please cite
         "P. Giannozzi et al., J. Phys.:Condens. Matter 21 395502 (2009);
         "P. Giannozzi et al., J. Phys.:Condens. Matter 29 465901 (2017);
          URL http://www.quantum-espresso.org", 
     in publications or presentations arising from this work. More details at
     http://www.quantum-espresso.org/quote

     Parallel version (MPI), running on     5 processors

     MPI processes distributed on     1 nodes
     R & G space division:  proc/nbgrp/npool/nimage =       5
     Waiting for input...
     Reading input from standard input

     Current dimensions of program PWSCF are:
     Max number of different atomic species (ntypx) = 10
     Max number of k-points (npk) =  40000
     Max angular momentum in pseudopotentials (lmaxx) =  3

     Subspace diagonalization in iterative solution of the eigenvalue problem:
     a serial algorithm will be used


     Parallelization info
     --------------------
     sticks:   dense  smooth     PW     G-vecs:    dense   smooth      PW
     Min          48      48     17                  488      488     106
     Max          49      49     17                  491      491     107
     Sum         241     241     85                 2445     2445     531



     bravais-lattice index     =            2
     lattice parameter (alat)  =       7.6500  a.u.
     unit-cell volume          =     111.9243 (a.u.)^3
     number of atoms/cell      =            1
     number of atomic types    =            1
     number of electrons       =         3.00
     number of Kohn-Sham states=            6
     kinetic-energy cutoff     =      30.0000  Ry
     charge density cutoff     =     120.0000  Ry
     convergence threshold     =      1.0E-08
     mixing beta               =       0.7000
     number of iterations used =            8  plain     mixing
     Exchange-correlation      = PBE ( 1  4  3  4 0 0)

     celldm(1)=   7.650000  celldm(2)=   0.000000  celldm(3)=   0.000000
     celldm(4)=   0.000000  celldm(5)=   0.000000  celldm(6)=   0.000000

     crystal axes: (cart. coord. in units of alat)
               a(1) = (  -0.500000   0.000000   0.500000 )  
               a(2) = (   0.000000   0.500000   0.500000 )  
               a(3) = (  -0.500000   0.500000   0.000000 )  

     reciprocal axes: (cart. coord. in units 2 pi/alat)
               b(1) = ( -1.000000 -1.000000  1.000000 )  
               b(2) = (  1.000000  1.000000  1.000000 )  
               b(3) = ( -1.000000  1.000000 -1.000000 )  


     PseudoPot. # 1 for Al read from file:
     /home/lorenzo/pseudos/Al/Al.pbe-nl-rrkjus_psl.1.0.0.UPF
     MD5 check sum: 6db8691240a1c860ce6448702d298c4b
     Pseudo is Ultrasoft + core correction, Zval =  3.0
     Generated using "atomic" code by A. Dal Corso v.6.3
     Using radial grid of 1135 points,  4 beta functions with: 
                l(1) =   0
                l(2) =   0
                l(3) =   1
                l(4) =   1
     Q(r) pseudized with 0 coefficients 


     atomic species   valence    mass     pseudopotential
        Al             3.00    26.98150     Al( 1.00)

     48 Sym. Ops., with inversion, found



   Cartesian axes

     site n.     atom                  positions (alat units)
         1           Al  tau(   1) = (   0.0000000   0.0000000   0.0000000  )

     number of k points=    29  gaussian smearing, width (Ry)=  0.0100
                       cart. coord. in units 2pi/alat
        k(    1) = (   0.0000000   0.0000000   0.0000000), wk =   0.0039062
        k(    2) = (  -0.1250000   0.1250000  -0.1250000), wk =   0.0312500
        k(    3) = (  -0.2500000   0.2500000  -0.2500000), wk =   0.0312500
        k(    4) = (  -0.3750000   0.3750000  -0.3750000), wk =   0.0312500
        k(    5) = (   0.5000000  -0.5000000   0.5000000), wk =   0.0156250
        k(    6) = (   0.0000000   0.2500000   0.0000000), wk =   0.0234375
        k(    7) = (  -0.1250000   0.3750000  -0.1250000), wk =   0.0937500
        k(    8) = (  -0.2500000   0.5000000  -0.2500000), wk =   0.0937500
        k(    9) = (   0.6250000  -0.3750000   0.6250000), wk =   0.0937500
        k(   10) = (   0.5000000  -0.2500000   0.5000000), wk =   0.0937500
        k(   11) = (   0.3750000  -0.1250000   0.3750000), wk =   0.0937500
        k(   12) = (   0.2500000   0.0000000   0.2500000), wk =   0.0468750
        k(   13) = (   0.0000000   0.5000000   0.0000000), wk =   0.0234375
        k(   14) = (  -0.1250000   0.6250000  -0.1250000), wk =   0.0937500
        k(   15) = (   0.7500000  -0.2500000   0.7500000), wk =   0.0937500
        k(   16) = (   0.6250000  -0.1250000   0.6250000), wk =   0.0937500
        k(   17) = (   0.5000000   0.0000000   0.5000000), wk =   0.0468750
        k(   18) = (   0.0000000   0.7500000   0.0000000), wk =   0.0234375
        k(   19) = (   0.8750000  -0.1250000   0.8750000), wk =   0.0937500
        k(   20) = (   0.7500000   0.0000000   0.7500000), wk =   0.0468750
        k(   21) = (   0.0000000  -1.0000000   0.0000000), wk =   0.0117188
        k(   22) = (  -0.2500000   0.5000000   0.0000000), wk =   0.0937500
        k(   23) = (   0.6250000  -0.3750000   0.8750000), wk =   0.1875000
        k(   24) = (   0.5000000  -0.2500000   0.7500000), wk =   0.0937500
        k(   25) = (   0.7500000  -0.2500000   1.0000000), wk =   0.0937500
        k(   26) = (   0.6250000  -0.1250000   0.8750000), wk =   0.1875000
        k(   27) = (   0.5000000   0.0000000   0.7500000), wk =   0.0937500
        k(   28) = (  -0.2500000  -1.0000000   0.0000000), wk =   0.0468750
        k(   29) = (  -0.5000000  -1.0000000   0.0000000), wk =   0.0234375

     Dense  grid:     2445 G-vectors     FFT dimensions: (  20,  20,  20)

     Estimated max dynamical RAM per process >       1.17 MB

     Estimated total dynamical RAM >       5.85 MB

     Initial potential from superposition of free atoms

     starting charge    2.99771, renormalised to    3.00000
     Starting wfcs are    4 randomized atomic wfcs +    2 random wfcs

     total cpu time spent up to now is        0.5 secs

     Self-consistent Calculation

     iteration #  1     ecut=    30.00 Ry     beta= 0.70
     Davidson diagonalization with overlap
     ethr =  1.00E-02,  avg # of iterations =  4.7

     Threshold (ethr) on eigenvalues was too large:
     Diagonalizing with lowered threshold

     Davidson diagonalization with overlap
     ethr =  1.93E-04,  avg # of iterations =  1.8

     total cpu time spent up to now is        0.7 secs

     total energy              =      -5.03835725 Ry
     Harris-Foulkes estimate   =      -5.03970442 Ry
     estimated scf accuracy    <       0.00569525 Ry

     iteration #  2     ecut=    30.00 Ry     beta= 0.70
     Davidson diagonalization with overlap
     ethr =  1.90E-04,  avg # of iterations =  1.0

     total cpu time spent up to now is        0.7 secs

     total energy              =      -5.03834391 Ry
     Harris-Foulkes estimate   =      -5.03843452 Ry
     estimated scf accuracy    <       0.00040877 Ry

     iteration #  3     ecut=    30.00 Ry     beta= 0.70
     Davidson diagonalization with overlap
     ethr =  1.36E-05,  avg # of iterations =  1.8

     total cpu time spent up to now is        0.8 secs

     total energy              =      -5.03836310 Ry
     Harris-Foulkes estimate   =      -5.03836313 Ry
     estimated scf accuracy    <       0.00000147 Ry

     iteration #  4     ecut=    30.00 Ry     beta= 0.70
     Davidson diagonalization with overlap
     ethr =  4.91E-08,  avg # of iterations =  3.1

     total cpu time spent up to now is        0.9 secs

     total energy              =      -5.03836521 Ry
     Harris-Foulkes estimate   =      -5.03836520 Ry
     estimated scf accuracy    <       0.00000008 Ry

     iteration #  5     ecut=    30.00 Ry     beta= 0.70
     Davidson diagonalization with overlap
     ethr =  2.75E-09,  avg # of iterations =  1.1

     total cpu time spent up to now is        0.9 secs

     total energy              =      -5.03836523 Ry
     Harris-Foulkes estimate   =      -5.03836521 Ry
     estimated scf accuracy    <       0.00000006 Ry

     iteration #  6     ecut=    30.00 Ry     beta= 0.70
     Davidson diagonalization with overlap
     ethr =  1.89E-09,  avg # of iterations =  1.0

     total cpu time spent up to now is        1.0 secs

     End of self-consistent calculation

          k = 0.0000 0.0000 0.0000 (   331 PWs)   bands (ev):

    -3.2486  20.4492  20.4492  21.8764  21.8765  21.8765

          k =-0.1250 0.1250-0.1250 (   316 PWs)   bands (ev):

    -2.8257  16.1482  19.4909  19.4909  22.5123  23.4267

          k =-0.2500 0.2500-0.2500 (   311 PWs)   bands (ev):

    -1.5645  11.2854  18.7228  18.7228  22.1596  22.5558

          k =-0.3750 0.3750-0.3750 (   308 PWs)   bands (ev):

     0.5137   6.9905  18.6302  18.6302  20.5754  20.5754

          k = 0.5000-0.5000 0.5000 (   302 PWs)   bands (ev):

     3.2762   3.4841  19.1962  19.1962  19.3019  19.3019

          k = 0.0000 0.2500 0.0000 (   307 PWs)   bands (ev):

    -2.6850  17.7332  17.7332  18.0009  20.7297  22.4500

          k =-0.1250 0.3750-0.1250 (   308 PWs)   bands (ev):

    -1.7041  13.1434  16.6684  18.1910  19.4186  21.9407

          k =-0.2500 0.5000-0.2500 (   317 PWs)   bands (ev):

     0.1001   8.6868  16.3194  17.0488  18.0244  24.0372

          k = 0.6250-0.3750 0.6250 (   312 PWs)   bands (ev):

     2.6950   4.8632  15.4236  16.6916  18.4630  22.5275

          k = 0.5000-0.2500 0.5000 (   308 PWs)   bands (ev):

     1.7460   6.0557  14.5437  17.7844  19.6444  21.6870

          k = 0.3750-0.1250 0.3750 (   309 PWs)   bands (ev):

    -0.5911  10.0858  14.4439  19.5777  21.5262  21.5368

          k = 0.2500 0.0000 0.2500 (   317 PWs)   bands (ev):

    -2.1237  14.2901  15.5189  21.5443  21.8266  23.1704

          k = 0.0000 0.5000 0.0000 (   311 PWs)   bands (ev):

    -1.0076  15.3343  15.3428  15.3428  16.0898  18.8036

          k =-0.1250 0.6250-0.1250 (   316 PWs)   bands (ev):

     0.5121  11.0711  13.4223  14.7447  16.2191  20.2210

          k = 0.7500-0.2500 0.7500 (   311 PWs)   bands (ev):

     2.8248   7.1019  11.4997  14.8712  16.5605  23.8886

          k = 0.6250-0.1250 0.6250 (   307 PWs)   bands (ev):

     3.7716   5.8833  10.3782  15.7223  17.5492  25.4448

          k = 0.5000 0.0000 0.5000 (   307 PWs)   bands (ev):

     1.1993   9.0950  10.5921  17.2980  19.2611  25.4154

          k = 0.0000 0.7500 0.0000 (   322 PWs)   bands (ev):

     1.7389  10.4344  13.6794  13.9007  13.9007  17.3780

          k = 0.8750-0.1250 0.8750 (   314 PWs)   bands (ev):

     3.7366   8.2269  10.0604  13.7825  15.1569  19.2857

          k = 0.7500 0.0000 0.7500 (   308 PWs)   bands (ev):

     5.9757   6.5026   7.4499  14.3889  16.0367  23.4758

          k = 0.0000-1.0000 0.0000 (   302 PWs)   bands (ev):

     4.9388   6.2576  13.1238  13.4205  13.4205  16.8708

          k =-0.2500 0.5000 0.0000 (   311 PWs)   bands (ev):

    -0.4527  11.6986  13.0900  16.6056  19.9653  21.7128

          k = 0.6250-0.3750 0.8750 (   313 PWs)   bands (ev):

     1.6082   7.9906  12.4180  14.4722  20.5828  22.6647

          k = 0.5000-0.2500 0.7500 (   308 PWs)   bands (ev):

     4.3213   4.5728  12.8191  13.2752  21.0994  21.5453

          k = 0.7500-0.2500 1.0000 (   309 PWs)   bands (ev):

     2.2830  10.1374  10.8483  11.7238  18.4751  20.4655

          k = 0.6250-0.1250 0.8750 (   308 PWs)   bands (ev):

     4.8014   6.9291   9.3074  11.4605  19.6525  23.7729

          k = 0.5000 0.0000 0.7500 (   311 PWs)   bands (ev):

     3.9021   7.5342   8.9977  12.5647  20.8628  24.1038

          k =-0.2500-1.0000 0.0000 (   308 PWs)   bands (ev):

     5.4570   6.7979   9.6164  11.1124  17.9657  20.0119

          k =-0.5000-1.0000 0.0000 (   308 PWs)   bands (ev):

     7.0144   7.0144   8.0345   8.9324  23.6321  23.6321

     the Fermi energy is     7.8859 ev

!    total energy              =      -5.03836523 Ry
     Harris-Foulkes estimate   =      -5.03836523 Ry
     estimated scf accuracy    <          4.8E-10 Ry

     The total energy is the sum of the following terms:

     one-electron contribution =       2.93782212 Ry
     hartree contribution      =       0.00649015 Ry
     xc contribution           =      -2.58840876 Ry
     ewald contribution        =      -5.39395543 Ry
     smearing contrib. (-TS)   =      -0.00031332 Ry

     convergence has been achieved in   6 iterations

     Forces acting on atoms (cartesian axes, Ry/au):

     atom    1 type  1   force =     0.00000000    0.00000000    0.00000000

     Total force =     0.000000     Total SCF correction =     0.000000


     Computing stress (Cartesian axis) and pressure

          total   stress  (Ry/bohr**3)                   (kbar)     P=   -4.67
  -0.00003177  -0.00000000   0.00000000         -4.67     -0.00      0.00
   0.00000000  -0.00003177   0.00000000          0.00     -4.67      0.00
   0.00000000   0.00000000  -0.00003177          0.00      0.00     -4.67


     Writing output data file Al.save/

     init_run     :      0.09s CPU      0.09s WALL (       1 calls)
     electrons    :      0.47s CPU      0.53s WALL (       1 calls)
     forces       :      0.01s CPU      0.01s WALL (       1 calls)
     stress       :      0.02s CPU      0.02s WALL (       1 calls)

     Called by init_run:
     wfcinit      :      0.03s CPU      0.03s WALL (       1 calls)
     potinit      :      0.00s CPU      0.00s WALL (       1 calls)
     hinit0       :      0.05s CPU      0.05s WALL (       1 calls)

     Called by electrons:
     c_bands      :      0.39s CPU      0.43s WALL (       7 calls)
     sum_band     :      0.06s CPU      0.07s WALL (       7 calls)
     v_of_rho     :      0.01s CPU      0.01s WALL (       7 calls)
     newd         :      0.00s CPU      0.00s WALL (       7 calls)
     mix_rho      :      0.00s CPU      0.00s WALL (       7 calls)

     Called by c_bands:
     init_us_2    :      0.01s CPU      0.01s WALL (     493 calls)
     cegterg      :      0.38s CPU      0.42s WALL (     203 calls)

     Called by sum_band:
     sum_band:bec :      0.00s CPU      0.00s WALL (     203 calls)
     addusdens    :      0.00s CPU      0.00s WALL (       7 calls)

     Called by *egterg:
     h_psi        :      0.30s CPU      0.33s WALL (     651 calls)
     s_psi        :      0.00s CPU      0.00s WALL (     651 calls)
     g_psi        :      0.00s CPU      0.00s WALL (     419 calls)
     cdiaghg      :      0.04s CPU      0.05s WALL (     593 calls)

     Called by h_psi:
     h_psi:pot    :      0.30s CPU      0.33s WALL (     651 calls)
     h_psi:calbec :      0.01s CPU      0.01s WALL (     651 calls)
     vloc_psi     :      0.28s CPU      0.31s WALL (     651 calls)
     add_vuspsi   :      0.00s CPU      0.01s WALL (     651 calls)

     General routines
     calbec       :      0.02s CPU      0.02s WALL (     999 calls)
     fft          :      0.01s CPU      0.01s WALL (     104 calls)
     ffts         :      0.00s CPU      0.00s WALL (       7 calls)
     fftw         :      0.29s CPU      0.33s WALL (    7482 calls)

     Parallel routines
     fft_scatt_xy :      0.03s CPU      0.03s WALL (    7593 calls)
     fft_scatt_yz :      0.09s CPU      0.10s WALL (    7593 calls)

     PWSCF        :     1.01s CPU         1.13s WALL


   This run was terminated on:  19:57:59  25Mar2024            

=------------------------------------------------------------------------------=
   JOB DONE.
=------------------------------------------------------------------------------=
