
     Program PWSCF v.6.3MaX starts on 25Mar2024 at 19:56: 1 

     This program is part of the open-source Quantum ESPRESSO suite
     for quantum simulation of materials; please cite
         "P. Giannozzi et al., J. Phys.:Condens. Matter 21 395502 (2009);
         "P. Giannozzi et al., J. Phys.:Condens. Matter 29 465901 (2017);
          URL http://www.quantum-espresso.org", 
     in publications or presentations arising from this work. More details at
     http://www.quantum-espresso.org/quote

     Parallel version (MPI), running on     5 processors

     MPI processes distributed on     1 nodes
     R & G space division:  proc/nbgrp/npool/nimage =       5
     Waiting for input...
     Reading input from standard input

     Current dimensions of program PWSCF are:
     Max number of different atomic species (ntypx) = 10
     Max number of k-points (npk) =  40000
     Max angular momentum in pseudopotentials (lmaxx) =  3
               file Al.pbe-nl-kjpaw_psl.1.0.0.UPF: wavefunction(s)  3S 3P renormalized

     Subspace diagonalization in iterative solution of the eigenvalue problem:
     a serial algorithm will be used


     Parallelization info
     --------------------
     sticks:   dense  smooth     PW     G-vecs:    dense   smooth      PW
     Min          32      32     12                  272      272      66
     Max          33      33     13                  273      273      67
     Sum         163     163     61                 1363     1363     331



     bravais-lattice index     =            2
     lattice parameter (alat)  =       7.6500  a.u.
     unit-cell volume          =     111.9243 (a.u.)^3
     number of atoms/cell      =            1
     number of atomic types    =            1
     number of electrons       =         3.00
     number of Kohn-Sham states=            6
     kinetic-energy cutoff     =      20.0000  Ry
     charge density cutoff     =      80.0000  Ry
     convergence threshold     =      1.0E-08
     mixing beta               =       0.7000
     number of iterations used =            8  plain     mixing
     Exchange-correlation      = SLA PW PBX PBC ( 1  4  3  4 0 0)

     celldm(1)=   7.650000  celldm(2)=   0.000000  celldm(3)=   0.000000
     celldm(4)=   0.000000  celldm(5)=   0.000000  celldm(6)=   0.000000

     crystal axes: (cart. coord. in units of alat)
               a(1) = (  -0.500000   0.000000   0.500000 )  
               a(2) = (   0.000000   0.500000   0.500000 )  
               a(3) = (  -0.500000   0.500000   0.000000 )  

     reciprocal axes: (cart. coord. in units 2 pi/alat)
               b(1) = ( -1.000000 -1.000000  1.000000 )  
               b(2) = (  1.000000  1.000000  1.000000 )  
               b(3) = ( -1.000000  1.000000 -1.000000 )  


     PseudoPot. # 1 for Al read from file:
     /home/lorenzo/pseudos/Al/Al.pbe-nl-kjpaw_psl.1.0.0.UPF
     MD5 check sum: 8cf6d98cc7ef3f4b729b574060f3a10f
     Pseudo is Projector augmented-wave + core cor, Zval =  3.0
     Generated using "atomic" code by A. Dal Corso v.6.3
     Shape of augmentation charge: PSQ
     Using radial grid of 1135 points,  4 beta functions with: 
                l(1) =   0
                l(2) =   0
                l(3) =   1
                l(4) =   1
     Q(r) pseudized with 0 coefficients 


     atomic species   valence    mass     pseudopotential
        Al             3.00    26.98150     Al( 1.00)

     48 Sym. Ops., with inversion, found



   Cartesian axes

     site n.     atom                  positions (alat units)
         1           Al  tau(   1) = (   0.0000000   0.0000000   0.0000000  )

     number of k points=    29  gaussian smearing, width (Ry)=  0.0100
                       cart. coord. in units 2pi/alat
        k(    1) = (   0.0000000   0.0000000   0.0000000), wk =   0.0039062
        k(    2) = (  -0.1250000   0.1250000  -0.1250000), wk =   0.0312500
        k(    3) = (  -0.2500000   0.2500000  -0.2500000), wk =   0.0312500
        k(    4) = (  -0.3750000   0.3750000  -0.3750000), wk =   0.0312500
        k(    5) = (   0.5000000  -0.5000000   0.5000000), wk =   0.0156250
        k(    6) = (   0.0000000   0.2500000   0.0000000), wk =   0.0234375
        k(    7) = (  -0.1250000   0.3750000  -0.1250000), wk =   0.0937500
        k(    8) = (  -0.2500000   0.5000000  -0.2500000), wk =   0.0937500
        k(    9) = (   0.6250000  -0.3750000   0.6250000), wk =   0.0937500
        k(   10) = (   0.5000000  -0.2500000   0.5000000), wk =   0.0937500
        k(   11) = (   0.3750000  -0.1250000   0.3750000), wk =   0.0937500
        k(   12) = (   0.2500000   0.0000000   0.2500000), wk =   0.0468750
        k(   13) = (   0.0000000   0.5000000   0.0000000), wk =   0.0234375
        k(   14) = (  -0.1250000   0.6250000  -0.1250000), wk =   0.0937500
        k(   15) = (   0.7500000  -0.2500000   0.7500000), wk =   0.0937500
        k(   16) = (   0.6250000  -0.1250000   0.6250000), wk =   0.0937500
        k(   17) = (   0.5000000   0.0000000   0.5000000), wk =   0.0468750
        k(   18) = (   0.0000000   0.7500000   0.0000000), wk =   0.0234375
        k(   19) = (   0.8750000  -0.1250000   0.8750000), wk =   0.0937500
        k(   20) = (   0.7500000   0.0000000   0.7500000), wk =   0.0468750
        k(   21) = (   0.0000000  -1.0000000   0.0000000), wk =   0.0117188
        k(   22) = (  -0.2500000   0.5000000   0.0000000), wk =   0.0937500
        k(   23) = (   0.6250000  -0.3750000   0.8750000), wk =   0.1875000
        k(   24) = (   0.5000000  -0.2500000   0.7500000), wk =   0.0937500
        k(   25) = (   0.7500000  -0.2500000   1.0000000), wk =   0.0937500
        k(   26) = (   0.6250000  -0.1250000   0.8750000), wk =   0.1875000
        k(   27) = (   0.5000000   0.0000000   0.7500000), wk =   0.0937500
        k(   28) = (  -0.2500000  -1.0000000   0.0000000), wk =   0.0468750
        k(   29) = (  -0.5000000  -1.0000000   0.0000000), wk =   0.0234375

     Dense  grid:     1363 G-vectors     FFT dimensions: (  15,  15,  15)

     Estimated max dynamical RAM per process >       0.71 MB

     Estimated total dynamical RAM >       3.56 MB

     Initial potential from superposition of free atoms

     starting charge    2.99771, renormalised to    3.00000
     Starting wfcs are    4 randomized atomic wfcs +    2 random wfcs
     Checking if some PAW data can be deallocated... 

     total cpu time spent up to now is        0.5 secs

     Self-consistent Calculation

     iteration #  1     ecut=    20.00 Ry     beta= 0.70
     Davidson diagonalization with overlap
     ethr =  1.00E-02,  avg # of iterations =  4.8

     Threshold (ethr) on eigenvalues was too large:
     Diagonalizing with lowered threshold

     Davidson diagonalization with overlap
     ethr =  1.93E-04,  avg # of iterations =  1.9

     total cpu time spent up to now is        0.7 secs

     total energy              =     -39.50146265 Ry
     Harris-Foulkes estimate   =     -39.50292512 Ry
     estimated scf accuracy    <       0.00570549 Ry

     iteration #  2     ecut=    20.00 Ry     beta= 0.70
     Davidson diagonalization with overlap
     ethr =  1.90E-04,  avg # of iterations =  1.2

     total cpu time spent up to now is        0.7 secs

     total energy              =     -39.50144708 Ry
     Harris-Foulkes estimate   =     -39.50154500 Ry
     estimated scf accuracy    <       0.00040423 Ry

     iteration #  3     ecut=    20.00 Ry     beta= 0.70
     Davidson diagonalization with overlap
     ethr =  1.35E-05,  avg # of iterations =  1.4

     total cpu time spent up to now is        0.8 secs

     total energy              =     -39.50146593 Ry
     Harris-Foulkes estimate   =     -39.50146644 Ry
     estimated scf accuracy    <       0.00000153 Ry

     iteration #  4     ecut=    20.00 Ry     beta= 0.70
     Davidson diagonalization with overlap
     ethr =  5.10E-08,  avg # of iterations =  3.2

     total cpu time spent up to now is        0.9 secs

     total energy              =     -39.50146809 Ry
     Harris-Foulkes estimate   =     -39.50146809 Ry
     estimated scf accuracy    <       0.00000011 Ry

     iteration #  5     ecut=    20.00 Ry     beta= 0.70
     Davidson diagonalization with overlap
     ethr =  3.60E-09,  avg # of iterations =  1.0

     total cpu time spent up to now is        1.0 secs

     total energy              =     -39.50146810 Ry
     Harris-Foulkes estimate   =     -39.50146809 Ry
     estimated scf accuracy    <       0.00000008 Ry

     iteration #  6     ecut=    20.00 Ry     beta= 0.70
     Davidson diagonalization with overlap
     ethr =  2.54E-09,  avg # of iterations =  1.0

     total cpu time spent up to now is        1.1 secs

     End of self-consistent calculation

          k = 0.0000 0.0000 0.0000 (   169 PWs)   bands (ev):

    -3.2496  20.5427  20.5427  21.8796  21.8796  21.8796

          k =-0.1250 0.1250-0.1250 (   169 PWs)   bands (ev):

    -2.8266  16.1813  19.5420  19.5420  22.5394  23.4753

          k =-0.2500 0.2500-0.2500 (   162 PWs)   bands (ev):

    -1.5646  11.3036  18.7598  18.7598  22.1955  22.6302

          k =-0.3750 0.3750-0.3750 (   162 PWs)   bands (ev):

     0.5149   6.9968  18.6670  18.6670  20.6363  20.6363

          k = 0.5000-0.5000 0.5000 (   168 PWs)   bands (ev):

     3.2785   3.4869  19.1994  19.1994  19.3840  19.3840

          k = 0.0000 0.2500 0.0000 (   169 PWs)   bands (ev):

    -2.6859  17.7652  17.7652  18.0630  20.7339  22.5117

          k =-0.1250 0.3750-0.1250 (   166 PWs)   bands (ev):

    -1.7044  13.1671  16.6915  18.2364  19.4587  21.9774

          k =-0.2500 0.5000-0.2500 (   168 PWs)   bands (ev):

     0.1007   8.6970  16.3407  17.0855  18.0598  24.1197

          k = 0.6250-0.3750 0.6250 (   168 PWs)   bands (ev):

     2.6973   4.8671  15.4490  16.7151  18.4989  22.5990

          k = 0.5000-0.2500 0.5000 (   168 PWs)   bands (ev):

     1.7476   6.0608  14.5650  17.8148  19.6852  21.7528

          k = 0.3750-0.1250 0.3750 (   165 PWs)   bands (ev):

    -0.5908  10.1011  14.4640  19.6166  21.5745  21.6084

          k = 0.2500 0.0000 0.2500 (   164 PWs)   bands (ev):

    -2.1241  14.3236  15.5382  21.6423  21.8520  23.2392

          k = 0.0000 0.5000 0.0000 (   165 PWs)   bands (ev):

    -1.0076  15.3583  15.3583  15.3925  16.1230  18.8191

          k =-0.1250 0.6250-0.1250 (   165 PWs)   bands (ev):

     0.5128  11.0903  13.4437  14.7555  16.2605  20.2511

          k = 0.7500-0.2500 0.7500 (   171 PWs)   bands (ev):

     2.8271   7.1102  11.5144  14.8818  16.5990  23.9442

          k = 0.6250-0.1250 0.6250 (   174 PWs)   bands (ev):

     3.7747   5.8879  10.3892  15.7372  17.5851  25.5293

          k = 0.5000 0.0000 0.5000 (   170 PWs)   bands (ev):

     1.2008   9.1081  10.6009  17.3237  19.3004  24.8882

          k = 0.0000 0.7500 0.0000 (   170 PWs)   bands (ev):

     1.7405  10.4483  13.7341  13.9067  13.9067  17.3975

          k = 0.8750-0.1250 0.8750 (   172 PWs)   bands (ev):

     3.7393   8.2374  10.0746  13.7874  15.1962  19.3153

          k = 0.7500 0.0000 0.7500 (   172 PWs)   bands (ev):

     5.9806   6.5104   7.4565  14.3965  16.0758  23.5276

          k = 0.0000-1.0000 0.0000 (   174 PWs)   bands (ev):

     4.9411   6.2637  13.1737  13.4235  13.4235  16.8888

          k =-0.2500 0.5000 0.0000 (   166 PWs)   bands (ev):

    -0.4525  11.7221  13.1022  16.6343  20.0225  21.7388

          k = 0.6250-0.3750 0.8750 (   169 PWs)   bands (ev):

     1.6098   8.0005  12.4335  14.4909  20.6299  22.7241

          k = 0.5000-0.2500 0.7500 (   168 PWs)   bands (ev):

     4.3251   4.5760  12.8443  13.2830  21.1257  21.6244

          k = 0.7500-0.2500 1.0000 (   176 PWs)   bands (ev):

     2.2846  10.1542  10.8648  11.7258  18.5216  20.4905

          k = 0.6250-0.1250 0.8750 (   170 PWs)   bands (ev):

     4.8050   6.9365   9.3188  11.4699  19.6979  23.8219

          k = 0.5000 0.0000 0.7500 (   171 PWs)   bands (ev):

     3.9053   7.5434   9.0064  12.5777  20.9089  24.1770

          k =-0.2500-1.0000 0.0000 (   172 PWs)   bands (ev):

     5.4607   6.8054   9.6335  11.1165  18.0130  20.0362

          k =-0.5000-1.0000 0.0000 (   176 PWs)   bands (ev):

     7.0212   7.0212   8.0460   8.9315  23.6972  23.6972

     the Fermi energy is     7.8959 ev

!    total energy              =     -39.50146810 Ry
     Harris-Foulkes estimate   =     -39.50146810 Ry
     estimated scf accuracy    <          1.6E-10 Ry

     total all-electron energy =      -485.644249 Ry

     The total energy is the sum of the following terms:

     one-electron contribution =       3.15260128 Ry
     hartree contribution      =       0.00646582 Ry
     xc contribution           =      -2.58836968 Ry
     ewald contribution        =      -5.39395546 Ry
     one-center paw contrib.   =     -34.67789690 Ry
     smearing contrib. (-TS)   =      -0.00031316 Ry

     convergence has been achieved in   6 iterations

     Forces acting on atoms (cartesian axes, Ry/au):

     atom    1 type  1   force =     0.00000000    0.00000000    0.00000000

     Total force =     0.000000     Total SCF correction =     0.000000


     Computing stress (Cartesian axis) and pressure

          total   stress  (Ry/bohr**3)                   (kbar)     P=   -4.19
  -0.00002847  -0.00000000  -0.00000000         -4.19     -0.00     -0.00
  -0.00000000  -0.00002847   0.00000000         -0.00     -4.19      0.00
  -0.00000000   0.00000000  -0.00002847         -0.00      0.00     -4.19


     Writing output data file Al.save/

     init_run     :      0.08s CPU      0.09s WALL (       1 calls)
     electrons    :      0.51s CPU      0.62s WALL (       1 calls)
     forces       :      0.01s CPU      0.01s WALL (       1 calls)
     stress       :      0.02s CPU      0.02s WALL (       1 calls)

     Called by init_run:
     wfcinit      :      0.02s CPU      0.02s WALL (       1 calls)
     potinit      :      0.02s CPU      0.03s WALL (       1 calls)
     hinit0       :      0.04s CPU      0.04s WALL (       1 calls)

     Called by electrons:
     c_bands      :      0.31s CPU      0.35s WALL (       7 calls)
     sum_band     :      0.05s CPU      0.06s WALL (       7 calls)
     v_of_rho     :      0.01s CPU      0.01s WALL (       7 calls)
     newd         :      0.00s CPU      0.00s WALL (       7 calls)
     PAW_pot      :      0.16s CPU      0.21s WALL (       7 calls)
     mix_rho      :      0.00s CPU      0.00s WALL (       7 calls)

     Called by c_bands:
     init_us_2    :      0.01s CPU      0.01s WALL (     493 calls)
     cegterg      :      0.29s CPU      0.34s WALL (     203 calls)

     Called by sum_band:
     sum_band:bec :      0.00s CPU      0.00s WALL (     203 calls)
     addusdens    :      0.00s CPU      0.00s WALL (       7 calls)

     Called by *egterg:
     h_psi        :      0.20s CPU      0.23s WALL (     653 calls)
     s_psi        :      0.00s CPU      0.00s WALL (     653 calls)
     g_psi        :      0.00s CPU      0.00s WALL (     421 calls)
     cdiaghg      :      0.05s CPU      0.06s WALL (     595 calls)

     Called by h_psi:
     h_psi:pot    :      0.20s CPU      0.23s WALL (     653 calls)
     h_psi:calbec :      0.01s CPU      0.02s WALL (     653 calls)
     vloc_psi     :      0.18s CPU      0.20s WALL (     653 calls)
     add_vuspsi   :      0.00s CPU      0.00s WALL (     653 calls)

     General routines
     calbec       :      0.02s CPU      0.02s WALL (    1001 calls)
     fft          :      0.00s CPU      0.00s WALL (     104 calls)
     ffts         :      0.00s CPU      0.00s WALL (       7 calls)
     fftw         :      0.20s CPU      0.22s WALL (    7438 calls)

     Parallel routines
     fft_scatt_xy :      0.02s CPU      0.02s WALL (    7549 calls)
     fft_scatt_yz :      0.09s CPU      0.10s WALL (    7549 calls)

     PWSCF        :     1.04s CPU         1.21s WALL


   This run was terminated on:  19:56: 2  25Mar2024            

=------------------------------------------------------------------------------=
   JOB DONE.
=------------------------------------------------------------------------------=
