
     Program PWSCF v.6.3MaX starts on 25Mar2024 at 19:54: 1 

     This program is part of the open-source Quantum ESPRESSO suite
     for quantum simulation of materials; please cite
         "P. Giannozzi et al., J. Phys.:Condens. Matter 21 395502 (2009);
         "P. Giannozzi et al., J. Phys.:Condens. Matter 29 465901 (2017);
          URL http://www.quantum-espresso.org", 
     in publications or presentations arising from this work. More details at
     http://www.quantum-espresso.org/quote

     Parallel version (MPI), running on     5 processors

     MPI processes distributed on     1 nodes
     R & G space division:  proc/nbgrp/npool/nimage =       5
     Waiting for input...
     Reading input from standard input

     Current dimensions of program PWSCF are:
     Max number of different atomic species (ntypx) = 10
     Max number of k-points (npk) =  40000
     Max angular momentum in pseudopotentials (lmaxx) =  3
               file Al.pbe-n-kjpaw_psl.1.0.0.UPF: wavefunction(s)  3S 3P renormalized

     Subspace diagonalization in iterative solution of the eigenvalue problem:
     a serial algorithm will be used


     Parallelization info
     --------------------
     sticks:   dense  smooth     PW     G-vecs:    dense   smooth      PW
     Min          17      17      7                  106      106      27
     Max          17      17      8                  107      107      28
     Sum          85      85     37                  531      531     137



     bravais-lattice index     =            2
     lattice parameter (alat)  =       7.6500  a.u.
     unit-cell volume          =     111.9243 (a.u.)^3
     number of atoms/cell      =            1
     number of atomic types    =            1
     number of electrons       =         3.00
     number of Kohn-Sham states=            6
     kinetic-energy cutoff     =      10.0000  Ry
     charge density cutoff     =      40.0000  Ry
     convergence threshold     =      1.0E-08
     mixing beta               =       0.7000
     number of iterations used =            8  plain     mixing
     Exchange-correlation      = SLA PW PBX PBC ( 1  4  3  4 0 0)

     celldm(1)=   7.650000  celldm(2)=   0.000000  celldm(3)=   0.000000
     celldm(4)=   0.000000  celldm(5)=   0.000000  celldm(6)=   0.000000

     crystal axes: (cart. coord. in units of alat)
               a(1) = (  -0.500000   0.000000   0.500000 )  
               a(2) = (   0.000000   0.500000   0.500000 )  
               a(3) = (  -0.500000   0.500000   0.000000 )  

     reciprocal axes: (cart. coord. in units 2 pi/alat)
               b(1) = ( -1.000000 -1.000000  1.000000 )  
               b(2) = (  1.000000  1.000000  1.000000 )  
               b(3) = ( -1.000000  1.000000 -1.000000 )  


     PseudoPot. # 1 for Al read from file:
     /home/lorenzo/pseudos/Al/Al.pbe-n-kjpaw_psl.1.0.0.UPF
     MD5 check sum: 502b6b27b9c6270cab5dd1084b96fa6d
     Pseudo is Projector augmented-wave + core cor, Zval =  3.0
     Generated using "atomic" code by A. Dal Corso v.6.3
     Shape of augmentation charge: PSQ
     Using radial grid of 1135 points,  6 beta functions with: 
                l(1) =   0
                l(2) =   0
                l(3) =   1
                l(4) =   1
                l(5) =   2
                l(6) =   2
     Q(r) pseudized with 0 coefficients 


     atomic species   valence    mass     pseudopotential
        Al             3.00    26.98150     Al( 1.00)

     48 Sym. Ops., with inversion, found



   Cartesian axes

     site n.     atom                  positions (alat units)
         1           Al  tau(   1) = (   0.0000000   0.0000000   0.0000000  )

     number of k points=    20  gaussian smearing, width (Ry)=  0.0100
                       cart. coord. in units 2pi/alat
        k(    1) = (   0.0000000   0.0000000   0.0000000), wk =   0.0058309
        k(    2) = (  -0.1428571   0.1428571  -0.1428571), wk =   0.0466472
        k(    3) = (  -0.2857143   0.2857143  -0.2857143), wk =   0.0466472
        k(    4) = (  -0.4285714   0.4285714  -0.4285714), wk =   0.0466472
        k(    5) = (   0.0000000   0.2857143   0.0000000), wk =   0.0349854
        k(    6) = (  -0.1428571   0.4285714  -0.1428571), wk =   0.1399417
        k(    7) = (  -0.2857143   0.5714286  -0.2857143), wk =   0.1399417
        k(    8) = (   0.5714286  -0.2857143   0.5714286), wk =   0.1399417
        k(    9) = (   0.4285714  -0.1428571   0.4285714), wk =   0.1399417
        k(   10) = (   0.2857143  -0.0000000   0.2857143), wk =   0.0699708
        k(   11) = (   0.0000000   0.5714286   0.0000000), wk =   0.0349854
        k(   12) = (  -0.1428571   0.7142857  -0.1428571), wk =   0.1399417
        k(   13) = (   0.7142857  -0.1428571   0.7142857), wk =   0.1399417
        k(   14) = (   0.5714286   0.0000000   0.5714286), wk =   0.0699708
        k(   15) = (   0.0000000   0.8571429   0.0000000), wk =   0.0349854
        k(   16) = (   0.8571429  -0.0000000   0.8571429), wk =   0.0699708
        k(   17) = (  -0.2857143   0.5714286   0.0000000), wk =   0.1399417
        k(   18) = (   0.5714286  -0.2857143   0.8571429), wk =   0.2798834
        k(   19) = (   0.7142857  -0.1428571   1.0000000), wk =   0.1399417
        k(   20) = (   0.5714286   0.0000000   0.8571429), wk =   0.1399417

     Dense  grid:      531 G-vectors     FFT dimensions: (  12,  12,  12)

     Estimated max dynamical RAM per process >       1.05 MB

     Estimated total dynamical RAM >       5.24 MB

     Initial potential from superposition of free atoms

     starting charge    2.99771, renormalised to    3.00000
     Starting wfcs are    4 randomized atomic wfcs +    2 random wfcs
     Checking if some PAW data can be deallocated... 

     total cpu time spent up to now is        0.9 secs

     Self-consistent Calculation

     iteration #  1     ecut=    10.00 Ry     beta= 0.70
     Davidson diagonalization with overlap
     ethr =  1.00E-02,  avg # of iterations =  4.3

     Threshold (ethr) on eigenvalues was too large:
     Diagonalizing with lowered threshold

     Davidson diagonalization with overlap
     ethr =  1.92E-04,  avg # of iterations =  1.4

     total cpu time spent up to now is        1.1 secs

     total energy              =     -39.50304168 Ry
     Harris-Foulkes estimate   =     -39.50425023 Ry
     estimated scf accuracy    <       0.00571727 Ry

     iteration #  2     ecut=    10.00 Ry     beta= 0.70
     Davidson diagonalization with overlap
     ethr =  1.91E-04,  avg # of iterations =  1.0

     total cpu time spent up to now is        1.2 secs

     total energy              =     -39.50299028 Ry
     Harris-Foulkes estimate   =     -39.50308543 Ry
     estimated scf accuracy    <       0.00042532 Ry

     iteration #  3     ecut=    10.00 Ry     beta= 0.70
     Davidson diagonalization with overlap
     ethr =  1.42E-05,  avg # of iterations =  1.2

     total cpu time spent up to now is        1.4 secs

     total energy              =     -39.50299804 Ry
     Harris-Foulkes estimate   =     -39.50299820 Ry
     estimated scf accuracy    <       0.00000046 Ry

     iteration #  4     ecut=    10.00 Ry     beta= 0.70
     Davidson diagonalization with overlap
     ethr =  1.53E-08,  avg # of iterations =  2.9

     total cpu time spent up to now is        1.5 secs

     End of self-consistent calculation

          k = 0.0000 0.0000 0.0000 (    59 PWs)   bands (ev):

    -3.2460  20.7216  20.7216  21.8942  21.8942  21.8942

          k =-0.1429 0.1429-0.1429 (    59 PWs)   bands (ev):

    -2.6939  15.5199  19.4850  19.4850  22.5907  23.8486

          k =-0.2857 0.2857-0.2857 (    61 PWs)   bands (ev):

    -1.0504  10.0330  18.7251  18.7251  22.1177  22.1178

          k =-0.4286 0.4286-0.4286 (    61 PWs)   bands (ev):

     1.6512   5.3745  18.8971  18.8971  20.0822  20.0822

          k = 0.0000 0.2857 0.0000 (    60 PWs)   bands (ev):

    -2.5104  17.4197  17.4197  17.7570  20.4973  21.7212

          k =-0.1429 0.4286-0.1429 (    59 PWs)   bands (ev):

    -1.2316  12.1897  16.3108  17.9609  18.2961  22.1956

          k =-0.2857 0.5714-0.2857 (    60 PWs)   bands (ev):

     1.1143   7.2807  15.7909  16.1610  17.9940  24.1035

          k = 0.5714-0.2857 0.5714 (    61 PWs)   bands (ev):

     3.2430   4.4988  14.2791  16.9708  18.8876  22.6818

          k = 0.4286-0.1429 0.4286 (    59 PWs)   bands (ev):

     0.2167   8.8042  13.8059  18.7298  20.7713  22.1914

          k = 0.2857-0.0000 0.2857 (    61 PWs)   bands (ev):

    -1.7786  13.5027  14.7889  21.2965  22.1754  23.4220

          k = 0.0000 0.5714 0.0000 (    60 PWs)   bands (ev):

    -0.3252  14.4697  14.8630  14.8630  14.9170  18.4280

          k =-0.1429 0.7143-0.1429 (    59 PWs)   bands (ev):

     1.6476  10.1262  11.6141  14.3957  16.0057  20.5011

          k = 0.7143-0.1429 0.7143 (    60 PWs)   bands (ev):

     4.6137   5.8912   9.7580  14.8767  16.7202  25.1269

          k = 0.5714 0.0000 0.5714 (    59 PWs)   bands (ev):

     2.5405   8.0193   9.5108  16.3210  18.3305  26.4916

          k = 0.0000 0.8571 0.0000 (    64 PWs)   bands (ev):

     3.2184   8.3413  13.4543  13.5892  13.5892  17.1606

          k = 0.8571-0.0000 0.8571 (    60 PWs)   bands (ev):

     5.2824   6.6505   9.4723  13.7519  15.3192  19.8651

          k =-0.2857 0.5714 0.0000 (    60 PWs)   bands (ev):

     0.3960  10.7675  12.1822  15.1636  20.3699  22.0137

          k = 0.5714-0.2857 0.8571 (    58 PWs)   bands (ev):

     3.0684   6.7295  11.7670  13.0159  21.2459  22.6019

          k = 0.7143-0.1429 1.0000 (    58 PWs)   bands (ev):

     3.9228   9.0064   9.3941  10.9336  19.0557  20.9639

          k = 0.5714 0.0000 0.8571 (    59 PWs)   bands (ev):

     6.0039   6.6516   8.1072  11.1711  20.6846  25.1159

     the Fermi energy is     7.9927 ev

!    total energy              =     -39.50299872 Ry
     Harris-Foulkes estimate   =     -39.50299872 Ry
     estimated scf accuracy    <          7.1E-09 Ry

     total all-electron energy =      -485.645779 Ry

     The total energy is the sum of the following terms:

     one-electron contribution =       3.15123613 Ry
     hartree contribution      =       0.00632154 Ry
     xc contribution           =      -2.58752754 Ry
     ewald contribution        =      -5.39395546 Ry
     one-center paw contrib.   =     -34.67868899 Ry
     smearing contrib. (-TS)   =      -0.00038441 Ry

     convergence has been achieved in   4 iterations

     Forces acting on atoms (cartesian axes, Ry/au):

     atom    1 type  1   force =     0.00000000    0.00000000    0.00000000

     Total force =     0.000000     Total SCF correction =     0.000000


     Computing stress (Cartesian axis) and pressure

          total   stress  (Ry/bohr**3)                   (kbar)     P=  -10.71
  -0.00007279  -0.00000000  -0.00000000        -10.71     -0.00     -0.00
  -0.00000000  -0.00007279   0.00000000         -0.00    -10.71      0.00
  -0.00000000   0.00000000  -0.00007279         -0.00      0.00    -10.71


     Writing output data file Al.save/

     init_run     :      0.21s CPU      0.23s WALL (       1 calls)
     electrons    :      0.47s CPU      0.57s WALL (       1 calls)
     forces       :      0.01s CPU      0.01s WALL (       1 calls)
     stress       :      0.01s CPU      0.01s WALL (       1 calls)

     Called by init_run:
     wfcinit      :      0.01s CPU      0.01s WALL (       1 calls)
     potinit      :      0.11s CPU      0.13s WALL (       1 calls)
     hinit0       :      0.07s CPU      0.07s WALL (       1 calls)

     Called by electrons:
     c_bands      :      0.12s CPU      0.14s WALL (       5 calls)
     sum_band     :      0.02s CPU      0.02s WALL (       5 calls)
     v_of_rho     :      0.00s CPU      0.00s WALL (       5 calls)
     newd         :      0.00s CPU      0.00s WALL (       5 calls)
     PAW_pot      :      0.44s CPU      0.52s WALL (       5 calls)
     mix_rho      :      0.00s CPU      0.00s WALL (       5 calls)

     Called by c_bands:
     init_us_2    :      0.00s CPU      0.00s WALL (     260 calls)
     cegterg      :      0.11s CPU      0.13s WALL (     100 calls)

     Called by sum_band:
     sum_band:bec :      0.00s CPU      0.00s WALL (     100 calls)
     addusdens    :      0.00s CPU      0.00s WALL (       5 calls)

     Called by *egterg:
     h_psi        :      0.08s CPU      0.09s WALL (     335 calls)
     s_psi        :      0.00s CPU      0.00s WALL (     335 calls)
     g_psi        :      0.00s CPU      0.00s WALL (     215 calls)
     cdiaghg      :      0.02s CPU      0.03s WALL (     295 calls)

     Called by h_psi:
     h_psi:pot    :      0.08s CPU      0.09s WALL (     335 calls)
     h_psi:calbec :      0.01s CPU      0.01s WALL (     335 calls)
     vloc_psi     :      0.06s CPU      0.08s WALL (     335 calls)
     add_vuspsi   :      0.00s CPU      0.00s WALL (     335 calls)

     General routines
     calbec       :      0.01s CPU      0.01s WALL (     535 calls)
     fft          :      0.00s CPU      0.00s WALL (      82 calls)
     ffts         :      0.00s CPU      0.00s WALL (       5 calls)
     fftw         :      0.07s CPU      0.08s WALL (    3804 calls)

     Parallel routines
     fft_scatt_xy :      0.01s CPU      0.01s WALL (    3891 calls)
     fft_scatt_yz :      0.03s CPU      0.04s WALL (    3891 calls)

     PWSCF        :     1.41s CPU         1.58s WALL


   This run was terminated on:  19:54: 3  25Mar2024            

=------------------------------------------------------------------------------=
   JOB DONE.
=------------------------------------------------------------------------------=
