
     Program PWSCF v.6.3MaX starts on 25Mar2024 at 19:59:56 

     This program is part of the open-source Quantum ESPRESSO suite
     for quantum simulation of materials; please cite
         "P. Giannozzi et al., J. Phys.:Condens. Matter 21 395502 (2009);
         "P. Giannozzi et al., J. Phys.:Condens. Matter 29 465901 (2017);
          URL http://www.quantum-espresso.org", 
     in publications or presentations arising from this work. More details at
     http://www.quantum-espresso.org/quote

     Parallel version (MPI), running on     5 processors

     MPI processes distributed on     1 nodes
     R & G space division:  proc/nbgrp/npool/nimage =       5
     Waiting for input...
     Reading input from standard input

     Current dimensions of program PWSCF are:
     Max number of different atomic species (ntypx) = 10
     Max number of k-points (npk) =  40000
     Max angular momentum in pseudopotentials (lmaxx) =  3
               file Al.pbe-n-kjpaw_psl.1.0.0.UPF: wavefunction(s)  3S 3P renormalized

     Subspace diagonalization in iterative solution of the eigenvalue problem:
     a serial algorithm will be used


     Parallelization info
     --------------------
     sticks:   dense  smooth     PW     G-vecs:    dense   smooth      PW
     Min          62      62     21                  765      765     144
     Max          63      63     22                  770      770     146
     Sum         313     313    109                 3839     3839     725



     bravais-lattice index     =            2
     lattice parameter (alat)  =       7.6500  a.u.
     unit-cell volume          =     111.9243 (a.u.)^3
     number of atoms/cell      =            1
     number of atomic types    =            1
     number of electrons       =         3.00
     number of Kohn-Sham states=            6
     kinetic-energy cutoff     =      40.0000  Ry
     charge density cutoff     =     160.0000  Ry
     convergence threshold     =      1.0E-08
     mixing beta               =       0.7000
     number of iterations used =            8  plain     mixing
     Exchange-correlation      = SLA PW PBX PBC ( 1  4  3  4 0 0)

     celldm(1)=   7.650000  celldm(2)=   0.000000  celldm(3)=   0.000000
     celldm(4)=   0.000000  celldm(5)=   0.000000  celldm(6)=   0.000000

     crystal axes: (cart. coord. in units of alat)
               a(1) = (  -0.500000   0.000000   0.500000 )  
               a(2) = (   0.000000   0.500000   0.500000 )  
               a(3) = (  -0.500000   0.500000   0.000000 )  

     reciprocal axes: (cart. coord. in units 2 pi/alat)
               b(1) = ( -1.000000 -1.000000  1.000000 )  
               b(2) = (  1.000000  1.000000  1.000000 )  
               b(3) = ( -1.000000  1.000000 -1.000000 )  


     PseudoPot. # 1 for Al read from file:
     /home/lorenzo/pseudos/Al/Al.pbe-n-kjpaw_psl.1.0.0.UPF
     MD5 check sum: 502b6b27b9c6270cab5dd1084b96fa6d
     Pseudo is Projector augmented-wave + core cor, Zval =  3.0
     Generated using "atomic" code by A. Dal Corso v.6.3
     Shape of augmentation charge: PSQ
     Using radial grid of 1135 points,  6 beta functions with: 
                l(1) =   0
                l(2) =   0
                l(3) =   1
                l(4) =   1
                l(5) =   2
                l(6) =   2
     Q(r) pseudized with 0 coefficients 


     atomic species   valence    mass     pseudopotential
        Al             3.00    26.98150     Al( 1.00)

     48 Sym. Ops., with inversion, found



   Cartesian axes

     site n.     atom                  positions (alat units)
         1           Al  tau(   1) = (   0.0000000   0.0000000   0.0000000  )

     number of k points=    20  gaussian smearing, width (Ry)=  0.0100
                       cart. coord. in units 2pi/alat
        k(    1) = (   0.0000000   0.0000000   0.0000000), wk =   0.0058309
        k(    2) = (  -0.1428571   0.1428571  -0.1428571), wk =   0.0466472
        k(    3) = (  -0.2857143   0.2857143  -0.2857143), wk =   0.0466472
        k(    4) = (  -0.4285714   0.4285714  -0.4285714), wk =   0.0466472
        k(    5) = (   0.0000000   0.2857143   0.0000000), wk =   0.0349854
        k(    6) = (  -0.1428571   0.4285714  -0.1428571), wk =   0.1399417
        k(    7) = (  -0.2857143   0.5714286  -0.2857143), wk =   0.1399417
        k(    8) = (   0.5714286  -0.2857143   0.5714286), wk =   0.1399417
        k(    9) = (   0.4285714  -0.1428571   0.4285714), wk =   0.1399417
        k(   10) = (   0.2857143  -0.0000000   0.2857143), wk =   0.0699708
        k(   11) = (   0.0000000   0.5714286   0.0000000), wk =   0.0349854
        k(   12) = (  -0.1428571   0.7142857  -0.1428571), wk =   0.1399417
        k(   13) = (   0.7142857  -0.1428571   0.7142857), wk =   0.1399417
        k(   14) = (   0.5714286   0.0000000   0.5714286), wk =   0.0699708
        k(   15) = (   0.0000000   0.8571429   0.0000000), wk =   0.0349854
        k(   16) = (   0.8571429  -0.0000000   0.8571429), wk =   0.0699708
        k(   17) = (  -0.2857143   0.5714286   0.0000000), wk =   0.1399417
        k(   18) = (   0.5714286  -0.2857143   0.8571429), wk =   0.2798834
        k(   19) = (   0.7142857  -0.1428571   1.0000000), wk =   0.1399417
        k(   20) = (   0.5714286   0.0000000   0.8571429), wk =   0.1399417

     Dense  grid:     3839 G-vectors     FFT dimensions: (  24,  24,  24)

     Estimated max dynamical RAM per process >       4.33 MB

     Estimated total dynamical RAM >      21.63 MB

     Initial potential from superposition of free atoms

     starting charge    2.99771, renormalised to    3.00000
     Starting wfcs are    4 randomized atomic wfcs +    2 random wfcs
     Checking if some PAW data can be deallocated... 

     total cpu time spent up to now is        1.0 secs

     Self-consistent Calculation

     iteration #  1     ecut=    40.00 Ry     beta= 0.70
     Davidson diagonalization with overlap
     ethr =  1.00E-02,  avg # of iterations =  4.7

     Threshold (ethr) on eigenvalues was too large:
     Diagonalizing with lowered threshold

     Davidson diagonalization with overlap
     ethr =  1.89E-04,  avg # of iterations =  1.9

     total cpu time spent up to now is        1.4 secs

     total energy              =     -39.50634147 Ry
     Harris-Foulkes estimate   =     -39.50748520 Ry
     estimated scf accuracy    <       0.00557770 Ry

     iteration #  2     ecut=    40.00 Ry     beta= 0.70
     Davidson diagonalization with overlap
     ethr =  1.86E-04,  avg # of iterations =  1.0

     total cpu time spent up to now is        1.5 secs

     total energy              =     -39.50629686 Ry
     Harris-Foulkes estimate   =     -39.50638628 Ry
     estimated scf accuracy    <       0.00041507 Ry

     iteration #  3     ecut=    40.00 Ry     beta= 0.70
     Davidson diagonalization with overlap
     ethr =  1.38E-05,  avg # of iterations =  1.7

     total cpu time spent up to now is        1.8 secs

     total energy              =     -39.50630571 Ry
     Harris-Foulkes estimate   =     -39.50630584 Ry
     estimated scf accuracy    <       0.00000042 Ry

     iteration #  4     ecut=    40.00 Ry     beta= 0.70
     Davidson diagonalization with overlap
     ethr =  1.41E-08,  avg # of iterations =  3.1

     total cpu time spent up to now is        2.0 secs

     total energy              =     -39.50630736 Ry
     Harris-Foulkes estimate   =     -39.50630739 Ry
     estimated scf accuracy    <       0.00000003 Ry

     iteration #  5     ecut=    40.00 Ry     beta= 0.70
     Davidson diagonalization with overlap
     ethr =  1.02E-09,  avg # of iterations =  1.2

     total cpu time spent up to now is        2.2 secs

     End of self-consistent calculation

          k = 0.0000 0.0000 0.0000 (   531 PWs)   bands (ev):

    -3.2489  20.4347  20.4347  21.8944  21.8944  21.8944

          k =-0.1429 0.1429-0.1429 (   489 PWs)   bands (ev):

    -2.6966  15.4274  19.3408  19.3408  22.4828  23.6805

          k =-0.2857 0.2857-0.2857 (   483 PWs)   bands (ev):

    -1.0525   9.9913  18.6255  18.6255  21.9300  21.9300

          k =-0.4286 0.4286-0.4286 (   477 PWs)   bands (ev):

     1.6465   5.3562  18.8078  18.8078  19.9196  19.9196

          k = 0.0000 0.2857 0.0000 (   487 PWs)   bands (ev):

    -2.5129  17.3357  17.3357  17.5637  20.4660  21.5239

          k =-0.1429 0.4286-0.1429 (   482 PWs)   bands (ev):

    -1.2343  12.1262  16.2536  17.7955  18.1957  22.0625

          k =-0.2857 0.5714-0.2857 (   473 PWs)   bands (ev):

     1.1101   7.2527  15.6950  16.1094  17.8468  23.8497

          k = 0.5714-0.2857 0.5714 (   477 PWs)   bands (ev):

     3.2354   4.4838  14.2126  16.9061  18.7439  22.4689

          k = 0.4286-0.1429 0.4286 (   481 PWs)   bands (ev):

     0.2132   8.7677  13.7425  18.6388  20.5962  21.9756

          k = 0.2857-0.0000 0.2857 (   485 PWs)   bands (ev):

    -1.7808  13.4220  14.7406  21.2019  21.8685  23.2316

          k = 0.0000 0.5714 0.0000 (   480 PWs)   bands (ev):

    -0.3284  14.3868  14.7429  14.8386  14.8386  18.3207

          k =-0.1429 0.7143-0.1429 (   471 PWs)   bands (ev):

     1.6417  10.0755  11.5545  14.3721  15.8548  20.3463

          k = 0.7143-0.1429 0.7143 (   476 PWs)   bands (ev):

     4.6025   5.8702   9.7146  14.8496  16.5547  24.8931

          k = 0.5714 0.0000 0.5714 (   478 PWs)   bands (ev):

     2.5331   7.9890   9.4779  16.2731  18.1603  26.0904

          k = 0.0000 0.8571 0.0000 (   468 PWs)   bands (ev):

     3.2117   8.3026  13.2926  13.5868  13.5868  17.0342

          k = 0.8571-0.0000 0.8571 (   472 PWs)   bands (ev):

     5.2795   6.6050   9.4333  13.7456  15.1545  19.7316

          k =-0.2857 0.5714 0.0000 (   479 PWs)   bands (ev):

     0.3926  10.7080  12.1457  15.0892  20.1887  21.8981

          k = 0.5714-0.2857 0.8571 (   482 PWs)   bands (ev):

     3.0593   6.7032  11.7077  12.9602  21.0902  22.3526

          k = 0.7143-0.1429 1.0000 (   474 PWs)   bands (ev):

     3.9121   8.9577   9.3483  10.9016  18.8864  20.8155

          k = 0.5714 0.0000 0.8571 (   471 PWs)   bands (ev):

     5.9836   6.6328   8.0698  11.1262  20.5074  24.9046

     the Fermi energy is     7.9587 ev

!    total energy              =     -39.50630736 Ry
     Harris-Foulkes estimate   =     -39.50630736 Ry
     estimated scf accuracy    <          2.1E-10 Ry

     total all-electron energy =      -485.649088 Ry

     The total energy is the sum of the following terms:

     one-electron contribution =       3.14889814 Ry
     hartree contribution      =       0.00619427 Ry
     xc contribution           =      -2.58811108 Ry
     ewald contribution        =      -5.39395543 Ry
     one-center paw contrib.   =     -34.67894244 Ry
     smearing contrib. (-TS)   =      -0.00039082 Ry

     convergence has been achieved in   5 iterations

     Forces acting on atoms (cartesian axes, Ry/au):

     atom    1 type  1   force =     0.00000000    0.00000000    0.00000000

     Total force =     0.000000     Total SCF correction =     0.000000


     Computing stress (Cartesian axis) and pressure

          total   stress  (Ry/bohr**3)                   (kbar)     P=   -8.96
  -0.00006094  -0.00000000  -0.00000000         -8.96     -0.00     -0.00
  -0.00000000  -0.00006094   0.00000000         -0.00     -8.96      0.00
  -0.00000000   0.00000000  -0.00006094         -0.00      0.00     -8.96


     Writing output data file Al.save/

     init_run     :      0.24s CPU      0.26s WALL (       1 calls)
     electrons    :      1.02s CPU      1.12s WALL (       1 calls)
     forces       :      0.02s CPU      0.02s WALL (       1 calls)
     stress       :      0.05s CPU      0.06s WALL (       1 calls)

     Called by init_run:
     wfcinit      :      0.02s CPU      0.03s WALL (       1 calls)
     potinit      :      0.09s CPU      0.10s WALL (       1 calls)
     hinit0       :      0.11s CPU      0.11s WALL (       1 calls)

     Called by electrons:
     c_bands      :      0.41s CPU      0.44s WALL (       6 calls)
     sum_band     :      0.10s CPU      0.11s WALL (       6 calls)
     v_of_rho     :      0.02s CPU      0.02s WALL (       6 calls)
     newd         :      0.03s CPU      0.03s WALL (       6 calls)
     PAW_pot      :      0.55s CPU      0.61s WALL (       6 calls)
     mix_rho      :      0.00s CPU      0.00s WALL (       6 calls)

     Called by c_bands:
     init_us_2    :      0.02s CPU      0.02s WALL (     300 calls)
     cegterg      :      0.38s CPU      0.41s WALL (     120 calls)

     Called by sum_band:
     sum_band:bec :      0.00s CPU      0.00s WALL (     120 calls)
     addusdens    :      0.02s CPU      0.02s WALL (       6 calls)

     Called by *egterg:
     h_psi        :      0.31s CPU      0.34s WALL (     411 calls)
     s_psi        :      0.01s CPU      0.01s WALL (     411 calls)
     g_psi        :      0.00s CPU      0.00s WALL (     271 calls)
     cdiaghg      :      0.03s CPU      0.04s WALL (     371 calls)

     Called by h_psi:
     h_psi:pot    :      0.31s CPU      0.34s WALL (     411 calls)
     h_psi:calbec :      0.02s CPU      0.02s WALL (     411 calls)
     vloc_psi     :      0.28s CPU      0.31s WALL (     411 calls)
     add_vuspsi   :      0.01s CPU      0.01s WALL (     411 calls)

     General routines
     calbec       :      0.03s CPU      0.03s WALL (     631 calls)
     fft          :      0.01s CPU      0.01s WALL (      93 calls)
     ffts         :      0.00s CPU      0.00s WALL (       6 calls)
     fftw         :      0.31s CPU      0.34s WALL (    4580 calls)

     Parallel routines
     fft_scatt_xy :      0.03s CPU      0.03s WALL (    4679 calls)
     fft_scatt_yz :      0.09s CPU      0.10s WALL (    4679 calls)

     PWSCF        :     2.12s CPU         2.28s WALL


   This run was terminated on:  19:59:59  25Mar2024            

=------------------------------------------------------------------------------=
   JOB DONE.
=------------------------------------------------------------------------------=
