
     Program PWSCF v.6.3MaX starts on 25Mar2024 at 20:10:32 

     This program is part of the open-source Quantum ESPRESSO suite
     for quantum simulation of materials; please cite
         "P. Giannozzi et al., J. Phys.:Condens. Matter 21 395502 (2009);
         "P. Giannozzi et al., J. Phys.:Condens. Matter 29 465901 (2017);
          URL http://www.quantum-espresso.org", 
     in publications or presentations arising from this work. More details at
     http://www.quantum-espresso.org/quote

     Parallel version (MPI), running on     5 processors

     MPI processes distributed on     1 nodes
     R & G space division:  proc/nbgrp/npool/nimage =       5
     Waiting for input...
     Reading input from standard input

     Current dimensions of program PWSCF are:
     Max number of different atomic species (ntypx) = 10
     Max number of k-points (npk) =  40000
     Max angular momentum in pseudopotentials (lmaxx) =  3
               file Al.pbe-n-kjpaw_psl.1.0.0.UPF: wavefunction(s)  3S 3P renormalized

     Subspace diagonalization in iterative solution of the eigenvalue problem:
     a serial algorithm will be used


     Parallelization info
     --------------------
     sticks:   dense  smooth     PW     G-vecs:    dense   smooth      PW
     Min         129     129     39                 2168     2168     376
     Max         130     130     40                 2171     2171     380
     Sum         649     649    199                10849    10849    1893



     bravais-lattice index     =            2
     lattice parameter (alat)  =       7.6500  a.u.
     unit-cell volume          =     111.9243 (a.u.)^3
     number of atoms/cell      =            1
     number of atomic types    =            1
     number of electrons       =         3.00
     number of Kohn-Sham states=            6
     kinetic-energy cutoff     =      80.0000  Ry
     charge density cutoff     =     320.0000  Ry
     convergence threshold     =      1.0E-08
     mixing beta               =       0.7000
     number of iterations used =            8  plain     mixing
     Exchange-correlation      = SLA PW PBX PBC ( 1  4  3  4 0 0)

     celldm(1)=   7.650000  celldm(2)=   0.000000  celldm(3)=   0.000000
     celldm(4)=   0.000000  celldm(5)=   0.000000  celldm(6)=   0.000000

     crystal axes: (cart. coord. in units of alat)
               a(1) = (  -0.500000   0.000000   0.500000 )  
               a(2) = (   0.000000   0.500000   0.500000 )  
               a(3) = (  -0.500000   0.500000   0.000000 )  

     reciprocal axes: (cart. coord. in units 2 pi/alat)
               b(1) = ( -1.000000 -1.000000  1.000000 )  
               b(2) = (  1.000000  1.000000  1.000000 )  
               b(3) = ( -1.000000  1.000000 -1.000000 )  


     PseudoPot. # 1 for Al read from file:
     /home/lorenzo/pseudos/Al/Al.pbe-n-kjpaw_psl.1.0.0.UPF
     MD5 check sum: 502b6b27b9c6270cab5dd1084b96fa6d
     Pseudo is Projector augmented-wave + core cor, Zval =  3.0
     Generated using "atomic" code by A. Dal Corso v.6.3
     Shape of augmentation charge: PSQ
     Using radial grid of 1135 points,  6 beta functions with: 
                l(1) =   0
                l(2) =   0
                l(3) =   1
                l(4) =   1
                l(5) =   2
                l(6) =   2
     Q(r) pseudized with 0 coefficients 


     atomic species   valence    mass     pseudopotential
        Al             3.00    26.98150     Al( 1.00)

     48 Sym. Ops., with inversion, found



   Cartesian axes

     site n.     atom                  positions (alat units)
         1           Al  tau(   1) = (   0.0000000   0.0000000   0.0000000  )

     number of k points=    16  gaussian smearing, width (Ry)=  0.0100
                       cart. coord. in units 2pi/alat
        k(    1) = (   0.0000000   0.0000000   0.0000000), wk =   0.0092593
        k(    2) = (  -0.1666667   0.1666667  -0.1666667), wk =   0.0740741
        k(    3) = (  -0.3333333   0.3333333  -0.3333333), wk =   0.0740741
        k(    4) = (   0.5000000  -0.5000000   0.5000000), wk =   0.0370370
        k(    5) = (   0.0000000   0.3333333   0.0000000), wk =   0.0555556
        k(    6) = (  -0.1666667   0.5000000  -0.1666667), wk =   0.2222222
        k(    7) = (   0.6666667  -0.3333333   0.6666667), wk =   0.2222222
        k(    8) = (   0.5000000  -0.1666667   0.5000000), wk =   0.2222222
        k(    9) = (   0.3333333   0.0000000   0.3333333), wk =   0.1111111
        k(   10) = (   0.0000000   0.6666667   0.0000000), wk =   0.0555556
        k(   11) = (   0.8333333  -0.1666667   0.8333333), wk =   0.2222222
        k(   12) = (   0.6666667  -0.0000000   0.6666667), wk =   0.1111111
        k(   13) = (   0.0000000  -1.0000000   0.0000000), wk =   0.0277778
        k(   14) = (   0.6666667  -0.3333333   1.0000000), wk =   0.2222222
        k(   15) = (   0.5000000  -0.1666667   0.8333333), wk =   0.2222222
        k(   16) = (  -0.3333333  -1.0000000   0.0000000), wk =   0.1111111

     Dense  grid:    10849 G-vectors     FFT dimensions: (  32,  32,  32)

     Estimated max dynamical RAM per process >      10.29 MB

     Estimated total dynamical RAM >      51.47 MB

     Initial potential from superposition of free atoms

     starting charge    2.99771, renormalised to    3.00000
     Starting wfcs are    4 randomized atomic wfcs +    2 random wfcs
     Checking if some PAW data can be deallocated... 

     total cpu time spent up to now is        1.1 secs

     Self-consistent Calculation

     iteration #  1     ecut=    80.00 Ry     beta= 0.70
     Davidson diagonalization with overlap
     ethr =  1.00E-02,  avg # of iterations =  4.8

     Threshold (ethr) on eigenvalues was too large:
     Diagonalizing with lowered threshold

     Davidson diagonalization with overlap
     ethr =  1.74E-04,  avg # of iterations =  1.8

     total cpu time spent up to now is        1.6 secs

     total energy              =     -39.50781589 Ry
     Harris-Foulkes estimate   =     -39.50898397 Ry
     estimated scf accuracy    <       0.00514478 Ry

     iteration #  2     ecut=    80.00 Ry     beta= 0.70
     Davidson diagonalization with overlap
     ethr =  1.71E-04,  avg # of iterations =  1.0

     total cpu time spent up to now is        1.9 secs

     total energy              =     -39.50777494 Ry
     Harris-Foulkes estimate   =     -39.50786212 Ry
     estimated scf accuracy    <       0.00037008 Ry

     iteration #  3     ecut=    80.00 Ry     beta= 0.70
     Davidson diagonalization with overlap
     ethr =  1.23E-05,  avg # of iterations =  2.1

     total cpu time spent up to now is        2.1 secs

     total energy              =     -39.50778317 Ry
     Harris-Foulkes estimate   =     -39.50778328 Ry
     estimated scf accuracy    <       0.00000043 Ry

     iteration #  4     ecut=    80.00 Ry     beta= 0.70
     Davidson diagonalization with overlap
     ethr =  1.42E-08,  avg # of iterations =  2.6

     total cpu time spent up to now is        2.4 secs

     total energy              =     -39.50778441 Ry
     Harris-Foulkes estimate   =     -39.50778443 Ry
     estimated scf accuracy    <       0.00000002 Ry

     iteration #  5     ecut=    80.00 Ry     beta= 0.70
     Davidson diagonalization with overlap
     ethr =  6.20E-10,  avg # of iterations =  1.2

     total cpu time spent up to now is        2.6 secs

     End of self-consistent calculation

          k = 0.0000 0.0000 0.0000 (  1363 PWs)   bands (ev):

    -3.2507  20.4322  20.4322  21.8936  21.8936  21.8936

          k =-0.1667 0.1667-0.1667 (  1354 PWs)   bands (ev):

    -2.4995  14.4756  19.1614  19.1614  22.4041  23.7993

          k =-0.3333 0.3333-0.3333 (  1356 PWs)   bands (ev):

    -0.2694   8.3459  18.5824  18.5824  21.1644  21.1644

          k = 0.5000-0.5000 0.5000 (  1350 PWs)   bands (ev):

     3.2775   3.4783  19.2102  19.2102  19.2819  19.2819

          k = 0.0000 0.3333 0.0000 (  1351 PWs)   bands (ev):

    -2.2499  16.8337  16.8337  17.0059  20.0705  20.3060

          k =-0.1667 0.5000-0.1667 (  1353 PWs)   bands (ev):

    -0.5157  10.8448  15.7793  16.5115  17.4235  22.3044

          k = 0.6667-0.3333 0.6667 (  1356 PWs)   bands (ev):

     2.6476   5.5242  14.0516  16.0057  17.7855  23.7699

          k = 0.5000-0.1667 0.5000 (  1355 PWs)   bands (ev):

     1.4410   7.1507  12.9426  17.5142  19.4440  22.7072

          k = 0.3333 0.0000 0.3333 (  1354 PWs)   bands (ev):

    -1.2563  12.3271  13.7302  20.2625  22.2894  22.3809

          k = 0.0000 0.6667 0.0000 (  1347 PWs)   bands (ev):

     0.7083  12.2193  14.0960  14.2806  14.2806  17.7632

          k = 0.8333-0.1667 0.8333 (  1343 PWs)   bands (ev):

     3.3489   8.8841   9.3482  14.0712  15.5721  20.7291

          k = 0.6667-0.0000 0.6667 (  1360 PWs)   bands (ev):

     4.5558   6.7805   8.2389  15.1473  16.9077  26.4587

          k = 0.0000-1.0000 0.0000 (  1362 PWs)   bands (ev):

     4.9391   6.2524  13.1061  13.4290  13.4290  16.8658

          k = 0.6667-0.3333 1.0000 (  1348 PWs)   bands (ev):

     1.6815   9.5530  11.0075  13.2063  20.6387  22.2562

          k = 0.5000-0.1667 0.8333 (  1358 PWs)   bands (ev):

     5.1272   5.3862  10.8507  11.4095  21.8333  22.3123

          k =-0.3333-1.0000 0.0000 (  1348 PWs)   bands (ev):

     5.8590   7.2021   8.6280  10.1894  19.7525  21.5675

     the Fermi energy is     8.2064 ev

!    total energy              =     -39.50778441 Ry
     Harris-Foulkes estimate   =     -39.50778441 Ry
     estimated scf accuracy    <          1.2E-10 Ry

     total all-electron energy =      -485.650565 Ry

     The total energy is the sum of the following terms:

     one-electron contribution =       3.14883053 Ry
     hartree contribution      =       0.00531629 Ry
     xc contribution           =      -2.58790848 Ry
     ewald contribution        =      -5.39395538 Ry
     one-center paw contrib.   =     -34.67969830 Ry
     smearing contrib. (-TS)   =      -0.00036906 Ry

     convergence has been achieved in   5 iterations

     Forces acting on atoms (cartesian axes, Ry/au):

     atom    1 type  1   force =     0.00000000    0.00000000    0.00000000

     Total force =     0.000000     Total SCF correction =     0.000000


     Computing stress (Cartesian axis) and pressure

          total   stress  (Ry/bohr**3)                   (kbar)     P=   -0.11
  -0.00000075   0.00000000   0.00000000         -0.11      0.00      0.00
   0.00000000  -0.00000075   0.00000000          0.00     -0.11      0.00
   0.00000000   0.00000000  -0.00000075          0.00      0.00     -0.11


     Writing output data file Al.save/

     init_run     :      0.37s CPU      0.41s WALL (       1 calls)
     electrons    :      1.40s CPU      1.49s WALL (       1 calls)
     forces       :      0.04s CPU      0.04s WALL (       1 calls)
     stress       :      0.14s CPU      0.14s WALL (       1 calls)

     Called by init_run:
     wfcinit      :      0.04s CPU      0.05s WALL (       1 calls)
     potinit      :      0.11s CPU      0.13s WALL (       1 calls)
     hinit0       :      0.18s CPU      0.18s WALL (       1 calls)

     Called by electrons:
     c_bands      :      0.66s CPU      0.71s WALL (       6 calls)
     sum_band     :      0.19s CPU      0.21s WALL (       6 calls)
     v_of_rho     :      0.05s CPU      0.05s WALL (       6 calls)
     newd         :      0.07s CPU      0.07s WALL (       6 calls)
     PAW_pot      :      0.54s CPU      0.57s WALL (       6 calls)
     mix_rho      :      0.00s CPU      0.00s WALL (       6 calls)

     Called by c_bands:
     init_us_2    :      0.04s CPU      0.04s WALL (     240 calls)
     cegterg      :      0.61s CPU      0.66s WALL (      96 calls)

     Called by sum_band:
     sum_band:bec :      0.00s CPU      0.00s WALL (      96 calls)
     addusdens    :      0.06s CPU      0.07s WALL (       6 calls)

     Called by *egterg:
     h_psi        :      0.52s CPU      0.57s WALL (     329 calls)
     s_psi        :      0.02s CPU      0.02s WALL (     329 calls)
     g_psi        :      0.00s CPU      0.00s WALL (     217 calls)
     cdiaghg      :      0.03s CPU      0.03s WALL (     297 calls)

     Called by h_psi:
     h_psi:pot    :      0.52s CPU      0.56s WALL (     329 calls)
     h_psi:calbec :      0.03s CPU      0.03s WALL (     329 calls)
     vloc_psi     :      0.47s CPU      0.51s WALL (     329 calls)
     add_vuspsi   :      0.02s CPU      0.02s WALL (     329 calls)

     General routines
     calbec       :      0.05s CPU      0.05s WALL (     505 calls)
     fft          :      0.02s CPU      0.02s WALL (      93 calls)
     ffts         :      0.00s CPU      0.00s WALL (       6 calls)
     fftw         :      0.51s CPU      0.56s WALL (    3646 calls)

     Parallel routines
     fft_scatt_xy :      0.05s CPU      0.05s WALL (    3745 calls)
     fft_scatt_yz :      0.22s CPU      0.24s WALL (    3745 calls)

     PWSCF        :     2.66s CPU         2.84s WALL


   This run was terminated on:  20:10:35  25Mar2024            

=------------------------------------------------------------------------------=
   JOB DONE.
=------------------------------------------------------------------------------=
