
     Program PWSCF v.6.3MaX starts on 25Mar2024 at 19:54: 9 

     This program is part of the open-source Quantum ESPRESSO suite
     for quantum simulation of materials; please cite
         "P. Giannozzi et al., J. Phys.:Condens. Matter 21 395502 (2009);
         "P. Giannozzi et al., J. Phys.:Condens. Matter 29 465901 (2017);
          URL http://www.quantum-espresso.org", 
     in publications or presentations arising from this work. More details at
     http://www.quantum-espresso.org/quote

     Parallel version (MPI), running on     5 processors

     MPI processes distributed on     1 nodes
     R & G space division:  proc/nbgrp/npool/nimage =       5
     Waiting for input...
     Reading input from standard input

     Current dimensions of program PWSCF are:
     Max number of different atomic species (ntypx) = 10
     Max number of k-points (npk) =  40000
     Max angular momentum in pseudopotentials (lmaxx) =  3

     Subspace diagonalization in iterative solution of the eigenvalue problem:
     a serial algorithm will be used


     Parallelization info
     --------------------
     sticks:   dense  smooth     PW     G-vecs:    dense   smooth      PW
     Min          17      17      7                  106      106      27
     Max          17      17      8                  107      107      28
     Sum          85      85     37                  531      531     137



     bravais-lattice index     =            2
     lattice parameter (alat)  =       7.6500  a.u.
     unit-cell volume          =     111.9243 (a.u.)^3
     number of atoms/cell      =            1
     number of atomic types    =            1
     number of electrons       =         3.00
     number of Kohn-Sham states=            6
     kinetic-energy cutoff     =      10.0000  Ry
     charge density cutoff     =      40.0000  Ry
     convergence threshold     =      1.0E-08
     mixing beta               =       0.7000
     number of iterations used =            8  plain     mixing
     Exchange-correlation      = PBE ( 1  4  3  4 0 0)

     celldm(1)=   7.650000  celldm(2)=   0.000000  celldm(3)=   0.000000
     celldm(4)=   0.000000  celldm(5)=   0.000000  celldm(6)=   0.000000

     crystal axes: (cart. coord. in units of alat)
               a(1) = (  -0.500000   0.000000   0.500000 )  
               a(2) = (   0.000000   0.500000   0.500000 )  
               a(3) = (  -0.500000   0.500000   0.000000 )  

     reciprocal axes: (cart. coord. in units 2 pi/alat)
               b(1) = ( -1.000000 -1.000000  1.000000 )  
               b(2) = (  1.000000  1.000000  1.000000 )  
               b(3) = ( -1.000000  1.000000 -1.000000 )  


     PseudoPot. # 1 for Al read from file:
     /home/lorenzo/pseudos/Al/Al.pbe-nl-rrkjus_psl.1.0.0.UPF
     MD5 check sum: 6db8691240a1c860ce6448702d298c4b
     Pseudo is Ultrasoft + core correction, Zval =  3.0
     Generated using "atomic" code by A. Dal Corso v.6.3
     Using radial grid of 1135 points,  4 beta functions with: 
                l(1) =   0
                l(2) =   0
                l(3) =   1
                l(4) =   1
     Q(r) pseudized with 0 coefficients 


     atomic species   valence    mass     pseudopotential
        Al             3.00    26.98150     Al( 1.00)

     48 Sym. Ops., with inversion, found



   Cartesian axes

     site n.     atom                  positions (alat units)
         1           Al  tau(   1) = (   0.0000000   0.0000000   0.0000000  )

     number of k points=    29  gaussian smearing, width (Ry)=  0.0100
                       cart. coord. in units 2pi/alat
        k(    1) = (   0.0000000   0.0000000   0.0000000), wk =   0.0039062
        k(    2) = (  -0.1250000   0.1250000  -0.1250000), wk =   0.0312500
        k(    3) = (  -0.2500000   0.2500000  -0.2500000), wk =   0.0312500
        k(    4) = (  -0.3750000   0.3750000  -0.3750000), wk =   0.0312500
        k(    5) = (   0.5000000  -0.5000000   0.5000000), wk =   0.0156250
        k(    6) = (   0.0000000   0.2500000   0.0000000), wk =   0.0234375
        k(    7) = (  -0.1250000   0.3750000  -0.1250000), wk =   0.0937500
        k(    8) = (  -0.2500000   0.5000000  -0.2500000), wk =   0.0937500
        k(    9) = (   0.6250000  -0.3750000   0.6250000), wk =   0.0937500
        k(   10) = (   0.5000000  -0.2500000   0.5000000), wk =   0.0937500
        k(   11) = (   0.3750000  -0.1250000   0.3750000), wk =   0.0937500
        k(   12) = (   0.2500000   0.0000000   0.2500000), wk =   0.0468750
        k(   13) = (   0.0000000   0.5000000   0.0000000), wk =   0.0234375
        k(   14) = (  -0.1250000   0.6250000  -0.1250000), wk =   0.0937500
        k(   15) = (   0.7500000  -0.2500000   0.7500000), wk =   0.0937500
        k(   16) = (   0.6250000  -0.1250000   0.6250000), wk =   0.0937500
        k(   17) = (   0.5000000   0.0000000   0.5000000), wk =   0.0468750
        k(   18) = (   0.0000000   0.7500000   0.0000000), wk =   0.0234375
        k(   19) = (   0.8750000  -0.1250000   0.8750000), wk =   0.0937500
        k(   20) = (   0.7500000   0.0000000   0.7500000), wk =   0.0468750
        k(   21) = (   0.0000000  -1.0000000   0.0000000), wk =   0.0117188
        k(   22) = (  -0.2500000   0.5000000   0.0000000), wk =   0.0937500
        k(   23) = (   0.6250000  -0.3750000   0.8750000), wk =   0.1875000
        k(   24) = (   0.5000000  -0.2500000   0.7500000), wk =   0.0937500
        k(   25) = (   0.7500000  -0.2500000   1.0000000), wk =   0.0937500
        k(   26) = (   0.6250000  -0.1250000   0.8750000), wk =   0.1875000
        k(   27) = (   0.5000000   0.0000000   0.7500000), wk =   0.0937500
        k(   28) = (  -0.2500000  -1.0000000   0.0000000), wk =   0.0468750
        k(   29) = (  -0.5000000  -1.0000000   0.0000000), wk =   0.0234375

     Dense  grid:      531 G-vectors     FFT dimensions: (  12,  12,  12)

     Estimated max dynamical RAM per process >       0.37 MB

     Estimated total dynamical RAM >       1.84 MB

     Initial potential from superposition of free atoms

     starting charge    2.99771, renormalised to    3.00000
     Starting wfcs are    4 randomized atomic wfcs +    2 random wfcs

     total cpu time spent up to now is        0.5 secs

     Self-consistent Calculation

     iteration #  1     ecut=    10.00 Ry     beta= 0.70
     Davidson diagonalization with overlap
     ethr =  1.00E-02,  avg # of iterations =  4.3

     Threshold (ethr) on eigenvalues was too large:
     Diagonalizing with lowered threshold

     Davidson diagonalization with overlap
     ethr =  1.94E-04,  avg # of iterations =  1.4

     total cpu time spent up to now is        0.7 secs

     total energy              =      -5.03470684 Ry
     Harris-Foulkes estimate   =      -5.03601062 Ry
     estimated scf accuracy    <       0.00576126 Ry

     iteration #  2     ecut=    10.00 Ry     beta= 0.70
     Davidson diagonalization with overlap
     ethr =  1.92E-04,  avg # of iterations =  1.0

     total cpu time spent up to now is        0.7 secs

     total energy              =      -5.03467012 Ry
     Harris-Foulkes estimate   =      -5.03476378 Ry
     estimated scf accuracy    <       0.00041626 Ry

     iteration #  3     ecut=    10.00 Ry     beta= 0.70
     Davidson diagonalization with overlap
     ethr =  1.39E-05,  avg # of iterations =  1.2

     total cpu time spent up to now is        0.8 secs

     total energy              =      -5.03468264 Ry
     Harris-Foulkes estimate   =      -5.03468227 Ry
     estimated scf accuracy    <       0.00000116 Ry

     iteration #  4     ecut=    10.00 Ry     beta= 0.70
     Davidson diagonalization with overlap
     ethr =  3.87E-08,  avg # of iterations =  3.0

     total cpu time spent up to now is        0.8 secs

     total energy              =      -5.03468382 Ry
     Harris-Foulkes estimate   =      -5.03468381 Ry
     estimated scf accuracy    <       0.00000001 Ry

     iteration #  5     ecut=    10.00 Ry     beta= 0.70
     Davidson diagonalization with overlap
     ethr =  4.67E-10,  avg # of iterations =  1.2

     total cpu time spent up to now is        0.9 secs

     End of self-consistent calculation

          k = 0.0000 0.0000 0.0000 (    59 PWs)   bands (ev):

    -3.2477  20.8642  20.8642  21.8922  21.8922  21.8922

          k =-0.1250 0.1250-0.1250 (    59 PWs)   bands (ev):

    -2.8251  16.2907  19.7094  19.7095  22.6598  23.6600

          k =-0.2500 0.2500-0.2500 (    61 PWs)   bands (ev):

    -1.5645  11.3533  18.8720  18.8720  22.3670  22.8560

          k =-0.3750 0.3750-0.3750 (    61 PWs)   bands (ev):

     0.5152   7.0233  18.7598  18.7598  20.8248  20.8248

          k = 0.5000-0.5000 0.5000 (    70 PWs)   bands (ev):

     3.2754   3.5018  19.1977  19.1977  19.6224  19.6224

          k = 0.0000 0.2500 0.0000 (    60 PWs)   bands (ev):

    -2.6846  17.8674  17.8674  18.2823  20.7683  22.7616

          k =-0.1250 0.3750-0.1250 (    60 PWs)   bands (ev):

    -1.7039  13.2344  16.7617  18.4007  19.5929  22.1175

          k =-0.2500 0.5000-0.2500 (    62 PWs)   bands (ev):

     0.1008   8.7297  16.3931  17.1919  18.2027  24.4060

          k = 0.6250-0.3750 0.6250 (    61 PWs)   bands (ev):

     2.7018   4.8809  15.5338  16.7903  18.6451  22.8293

          k = 0.5000-0.2500 0.5000 (    61 PWs)   bands (ev):

     1.7501   6.0800  14.6323  17.8978  19.8366  21.9688

          k = 0.3750-0.1250 0.3750 (    61 PWs)   bands (ev):

    -0.5906  10.1431  14.5264  19.7080  21.7719  21.8529

          k = 0.2500 0.0000 0.2500 (    61 PWs)   bands (ev):

    -2.1236  14.4136  15.5956  21.9138  21.9771  23.4755

          k = 0.0000 0.5000 0.0000 (    60 PWs)   bands (ev):

    -1.0074  15.3927  15.3927  15.5790  16.2251  18.9209

          k =-0.1250 0.6250-0.1250 (    56 PWs)   bands (ev):

     0.5150  11.1473  13.5248  14.7944  16.4129  20.4359

          k = 0.7500-0.2500 0.7500 (    59 PWs)   bands (ev):

     2.8317   7.1342  11.5712  14.9136  16.7702  24.1817

          k = 0.6250-0.1250 0.6250 (    60 PWs)   bands (ev):

     3.7820   5.9047  10.4302  15.7771  17.7554  25.8845

          k = 0.5000 0.0000 0.5000 (    59 PWs)   bands (ev):

     1.2021   9.1468  10.6318  17.3948  19.4762  25.7521

          k = 0.0000 0.7500 0.0000 (    56 PWs)   bands (ev):

     1.7434  10.5122  13.9202  13.9202  13.9239  17.5444

          k = 0.8750-0.1250 0.8750 (    60 PWs)   bands (ev):

     3.7453   8.2781  10.1171  13.7975  15.3501  19.4569

          k = 0.7500 0.0000 0.7500 (    56 PWs)   bands (ev):

     5.9895   6.5344   7.5005  14.4245  16.2499  23.7692

          k = 0.0000-1.0000 0.0000 (    64 PWs)   bands (ev):

     4.9380   6.3035  13.3429  13.4231  13.4231  17.0175

          k =-0.2500 0.5000 0.0000 (    61 PWs)   bands (ev):

    -0.4520  11.7883  13.1417  16.7228  20.2201  21.8551

          k = 0.6250-0.3750 0.8750 (    60 PWs)   bands (ev):

     1.6118   8.0285  12.4856  14.5594  20.8003  22.9469

          k = 0.5000-0.2500 0.7500 (    58 PWs)   bands (ev):

     4.3295   4.5967  12.9344  13.3161  21.2168  21.9458

          k = 0.7500-0.2500 1.0000 (    62 PWs)   bands (ev):

     2.2875  10.2049  10.9292  11.7411  18.6830  20.6265

          k = 0.6250-0.1250 0.8750 (    60 PWs)   bands (ev):

     4.8156   6.9587   9.3590  11.5073  19.8698  24.0409

          k = 0.5000 0.0000 0.7500 (    61 PWs)   bands (ev):

     3.9131   7.5639   9.0395  12.6279  21.0737  24.4822

          k =-0.2500-1.0000 0.0000 (    60 PWs)   bands (ev):

     5.4633   6.8474   9.6764  11.1457  18.1709  20.1762

          k =-0.5000-1.0000 0.0000 (    56 PWs)   bands (ev):

     7.0430   7.0430   8.0975   8.9539  24.0049  24.0049

     the Fermi energy is     7.9251 ev

!    total energy              =      -5.03468382 Ry
     Harris-Foulkes estimate   =      -5.03468382 Ry
     estimated scf accuracy    <          3.9E-09 Ry

     The total energy is the sum of the following terms:

     one-electron contribution =       2.94175397 Ry
     hartree contribution      =       0.00660790 Ry
     xc contribution           =      -2.58877952 Ry
     ewald contribution        =      -5.39395546 Ry
     smearing contrib. (-TS)   =      -0.00031071 Ry

     convergence has been achieved in   5 iterations

     Forces acting on atoms (cartesian axes, Ry/au):

     atom    1 type  1   force =     0.00000000    0.00000000    0.00000000

     Total force =     0.000000     Total SCF correction =     0.000000


     Computing stress (Cartesian axis) and pressure

          total   stress  (Ry/bohr**3)                   (kbar)     P=    5.03
   0.00003418  -0.00000000   0.00000000          5.03     -0.00      0.00
  -0.00000000   0.00003418   0.00000000         -0.00      5.03      0.00
   0.00000000  -0.00000000   0.00003418          0.00     -0.00      5.03


     Writing output data file Al.save/

     init_run     :      0.05s CPU      0.05s WALL (       1 calls)
     electrons    :      0.35s CPU      0.40s WALL (       1 calls)
     forces       :      0.01s CPU      0.01s WALL (       1 calls)
     stress       :      0.01s CPU      0.01s WALL (       1 calls)

     Called by init_run:
     wfcinit      :      0.02s CPU      0.02s WALL (       1 calls)
     potinit      :      0.00s CPU      0.00s WALL (       1 calls)
     hinit0       :      0.03s CPU      0.03s WALL (       1 calls)

     Called by electrons:
     c_bands      :      0.29s CPU      0.32s WALL (       6 calls)
     sum_band     :      0.05s CPU      0.06s WALL (       6 calls)
     v_of_rho     :      0.00s CPU      0.00s WALL (       6 calls)
     newd         :      0.00s CPU      0.00s WALL (       6 calls)
     mix_rho      :      0.00s CPU      0.00s WALL (       6 calls)

     Called by c_bands:
     init_us_2    :      0.00s CPU      0.00s WALL (     435 calls)
     cegterg      :      0.28s CPU      0.31s WALL (     174 calls)

     Called by sum_band:
     sum_band:bec :      0.00s CPU      0.00s WALL (     174 calls)
     addusdens    :      0.00s CPU      0.00s WALL (       6 calls)

     Called by *egterg:
     h_psi        :      0.19s CPU      0.22s WALL (     555 calls)
     s_psi        :      0.00s CPU      0.00s WALL (     555 calls)
     g_psi        :      0.00s CPU      0.00s WALL (     352 calls)
     cdiaghg      :      0.05s CPU      0.06s WALL (     497 calls)

     Called by h_psi:
     h_psi:pot    :      0.19s CPU      0.22s WALL (     555 calls)
     h_psi:calbec :      0.03s CPU      0.04s WALL (     555 calls)
     vloc_psi     :      0.15s CPU      0.17s WALL (     555 calls)
     add_vuspsi   :      0.00s CPU      0.00s WALL (     555 calls)

     General routines
     calbec       :      0.05s CPU      0.05s WALL (     874 calls)
     fft          :      0.00s CPU      0.01s WALL (      93 calls)
     ffts         :      0.00s CPU      0.00s WALL (       6 calls)
     fftw         :      0.18s CPU      0.20s WALL (    6396 calls)

     Parallel routines
     fft_scatt_xy :      0.01s CPU      0.02s WALL (    6495 calls)
     fft_scatt_yz :      0.12s CPU      0.13s WALL (    6495 calls)

     PWSCF        :     0.88s CPU         1.00s WALL


   This run was terminated on:  19:54:10  25Mar2024            

=------------------------------------------------------------------------------=
   JOB DONE.
=------------------------------------------------------------------------------=
