
     Program PWSCF v.6.3MaX starts on 25Mar2024 at 20: 9:28 

     This program is part of the open-source Quantum ESPRESSO suite
     for quantum simulation of materials; please cite
         "P. Giannozzi et al., J. Phys.:Condens. Matter 21 395502 (2009);
         "P. Giannozzi et al., J. Phys.:Condens. Matter 29 465901 (2017);
          URL http://www.quantum-espresso.org", 
     in publications or presentations arising from this work. More details at
     http://www.quantum-espresso.org/quote

     Parallel version (MPI), running on     5 processors

     MPI processes distributed on     1 nodes
     R & G space division:  proc/nbgrp/npool/nimage =       5
     Waiting for input...
     Reading input from standard input

     Current dimensions of program PWSCF are:
     Max number of different atomic species (ntypx) = 10
     Max number of k-points (npk) =  40000
     Max angular momentum in pseudopotentials (lmaxx) =  3

     Subspace diagonalization in iterative solution of the eigenvalue problem:
     a serial algorithm will be used


     Parallelization info
     --------------------
     sticks:   dense  smooth     PW     G-vecs:    dense   smooth      PW
     Min         119     119     39                 1967     1967     351
     Max         119     119     40                 1969     1969     352
     Sum         595     595    199                 9841     9841    1759



     bravais-lattice index     =            2
     lattice parameter (alat)  =       7.6500  a.u.
     unit-cell volume          =     111.9243 (a.u.)^3
     number of atoms/cell      =            1
     number of atomic types    =            1
     number of electrons       =         3.00
     number of Kohn-Sham states=            6
     kinetic-energy cutoff     =      75.0000  Ry
     charge density cutoff     =     300.0000  Ry
     convergence threshold     =      1.0E-08
     mixing beta               =       0.7000
     number of iterations used =            8  plain     mixing
     Exchange-correlation      = PBE ( 1  4  3  4 0 0)

     celldm(1)=   7.650000  celldm(2)=   0.000000  celldm(3)=   0.000000
     celldm(4)=   0.000000  celldm(5)=   0.000000  celldm(6)=   0.000000

     crystal axes: (cart. coord. in units of alat)
               a(1) = (  -0.500000   0.000000   0.500000 )  
               a(2) = (   0.000000   0.500000   0.500000 )  
               a(3) = (  -0.500000   0.500000   0.000000 )  

     reciprocal axes: (cart. coord. in units 2 pi/alat)
               b(1) = ( -1.000000 -1.000000  1.000000 )  
               b(2) = (  1.000000  1.000000  1.000000 )  
               b(3) = ( -1.000000  1.000000 -1.000000 )  


     PseudoPot. # 1 for Al read from file:
     /home/lorenzo/pseudos/Al/Al.pbe-nl-rrkjus_psl.1.0.0.UPF
     MD5 check sum: 6db8691240a1c860ce6448702d298c4b
     Pseudo is Ultrasoft + core correction, Zval =  3.0
     Generated using "atomic" code by A. Dal Corso v.6.3
     Using radial grid of 1135 points,  4 beta functions with: 
                l(1) =   0
                l(2) =   0
                l(3) =   1
                l(4) =   1
     Q(r) pseudized with 0 coefficients 


     atomic species   valence    mass     pseudopotential
        Al             3.00    26.98150     Al( 1.00)

     48 Sym. Ops., with inversion, found



   Cartesian axes

     site n.     atom                  positions (alat units)
         1           Al  tau(   1) = (   0.0000000   0.0000000   0.0000000  )

     number of k points=    35  gaussian smearing, width (Ry)=  0.0100
                       cart. coord. in units 2pi/alat
        k(    1) = (   0.0000000   0.0000000   0.0000000), wk =   0.0027435
        k(    2) = (  -0.1111111   0.1111111  -0.1111111), wk =   0.0219479
        k(    3) = (  -0.2222222   0.2222222  -0.2222222), wk =   0.0219479
        k(    4) = (  -0.3333333   0.3333333  -0.3333333), wk =   0.0219479
        k(    5) = (  -0.4444444   0.4444444  -0.4444444), wk =   0.0219479
        k(    6) = (   0.0000000   0.2222222   0.0000000), wk =   0.0164609
        k(    7) = (  -0.1111111   0.3333333  -0.1111111), wk =   0.0658436
        k(    8) = (  -0.2222222   0.4444444  -0.2222222), wk =   0.0658436
        k(    9) = (  -0.3333333   0.5555556  -0.3333333), wk =   0.0658436
        k(   10) = (   0.5555556  -0.3333333   0.5555556), wk =   0.0658436
        k(   11) = (   0.4444444  -0.2222222   0.4444444), wk =   0.0658436
        k(   12) = (   0.3333333  -0.1111111   0.3333333), wk =   0.0658436
        k(   13) = (   0.2222222  -0.0000000   0.2222222), wk =   0.0329218
        k(   14) = (   0.0000000   0.4444444   0.0000000), wk =   0.0164609
        k(   15) = (  -0.1111111   0.5555556  -0.1111111), wk =   0.0658436
        k(   16) = (  -0.2222222   0.6666667  -0.2222222), wk =   0.0658436
        k(   17) = (   0.6666667  -0.2222222   0.6666667), wk =   0.0658436
        k(   18) = (   0.5555556  -0.1111111   0.5555556), wk =   0.0658436
        k(   19) = (   0.4444444   0.0000000   0.4444444), wk =   0.0329218
        k(   20) = (   0.0000000   0.6666667   0.0000000), wk =   0.0164609
        k(   21) = (  -0.1111111   0.7777778  -0.1111111), wk =   0.0658436
        k(   22) = (   0.7777778  -0.1111111   0.7777778), wk =   0.0658436
        k(   23) = (   0.6666667  -0.0000000   0.6666667), wk =   0.0329218
        k(   24) = (   0.0000000   0.8888889   0.0000000), wk =   0.0164609
        k(   25) = (   0.8888889   0.0000000   0.8888889), wk =   0.0329218
        k(   26) = (  -0.2222222   0.4444444   0.0000000), wk =   0.0658436
        k(   27) = (  -0.3333333   0.5555556  -0.1111111), wk =   0.1316872
        k(   28) = (   0.5555556  -0.3333333   0.7777778), wk =   0.1316872
        k(   29) = (  -0.2222222   0.6666667   0.0000000), wk =   0.0658436
        k(   30) = (   0.6666667  -0.2222222   0.8888889), wk =   0.1316872
        k(   31) = (   0.5555556  -0.1111111   0.7777778), wk =   0.1316872
        k(   32) = (   0.4444444   0.0000000   0.6666667), wk =   0.0658436
        k(   33) = (   0.7777778  -0.1111111   1.0000000), wk =   0.0658436
        k(   34) = (   0.6666667  -0.0000000   0.8888889), wk =   0.0658436
        k(   35) = (   0.5555556  -0.1111111   1.0000000), wk =   0.0658436

     Dense  grid:     9841 G-vectors     FFT dimensions: (  30,  30,  30)

     Estimated max dynamical RAM per process >       4.01 MB

     Estimated total dynamical RAM >      20.06 MB

     Initial potential from superposition of free atoms

     starting charge    2.99771, renormalised to    3.00000
     Starting wfcs are    4 randomized atomic wfcs +    2 random wfcs

     total cpu time spent up to now is        0.6 secs

     Self-consistent Calculation

     iteration #  1     ecut=    75.00 Ry     beta= 0.70
     Davidson diagonalization with overlap
     ethr =  1.00E-02,  avg # of iterations =  4.8

     Threshold (ethr) on eigenvalues was too large:
     Diagonalizing with lowered threshold

     Davidson diagonalization with overlap
     ethr =  1.91E-04,  avg # of iterations =  2.3

     total cpu time spent up to now is        1.2 secs

     total energy              =      -5.03677245 Ry
     Harris-Foulkes estimate   =      -5.03812249 Ry
     estimated scf accuracy    <       0.00563762 Ry

     iteration #  2     ecut=    75.00 Ry     beta= 0.70
     Davidson diagonalization with overlap
     ethr =  1.88E-04,  avg # of iterations =  1.0

     total cpu time spent up to now is        1.4 secs

     total energy              =      -5.03675902 Ry
     Harris-Foulkes estimate   =      -5.03684860 Ry
     estimated scf accuracy    <       0.00040013 Ry

     iteration #  3     ecut=    75.00 Ry     beta= 0.70
     Davidson diagonalization with overlap
     ethr =  1.33E-05,  avg # of iterations =  1.5

     total cpu time spent up to now is        1.6 secs

     total energy              =      -5.03677810 Ry
     Harris-Foulkes estimate   =      -5.03677815 Ry
     estimated scf accuracy    <       0.00000141 Ry

     iteration #  4     ecut=    75.00 Ry     beta= 0.70
     Davidson diagonalization with overlap
     ethr =  4.70E-08,  avg # of iterations =  3.2

     total cpu time spent up to now is        1.9 secs

     total energy              =      -5.03678010 Ry
     Harris-Foulkes estimate   =      -5.03678008 Ry
     estimated scf accuracy    <       0.00000008 Ry

     iteration #  5     ecut=    75.00 Ry     beta= 0.70
     Davidson diagonalization with overlap
     ethr =  2.56E-09,  avg # of iterations =  1.0

     total cpu time spent up to now is        2.1 secs

     total energy              =      -5.03678011 Ry
     Harris-Foulkes estimate   =      -5.03678010 Ry
     estimated scf accuracy    <       0.00000001 Ry

     iteration #  6     ecut=    75.00 Ry     beta= 0.70
     Davidson diagonalization with overlap
     ethr =  4.45E-10,  avg # of iterations =  1.5

     total cpu time spent up to now is        2.3 secs

     End of self-consistent calculation

          k = 0.0000 0.0000 0.0000 (  1243 PWs)   bands (ev):

    -3.2496  20.4394  20.4394  21.8751  21.8752  21.8752

          k =-0.1111 0.1111-0.1111 (  1242 PWs)   bands (ev):

    -2.9154  16.7041  19.6052  19.6052  22.5379  23.1947

          k =-0.2222 0.2222-0.2222 (  1233 PWs)   bands (ev):

    -1.9173  12.3209  18.8314  18.8314  22.2139  23.0421

          k =-0.3333 0.3333-0.3333 (  1236 PWs)   bands (ev):

    -0.2690   8.3472  18.5775  18.5775  21.1602  21.1602

          k =-0.4444 0.4444-0.4444 (  1215 PWs)   bands (ev):

     2.0074   4.8971  18.8774  18.8774  19.7457  19.7457

          k = 0.0000 0.2222 0.0000 (  1247 PWs)   bands (ev):

    -2.8041  18.0472  18.0472  18.3334  20.9333  23.1554

          k =-0.1111 0.3333-0.1111 (  1237 PWs)   bands (ev):

    -2.0279  13.9606  17.0244  18.4896  20.3883  21.8946

          k =-0.2222 0.4444-0.2222 (  1233 PWs)   bands (ev):

    -0.5973   9.8767  16.5633  18.0992  18.2953  24.3289

          k =-0.3333 0.5556-0.3333 (  1225 PWs)   bands (ev):

     1.4684   6.2612  16.5034  16.6691  18.3859  22.7022

          k = 0.5556-0.3333 0.5556 (  1218 PWs)   bands (ev):

     3.1780   4.1609  15.4141  17.3436  19.1243  21.6702

          k = 0.4444-0.2222 0.4444 (  1228 PWs)   bands (ev):

     0.7110   7.4030  14.9201  18.5828  20.4392  21.1870

          k = 0.3333-0.1111 0.3333 (  1226 PWs)   bands (ev):

    -1.1458  11.1666  15.0442  20.3366  21.2608  22.2779

          k = 0.2222-0.0000 0.2222 (  1237 PWs)   bands (ev):

    -2.3601  14.9847  16.1333  21.3038  22.1211  23.3238

          k = 0.0000 0.4444 0.0000 (  1235 PWs)   bands (ev):

    -1.4760  15.7901  15.7901  15.8387  17.4511  19.2127

          k =-0.1111 0.5556-0.1111 (  1242 PWs)   bands (ev):

    -0.2696  11.9284  14.9569  15.1293  16.5779  20.2210

          k =-0.2222 0.6667-0.2222 (  1226 PWs)   bands (ev):

     1.5740   8.2175  13.0479  15.0402  16.7139  23.2280

          k = 0.6667-0.2222 0.6667 (  1228 PWs)   bands (ev):

     4.0144   5.0072  11.7380  15.5224  17.3042  25.0085

          k = 0.5556-0.1111 0.5556 (  1226 PWs)   bands (ev):

     2.3286   7.0373  11.0788  16.5766  18.4770  24.3522

          k = 0.4444 0.0000 0.4444 (  1231 PWs)   bands (ev):

     0.2761  10.0688  11.5577  18.1982  20.1998  23.8734

          k = 0.0000 0.6667 0.0000 (  1242 PWs)   bands (ev):

     0.7085  12.2190  14.1038  14.2728  14.2728  17.7601

          k =-0.1111 0.7778-0.1111 (  1228 PWs)   bands (ev):

     2.3191  10.0330  10.7466  13.9899  15.3281  19.1244

          k = 0.7778-0.1111 0.7778 (  1228 PWs)   bands (ev):

     4.5109   7.3578   8.6115  14.2789  15.8875  22.5490

          k = 0.6667-0.0000 0.6667 (  1220 PWs)   bands (ev):

     4.5565   6.7814   8.2393  15.1407  16.9060  26.4503

          k = 0.0000 0.8889 0.0000 (  1222 PWs)   bands (ev):

     3.6692   7.7171  13.2269  13.5142  13.5142  16.9681

          k = 0.8889 0.0000 0.8889 (  1224 PWs)   bands (ev):

     5.1422   6.4698  10.3048  13.6104  14.9050  18.7438

          k =-0.2222 0.4444 0.0000 (  1240 PWs)   bands (ev):

    -1.0360  12.5356  13.8744  17.8348  19.8519  21.6278

          k =-0.3333 0.5556-0.1111 (  1230 PWs)   bands (ev):

     0.6019   9.1095  13.0763  15.7694  20.2890  22.9729

          k = 0.5556-0.3333 0.7778 (  1225 PWs)   bands (ev):

     2.8617   5.7277  13.3081  14.2991  20.6669  21.6657

          k =-0.2222 0.6667 0.0000 (  1238 PWs)   bands (ev):

     1.1419  10.8930  12.1462  12.8103  18.2922  20.3232

          k = 0.6667-0.2222 0.8889 (  1224 PWs)   bands (ev):

     3.1739   7.8599  10.8639  11.9583  19.1786  22.9972

          k = 0.5556-0.1111 0.7778 (  1223 PWs)   bands (ev):

     4.8567   5.7952   9.8275  12.5803  19.9924  24.1981

          k = 0.4444 0.0000 0.6667 (  1225 PWs)   bands (ev):

     2.4342   8.4243   9.9062  13.8773  21.2744  23.1350

          k = 0.7778-0.1111 1.0000 (  1220 PWs)   bands (ev):

     4.0912   8.1275  10.0701  11.5399  17.4900  19.6034

          k = 0.6667-0.0000 0.8889 (  1210 PWs)   bands (ev):

     5.9613   7.1573   7.6413  11.5075  18.7894  22.6842

          k = 0.5556-0.1111 1.0000 (  1217 PWs)   bands (ev):

     5.3488   7.6027   8.8591   9.6757  22.3820  23.3939

     the Fermi energy is     7.8205 ev

!    total energy              =      -5.03678011 Ry
     Harris-Foulkes estimate   =      -5.03678011 Ry
     estimated scf accuracy    <          3.4E-10 Ry

     The total energy is the sum of the following terms:

     one-electron contribution =       2.93957535 Ry
     hartree contribution      =       0.00630361 Ry
     xc contribution           =      -2.58828782 Ry
     ewald contribution        =      -5.39395538 Ry
     smearing contrib. (-TS)   =      -0.00041587 Ry

     convergence has been achieved in   6 iterations

     Forces acting on atoms (cartesian axes, Ry/au):

     atom    1 type  1   force =     0.00000000    0.00000000    0.00000000

     Total force =     0.000000     Total SCF correction =     0.000000


     Computing stress (Cartesian axis) and pressure

          total   stress  (Ry/bohr**3)                   (kbar)     P=   -1.86
  -0.00001267  -0.00000000  -0.00000000         -1.86     -0.00     -0.00
  -0.00000000  -0.00001267   0.00000000         -0.00     -1.86      0.00
  -0.00000000   0.00000000  -0.00001267         -0.00      0.00     -1.86


     Writing output data file Al.save/

     init_run     :      0.18s CPU      0.19s WALL (       1 calls)
     electrons    :      1.70s CPU      1.77s WALL (       1 calls)
     forces       :      0.02s CPU      0.03s WALL (       1 calls)
     stress       :      0.17s CPU      0.18s WALL (       1 calls)

     Called by init_run:
     wfcinit      :      0.07s CPU      0.08s WALL (       1 calls)
     potinit      :      0.01s CPU      0.01s WALL (       1 calls)
     hinit0       :      0.09s CPU      0.09s WALL (       1 calls)

     Called by electrons:
     c_bands      :      1.37s CPU      1.43s WALL (       7 calls)
     sum_band     :      0.27s CPU      0.28s WALL (       7 calls)
     v_of_rho     :      0.04s CPU      0.04s WALL (       7 calls)
     newd         :      0.01s CPU      0.02s WALL (       7 calls)
     mix_rho      :      0.01s CPU      0.01s WALL (       7 calls)

     Called by c_bands:
     init_us_2    :      0.05s CPU      0.05s WALL (     595 calls)
     cegterg      :      1.31s CPU      1.37s WALL (     245 calls)

     Called by sum_band:
     sum_band:bec :      0.00s CPU      0.00s WALL (     245 calls)
     addusdens    :      0.02s CPU      0.02s WALL (       7 calls)

     Called by *egterg:
     h_psi        :      1.13s CPU      1.19s WALL (     817 calls)
     s_psi        :      0.02s CPU      0.02s WALL (     817 calls)
     g_psi        :      0.00s CPU      0.00s WALL (     537 calls)
     cdiaghg      :      0.07s CPU      0.07s WALL (     747 calls)

     Called by h_psi:
     h_psi:pot    :      1.13s CPU      1.18s WALL (     817 calls)
     h_psi:calbec :      0.04s CPU      0.04s WALL (     817 calls)
     vloc_psi     :      1.06s CPU      1.11s WALL (     817 calls)
     add_vuspsi   :      0.02s CPU      0.02s WALL (     817 calls)

     General routines
     calbec       :      0.14s CPU      0.15s WALL (    1237 calls)
     fft          :      0.03s CPU      0.03s WALL (     104 calls)
     ffts         :      0.00s CPU      0.00s WALL (       7 calls)
     fftw         :      1.19s CPU      1.25s WALL (    9142 calls)

     Parallel routines
     fft_scatt_xy :      0.10s CPU      0.10s WALL (    9253 calls)
     fft_scatt_yz :      0.39s CPU      0.40s WALL (    9253 calls)

     PWSCF        :     2.51s CPU         2.67s WALL


   This run was terminated on:  20: 9:31  25Mar2024            

=------------------------------------------------------------------------------=
   JOB DONE.
=------------------------------------------------------------------------------=
