
     Program PWSCF v.6.3MaX starts on 25Mar2024 at 19:53:51 

     This program is part of the open-source Quantum ESPRESSO suite
     for quantum simulation of materials; please cite
         "P. Giannozzi et al., J. Phys.:Condens. Matter 21 395502 (2009);
         "P. Giannozzi et al., J. Phys.:Condens. Matter 29 465901 (2017);
          URL http://www.quantum-espresso.org", 
     in publications or presentations arising from this work. More details at
     http://www.quantum-espresso.org/quote

     Parallel version (MPI), running on     5 processors

     MPI processes distributed on     1 nodes
     R & G space division:  proc/nbgrp/npool/nimage =       5
     Waiting for input...
     Reading input from standard input

     Current dimensions of program PWSCF are:
     Max number of different atomic species (ntypx) = 10
     Max number of k-points (npk) =  40000
     Max angular momentum in pseudopotentials (lmaxx) =  3
               file Al.pbe-nl-kjpaw_psl.1.0.0.UPF: wavefunction(s)  3S 3P renormalized

     Subspace diagonalization in iterative solution of the eigenvalue problem:
     a serial algorithm will be used


     Parallelization info
     --------------------
     sticks:   dense  smooth     PW     G-vecs:    dense   smooth      PW
     Min          17      17      7                  106      106      27
     Max          17      17      8                  107      107      28
     Sum          85      85     37                  531      531     137



     bravais-lattice index     =            2
     lattice parameter (alat)  =       7.6500  a.u.
     unit-cell volume          =     111.9243 (a.u.)^3
     number of atoms/cell      =            1
     number of atomic types    =            1
     number of electrons       =         3.00
     number of Kohn-Sham states=            6
     kinetic-energy cutoff     =      10.0000  Ry
     charge density cutoff     =      40.0000  Ry
     convergence threshold     =      1.0E-08
     mixing beta               =       0.7000
     number of iterations used =            8  plain     mixing
     Exchange-correlation      = SLA PW PBX PBC ( 1  4  3  4 0 0)

     celldm(1)=   7.650000  celldm(2)=   0.000000  celldm(3)=   0.000000
     celldm(4)=   0.000000  celldm(5)=   0.000000  celldm(6)=   0.000000

     crystal axes: (cart. coord. in units of alat)
               a(1) = (  -0.500000   0.000000   0.500000 )  
               a(2) = (   0.000000   0.500000   0.500000 )  
               a(3) = (  -0.500000   0.500000   0.000000 )  

     reciprocal axes: (cart. coord. in units 2 pi/alat)
               b(1) = ( -1.000000 -1.000000  1.000000 )  
               b(2) = (  1.000000  1.000000  1.000000 )  
               b(3) = ( -1.000000  1.000000 -1.000000 )  


     PseudoPot. # 1 for Al read from file:
     /home/lorenzo/pseudos/Al/Al.pbe-nl-kjpaw_psl.1.0.0.UPF
     MD5 check sum: 8cf6d98cc7ef3f4b729b574060f3a10f
     Pseudo is Projector augmented-wave + core cor, Zval =  3.0
     Generated using "atomic" code by A. Dal Corso v.6.3
     Shape of augmentation charge: PSQ
     Using radial grid of 1135 points,  4 beta functions with: 
                l(1) =   0
                l(2) =   0
                l(3) =   1
                l(4) =   1
     Q(r) pseudized with 0 coefficients 


     atomic species   valence    mass     pseudopotential
        Al             3.00    26.98150     Al( 1.00)

     48 Sym. Ops., with inversion, found



   Cartesian axes

     site n.     atom                  positions (alat units)
         1           Al  tau(   1) = (   0.0000000   0.0000000   0.0000000  )

     number of k points=     8  gaussian smearing, width (Ry)=  0.0100
                       cart. coord. in units 2pi/alat
        k(    1) = (   0.0000000   0.0000000   0.0000000), wk =   0.0312500
        k(    2) = (  -0.2500000   0.2500000  -0.2500000), wk =   0.2500000
        k(    3) = (   0.5000000  -0.5000000   0.5000000), wk =   0.1250000
        k(    4) = (   0.0000000   0.5000000   0.0000000), wk =   0.1875000
        k(    5) = (   0.7500000  -0.2500000   0.7500000), wk =   0.7500000
        k(    6) = (   0.5000000   0.0000000   0.5000000), wk =   0.3750000
        k(    7) = (   0.0000000  -1.0000000   0.0000000), wk =   0.0937500
        k(    8) = (  -0.5000000  -1.0000000   0.0000000), wk =   0.1875000

     Dense  grid:      531 G-vectors     FFT dimensions: (  12,  12,  12)

     Estimated max dynamical RAM per process >       0.34 MB

     Estimated total dynamical RAM >       1.72 MB

     Initial potential from superposition of free atoms

     starting charge    2.99771, renormalised to    3.00000
     Starting wfcs are    4 randomized atomic wfcs +    2 random wfcs
     Checking if some PAW data can be deallocated... 

     total cpu time spent up to now is        0.6 secs

     Self-consistent Calculation

     iteration #  1     ecut=    10.00 Ry     beta= 0.70
     Davidson diagonalization with overlap
     ethr =  1.00E-02,  avg # of iterations =  4.5

     Threshold (ethr) on eigenvalues was too large:
     Diagonalizing with lowered threshold

     Davidson diagonalization with overlap
     ethr =  2.12E-04,  avg # of iterations =  1.8

     total cpu time spent up to now is        0.7 secs

     total energy              =     -39.47815267 Ry
     Harris-Foulkes estimate   =     -39.47952448 Ry
     estimated scf accuracy    <       0.00628122 Ry

     iteration #  2     ecut=    10.00 Ry     beta= 0.70
     Davidson diagonalization with overlap
     ethr =  2.09E-04,  avg # of iterations =  1.0

     total cpu time spent up to now is        0.7 secs

     total energy              =     -39.47810530 Ry
     Harris-Foulkes estimate   =     -39.47820886 Ry
     estimated scf accuracy    <       0.00046155 Ry

     iteration #  3     ecut=    10.00 Ry     beta= 0.70
     Davidson diagonalization with overlap
     ethr =  1.54E-05,  avg # of iterations =  1.2

     total cpu time spent up to now is        0.7 secs

     total energy              =     -39.47811651 Ry
     Harris-Foulkes estimate   =     -39.47811653 Ry
     estimated scf accuracy    <       0.00000098 Ry

     iteration #  4     ecut=    10.00 Ry     beta= 0.70
     Davidson diagonalization with overlap
     ethr =  3.25E-08,  avg # of iterations =  3.8

     total cpu time spent up to now is        0.8 secs

     total energy              =     -39.47811760 Ry
     Harris-Foulkes estimate   =     -39.47811759 Ry
     estimated scf accuracy    <       0.00000002 Ry

     iteration #  5     ecut=    10.00 Ry     beta= 0.70
     Davidson diagonalization with overlap
     ethr =  5.31E-10,  avg # of iterations =  1.2

     total cpu time spent up to now is        0.8 secs

     End of self-consistent calculation

          k = 0.0000 0.0000 0.0000 (    59 PWs)   bands (ev):

    -3.2462  20.8678  20.8678  21.8978  21.8978  21.8978

          k =-0.2500 0.2500-0.2500 (    61 PWs)   bands (ev):

    -1.5627  11.3574  18.8767  18.8767  22.3709  22.8604

          k = 0.5000-0.5000 0.5000 (    70 PWs)   bands (ev):

     3.2790   3.5040  19.2043  19.2043  19.6245  19.6245

          k = 0.0000 0.5000 0.0000 (    60 PWs)   bands (ev):

    -1.0053  15.3973  15.3973  15.5842  16.2287  18.9225

          k = 0.7500-0.2500 0.7500 (    59 PWs)   bands (ev):

     2.8347   7.1378  11.5744  14.9182  16.7733  24.1858

          k = 0.5000 0.0000 0.5000 (    59 PWs)   bands (ev):

     1.2046   9.1520  10.6337  17.3995  19.4796  25.7553

          k = 0.0000-1.0000 0.0000 (    64 PWs)   bands (ev):

     4.9433   6.3040  13.3482  13.4278  13.4278  17.0177

          k =-0.5000-1.0000 0.0000 (    56 PWs)   bands (ev):

     7.0482   7.0482   8.0989   8.9551  24.0097  24.0097

     the Fermi energy is     7.2221 ev

!    total energy              =     -39.47811760 Ry
     Harris-Foulkes estimate   =     -39.47811760 Ry
     estimated scf accuracy    <          4.5E-09 Ry

     total all-electron energy =      -485.620898 Ry

     The total energy is the sum of the following terms:

     one-electron contribution =       3.17746354 Ry
     hartree contribution      =       0.00768505 Ry
     xc contribution           =      -2.58912526 Ry
     ewald contribution        =      -5.39395546 Ry
     one-center paw contrib.   =     -34.67853662 Ry
     smearing contrib. (-TS)   =      -0.00164885 Ry

     convergence has been achieved in   5 iterations

     Forces acting on atoms (cartesian axes, Ry/au):

     atom    1 type  1   force =     0.00000000    0.00000000    0.00000000

     Total force =     0.000000     Total SCF correction =     0.000000


     Computing stress (Cartesian axis) and pressure

          total   stress  (Ry/bohr**3)                   (kbar)     P=   13.66
   0.00009284  -0.00000000   0.00000000         13.66     -0.00      0.00
  -0.00000000   0.00009284   0.00000000         -0.00     13.66      0.00
   0.00000000   0.00000000   0.00009284          0.00      0.00     13.66


     Writing output data file Al.save/

     init_run     :      0.06s CPU      0.08s WALL (       1 calls)
     electrons    :      0.20s CPU      0.25s WALL (       1 calls)
     forces       :      0.00s CPU      0.00s WALL (       1 calls)
     stress       :      0.01s CPU      0.01s WALL (       1 calls)

     Called by init_run:
     wfcinit      :      0.01s CPU      0.01s WALL (       1 calls)
     potinit      :      0.03s CPU      0.04s WALL (       1 calls)
     hinit0       :      0.03s CPU      0.03s WALL (       1 calls)

     Called by electrons:
     c_bands      :      0.08s CPU      0.08s WALL (       6 calls)
     sum_band     :      0.01s CPU      0.01s WALL (       6 calls)
     v_of_rho     :      0.00s CPU      0.00s WALL (       6 calls)
     newd         :      0.00s CPU      0.00s WALL (       6 calls)
     PAW_pot      :      0.13s CPU      0.18s WALL (       6 calls)
     mix_rho      :      0.00s CPU      0.00s WALL (       6 calls)

     Called by c_bands:
     init_us_2    :      0.00s CPU      0.00s WALL (     120 calls)
     cegterg      :      0.07s CPU      0.08s WALL (      48 calls)

     Called by sum_band:
     sum_band:bec :      0.00s CPU      0.00s WALL (      48 calls)
     addusdens    :      0.00s CPU      0.00s WALL (       6 calls)

     Called by *egterg:
     h_psi        :      0.05s CPU      0.05s WALL (     164 calls)
     s_psi        :      0.00s CPU      0.00s WALL (     164 calls)
     g_psi        :      0.00s CPU      0.00s WALL (     108 calls)
     cdiaghg      :      0.01s CPU      0.02s WALL (     148 calls)

     Called by h_psi:
     h_psi:pot    :      0.05s CPU      0.05s WALL (     164 calls)
     h_psi:calbec :      0.00s CPU      0.00s WALL (     164 calls)
     vloc_psi     :      0.04s CPU      0.05s WALL (     164 calls)
     add_vuspsi   :      0.00s CPU      0.00s WALL (     164 calls)

     General routines
     calbec       :      0.00s CPU      0.00s WALL (     252 calls)
     fft          :      0.00s CPU      0.00s WALL (      93 calls)
     ffts         :      0.00s CPU      0.00s WALL (       6 calls)
     fftw         :      0.04s CPU      0.05s WALL (    1766 calls)

     Parallel routines
     fft_scatt_xy :      0.00s CPU      0.01s WALL (    1865 calls)
     fft_scatt_yz :      0.03s CPU      0.03s WALL (    1865 calls)

     PWSCF        :     0.80s CPU         0.91s WALL


   This run was terminated on:  19:53:52  25Mar2024            

=------------------------------------------------------------------------------=
   JOB DONE.
=------------------------------------------------------------------------------=
