
     Program PWSCF v.6.3MaX starts on 25Mar2024 at 19:54:25 

     This program is part of the open-source Quantum ESPRESSO suite
     for quantum simulation of materials; please cite
         "P. Giannozzi et al., J. Phys.:Condens. Matter 21 395502 (2009);
         "P. Giannozzi et al., J. Phys.:Condens. Matter 29 465901 (2017);
          URL http://www.quantum-espresso.org", 
     in publications or presentations arising from this work. More details at
     http://www.quantum-espresso.org/quote

     Parallel version (MPI), running on     5 processors

     MPI processes distributed on     1 nodes
     R & G space division:  proc/nbgrp/npool/nimage =       5
     Waiting for input...
     Reading input from standard input

     Current dimensions of program PWSCF are:
     Max number of different atomic species (ntypx) = 10
     Max number of k-points (npk) =  40000
     Max angular momentum in pseudopotentials (lmaxx) =  3

     Subspace diagonalization in iterative solution of the eigenvalue problem:
     a serial algorithm will be used


     Parallelization info
     --------------------
     sticks:   dense  smooth     PW     G-vecs:    dense   smooth      PW
     Min          24      24     11                  178      178      51
     Max          25      25     11                  181      181      52
     Sum         121     121     55                  893      893     259



     bravais-lattice index     =            2
     lattice parameter (alat)  =       7.6500  a.u.
     unit-cell volume          =     111.9243 (a.u.)^3
     number of atoms/cell      =            1
     number of atomic types    =            1
     number of electrons       =         3.00
     number of Kohn-Sham states=            6
     kinetic-energy cutoff     =      15.0000  Ry
     charge density cutoff     =      60.0000  Ry
     convergence threshold     =      1.0E-08
     mixing beta               =       0.7000
     number of iterations used =            8  plain     mixing
     Exchange-correlation      = PBE ( 1  4  3  4 0 0)

     celldm(1)=   7.650000  celldm(2)=   0.000000  celldm(3)=   0.000000
     celldm(4)=   0.000000  celldm(5)=   0.000000  celldm(6)=   0.000000

     crystal axes: (cart. coord. in units of alat)
               a(1) = (  -0.500000   0.000000   0.500000 )  
               a(2) = (   0.000000   0.500000   0.500000 )  
               a(3) = (  -0.500000   0.500000   0.000000 )  

     reciprocal axes: (cart. coord. in units 2 pi/alat)
               b(1) = ( -1.000000 -1.000000  1.000000 )  
               b(2) = (  1.000000  1.000000  1.000000 )  
               b(3) = ( -1.000000  1.000000 -1.000000 )  


     PseudoPot. # 1 for Al read from file:
     /home/lorenzo/pseudos/Al/Al.pbe-nl-rrkjus_psl.1.0.0.UPF
     MD5 check sum: 6db8691240a1c860ce6448702d298c4b
     Pseudo is Ultrasoft + core correction, Zval =  3.0
     Generated using "atomic" code by A. Dal Corso v.6.3
     Using radial grid of 1135 points,  4 beta functions with: 
                l(1) =   0
                l(2) =   0
                l(3) =   1
                l(4) =   1
     Q(r) pseudized with 0 coefficients 


     atomic species   valence    mass     pseudopotential
        Al             3.00    26.98150     Al( 1.00)

     48 Sym. Ops., with inversion, found



   Cartesian axes

     site n.     atom                  positions (alat units)
         1           Al  tau(   1) = (   0.0000000   0.0000000   0.0000000  )

     number of k points=    56  gaussian smearing, width (Ry)=  0.0100
                       cart. coord. in units 2pi/alat
        k(    1) = (   0.0000000   0.0000000   0.0000000), wk =   0.0015026
        k(    2) = (  -0.0909091   0.0909091  -0.0909091), wk =   0.0120210
        k(    3) = (  -0.1818182   0.1818182  -0.1818182), wk =   0.0120210
        k(    4) = (  -0.2727273   0.2727273  -0.2727273), wk =   0.0120210
        k(    5) = (  -0.3636364   0.3636364  -0.3636364), wk =   0.0120210
        k(    6) = (  -0.4545455   0.4545455  -0.4545455), wk =   0.0120210
        k(    7) = (   0.0000000   0.1818182   0.0000000), wk =   0.0090158
        k(    8) = (  -0.0909091   0.2727273  -0.0909091), wk =   0.0360631
        k(    9) = (  -0.1818182   0.3636364  -0.1818182), wk =   0.0360631
        k(   10) = (  -0.2727273   0.4545455  -0.2727273), wk =   0.0360631
        k(   11) = (  -0.3636364   0.5454545  -0.3636364), wk =   0.0360631
        k(   12) = (   0.5454545  -0.3636364   0.5454545), wk =   0.0360631
        k(   13) = (   0.4545455  -0.2727273   0.4545455), wk =   0.0360631
        k(   14) = (   0.3636364  -0.1818182   0.3636364), wk =   0.0360631
        k(   15) = (   0.2727273  -0.0909091   0.2727273), wk =   0.0360631
        k(   16) = (   0.1818182  -0.0000000   0.1818182), wk =   0.0180316
        k(   17) = (   0.0000000   0.3636364   0.0000000), wk =   0.0090158
        k(   18) = (  -0.0909091   0.4545455  -0.0909091), wk =   0.0360631
        k(   19) = (  -0.1818182   0.5454545  -0.1818182), wk =   0.0360631
        k(   20) = (  -0.2727273   0.6363636  -0.2727273), wk =   0.0360631
        k(   21) = (   0.6363636  -0.2727273   0.6363636), wk =   0.0360631
        k(   22) = (   0.5454545  -0.1818182   0.5454545), wk =   0.0360631
        k(   23) = (   0.4545455  -0.0909091   0.4545455), wk =   0.0360631
        k(   24) = (   0.3636364   0.0000000   0.3636364), wk =   0.0180316
        k(   25) = (   0.0000000   0.5454545   0.0000000), wk =   0.0090158
        k(   26) = (  -0.0909091   0.6363636  -0.0909091), wk =   0.0360631
        k(   27) = (  -0.1818182   0.7272727  -0.1818182), wk =   0.0360631
        k(   28) = (   0.7272727  -0.1818182   0.7272727), wk =   0.0360631
        k(   29) = (   0.6363636  -0.0909091   0.6363636), wk =   0.0360631
        k(   30) = (   0.5454545   0.0000000   0.5454545), wk =   0.0180316
        k(   31) = (   0.0000000   0.7272727   0.0000000), wk =   0.0090158
        k(   32) = (  -0.0909091   0.8181818  -0.0909091), wk =   0.0360631
        k(   33) = (   0.8181818  -0.0909091   0.8181818), wk =   0.0360631
        k(   34) = (   0.7272727   0.0000000   0.7272727), wk =   0.0180316
        k(   35) = (   0.0000000   0.9090909   0.0000000), wk =   0.0090158
        k(   36) = (   0.9090909  -0.0000000   0.9090909), wk =   0.0180316
        k(   37) = (  -0.1818182   0.3636364   0.0000000), wk =   0.0360631
        k(   38) = (  -0.2727273   0.4545455  -0.0909091), wk =   0.0721262
        k(   39) = (  -0.3636364   0.5454545  -0.1818182), wk =   0.0721262
        k(   40) = (   0.5454545  -0.3636364   0.7272727), wk =   0.0721262
        k(   41) = (  -0.1818182   0.5454545   0.0000000), wk =   0.0360631
        k(   42) = (  -0.2727273   0.6363636  -0.0909091), wk =   0.0721262
        k(   43) = (   0.6363636  -0.2727273   0.8181818), wk =   0.0721262
        k(   44) = (   0.5454545  -0.1818182   0.7272727), wk =   0.0721262
        k(   45) = (   0.4545455  -0.0909091   0.6363636), wk =   0.0721262
        k(   46) = (   0.3636364   0.0000000   0.5454545), wk =   0.0360631
        k(   47) = (  -0.1818182   0.7272727   0.0000000), wk =   0.0360631
        k(   48) = (   0.7272727  -0.1818182   0.9090909), wk =   0.0721262
        k(   49) = (   0.6363636  -0.0909091   0.8181818), wk =   0.0721262
        k(   50) = (   0.5454545   0.0000000   0.7272727), wk =   0.0360631
        k(   51) = (   0.8181818  -0.0909091   1.0000000), wk =   0.0360631
        k(   52) = (   0.7272727   0.0000000   0.9090909), wk =   0.0360631
        k(   53) = (   0.6363636  -0.2727273   1.0000000), wk =   0.0360631
        k(   54) = (   0.5454545  -0.1818182   0.9090909), wk =   0.0721262
        k(   55) = (   0.6363636  -0.0909091   1.0000000), wk =   0.0360631
        k(   56) = (   0.5454545   0.0000000   0.9090909), wk =   0.0360631

     Dense  grid:      893 G-vectors     FFT dimensions: (  15,  15,  15)

     Estimated max dynamical RAM per process >       0.59 MB

     Estimated total dynamical RAM >       2.97 MB

     Initial potential from superposition of free atoms

     starting charge    2.99771, renormalised to    3.00000
     Starting wfcs are    4 randomized atomic wfcs +    2 random wfcs

     total cpu time spent up to now is        0.8 secs

     Self-consistent Calculation

     iteration #  1     ecut=    15.00 Ry     beta= 0.70
     Davidson diagonalization with overlap
     ethr =  1.00E-02,  avg # of iterations =  4.3

     Threshold (ethr) on eigenvalues was too large:
     Diagonalizing with lowered threshold

     Davidson diagonalization with overlap
     ethr =  1.89E-04,  avg # of iterations =  1.9

     total cpu time spent up to now is        1.1 secs

     total energy              =      -5.03746942 Ry
     Harris-Foulkes estimate   =      -5.03885726 Ry
     estimated scf accuracy    <       0.00560304 Ry

     iteration #  2     ecut=    15.00 Ry     beta= 0.70
     Davidson diagonalization with overlap
     ethr =  1.87E-04,  avg # of iterations =  1.0

     total cpu time spent up to now is        1.2 secs

     total energy              =      -5.03744207 Ry
     Harris-Foulkes estimate   =      -5.03753799 Ry
     estimated scf accuracy    <       0.00039541 Ry

     iteration #  3     ecut=    15.00 Ry     beta= 0.70
     Davidson diagonalization with overlap
     ethr =  1.32E-05,  avg # of iterations =  1.6

     total cpu time spent up to now is        1.3 secs

     total energy              =      -5.03745863 Ry
     Harris-Foulkes estimate   =      -5.03745854 Ry
     estimated scf accuracy    <       0.00000134 Ry

     iteration #  4     ecut=    15.00 Ry     beta= 0.70
     Davidson diagonalization with overlap
     ethr =  4.48E-08,  avg # of iterations =  3.0

     total cpu time spent up to now is        1.5 secs

     total energy              =      -5.03746023 Ry
     Harris-Foulkes estimate   =      -5.03746023 Ry
     estimated scf accuracy    <       0.00000005 Ry

     iteration #  5     ecut=    15.00 Ry     beta= 0.70
     Davidson diagonalization with overlap
     ethr =  1.74E-09,  avg # of iterations =  1.0

     total cpu time spent up to now is        1.6 secs

     total energy              =      -5.03746024 Ry
     Harris-Foulkes estimate   =      -5.03746023 Ry
     estimated scf accuracy    <       0.00000002 Ry

     iteration #  6     ecut=    15.00 Ry     beta= 0.70
     Davidson diagonalization with overlap
     ethr =  7.26E-10,  avg # of iterations =  1.0

     total cpu time spent up to now is        1.6 secs

     End of self-consistent calculation

          k = 0.0000 0.0000 0.0000 (   113 PWs)   bands (ev):

    -3.2466  20.6604  20.6604  21.8799  21.8799  21.8799

          k =-0.0909 0.0909-0.0909 (   113 PWs)   bands (ev):

    -3.0228  17.6164  19.9280  19.9280  22.6271  22.9557

          k =-0.1818 0.1818-0.1818 (   110 PWs)   bands (ev):

    -2.3535  13.9336  19.1622  19.1622  22.3989  23.8514

          k =-0.2727 0.2727-0.2727 (   113 PWs)   bands (ev):

    -1.2443  10.4886  18.7270  18.7270  22.2112  22.2992

          k =-0.3636 0.3636-0.3636 (   111 PWs)   bands (ev):

     0.2949   7.3703  18.6798  18.6798  20.8482  20.8482

          k =-0.4545 0.4545-0.4545 (   108 PWs)   bands (ev):

     2.2498   4.6228  19.0016  19.0016  19.7785  19.7785

          k = 0.0000 0.1818 0.0000 (   113 PWs)   bands (ev):

    -2.9483  18.6235  18.6235  19.0030  21.2210  24.3663

          k =-0.0909 0.2727-0.0909 (   116 PWs)   bands (ev):

    -2.4279  15.2603  17.6713  19.0669  21.5901  22.3433

          k =-0.1818 0.3636-0.1818 (   110 PWs)   bands (ev):

    -1.4656  11.7679  17.1072  18.7068  20.0183  23.7783

          k =-0.2727 0.4545-0.2727 (   109 PWs)   bands (ev):

    -0.0704   8.5492  16.9251  18.3775  18.5798  23.3627

          k =-0.3636 0.5455-0.3636 (   112 PWs)   bands (ev):

     1.7455   5.6820  17.1121  17.1233  18.8147  22.1528

          k = 0.5455-0.3636 0.5455 (   112 PWs)   bands (ev):

     3.1726   3.9909  16.2446  17.7096  19.4480  21.3186

          k = 0.4545-0.2727 0.4545 (   107 PWs)   bands (ev):

     1.0946   6.5951  15.7770  18.6877  20.4681  20.8868

          k = 0.3636-0.1818 0.3636 (   109 PWs)   bands (ev):

    -0.5828   9.5789  15.7082  19.9827  20.8624  21.8478

          k = 0.2727-0.0909 0.2727 (   112 PWs)   bands (ev):

    -1.8349  12.8767  16.0602  20.9415  21.8060  23.4166

          k = 0.1818-0.0000 0.1818 (   115 PWs)   bands (ev):

    -2.6507  16.1164  17.1035  21.2421  22.1834  23.3083

          k = 0.0000 0.3636 0.0000 (   113 PWs)   bands (ev):

    -2.0570  16.5778  16.5778  16.8060  19.5755  19.9109

          k =-0.0909 0.4545-0.0909 (   111 PWs)   bands (ev):

    -1.2444  13.3653  15.8771  17.2422  17.4660  20.4494

          k =-0.1818 0.5455-0.1818 (   112 PWs)   bands (ev):

     0.0020  10.1090  15.5563  15.5850  17.2586  22.5989

          k =-0.2727 0.6364-0.2727 (   110 PWs)   bands (ev):

     1.6716   7.1479  14.1683  15.6299  17.4095  24.9524

          k = 0.6364-0.2727 0.6364 (   109 PWs)   bands (ev):

     3.7354   4.5608  13.1531  16.0855  17.9423  24.0091

          k = 0.5455-0.1818 0.5455 (   109 PWs)   bands (ev):

     2.3213   6.2257  12.5552  16.9324  18.8631  23.4333

          k = 0.4545-0.0909 0.4545 (   108 PWs)   bands (ev):

     0.5129   9.0247  12.4164  18.1627  20.1722  23.2211

          k = 0.3636 0.0000 0.3636 (   111 PWs)   bands (ev):

    -0.8766  11.7146  13.1368  19.7593  21.7986  22.9995

          k = 0.0000 0.5455 0.0000 (   113 PWs)   bands (ev):

    -0.5837  15.0412  15.0412  15.0444  15.0493  18.5166

          k =-0.0909 0.6364-0.0909 (   109 PWs)   bands (ev):

     0.5110  11.9814  13.0904  14.5886  15.9315  19.2498

          k =-0.1818 0.7273-0.1818 (   108 PWs)   bands (ev):

     2.0281   8.9901  11.5190  14.5237  16.1714  21.6730

          k = 0.7273-0.1818 0.7273 (   108 PWs)   bands (ev):

     3.9449   6.3027  10.3606  14.8511  16.6112  24.6428

          k = 0.6364-0.0909 0.6364 (   107 PWs)   bands (ev):

     3.9617   6.2334   9.6680  15.5658  17.4331  26.3742

          k = 0.5455 0.0000 0.5455 (   107 PWs)   bands (ev):

     2.0334   8.3944   9.8867  16.6707  18.6345  26.2380

          k = 0.0000 0.7273 0.0000 (   112 PWs)   bands (ev):

     1.4506  10.9419  13.8722  14.0038  14.0038  17.5157

          k =-0.0909 0.8182-0.0909 (   110 PWs)   bands (ev):

     2.8058   9.2117  11.1780  13.8103  15.0812  18.4979

          k = 0.8182-0.0909 0.8182 (   108 PWs)   bands (ev):

     4.5315   7.8848   8.5226  14.0064  15.6037  21.1865

          k = 0.7273 0.0000 0.7273 (   106 PWs)   bands (ev):

     5.9836   6.1813   7.6439  14.5936  16.3380  24.4358

          k = 0.0000 0.9091 0.0000 (   112 PWs)   bands (ev):

     3.9674   7.3814  13.2835  13.4862  13.4862  16.9873

          k = 0.9091-0.0000 0.9091 (   114 PWs)   bands (ev):

     5.0767   6.4227  10.8921  13.5515  14.7880  18.2373

          k =-0.1818 0.3636 0.0000 (   114 PWs)   bands (ev):

    -1.7610  13.9250  15.1279  19.7875  19.9366  21.6806

          k =-0.2727 0.4545-0.0909 (   111 PWs)   bands (ev):

    -0.6563  10.9595  14.2470  17.9028  20.1548  23.1815

          k =-0.3636 0.5455-0.1818 (   107 PWs)   bands (ev):

     0.8763   7.9075  14.1412  16.3767  20.2079  22.4932

          k = 0.5455-0.3636 0.7273 (   109 PWs)   bands (ev):

     2.8218   5.1844  14.4480  15.2514  20.5360  21.4336

          k =-0.1818 0.5455 0.0000 (   110 PWs)   bands (ev):

    -0.2904  12.2752  13.5409  15.3585  18.3676  20.3880

          k =-0.2727 0.6364-0.0909 (   110 PWs)   bands (ev):

     1.0924   9.5711  12.8592  13.7012  18.9088  22.2385

          k = 0.6364-0.2727 0.8182 (   108 PWs)   bands (ev):

     2.8900   6.7839  12.2897  13.1374  19.2556  24.1058

          k = 0.5455-0.1818 0.7273 (   109 PWs)   bands (ev):

     4.3017   5.1110  11.4497  13.6987  19.9053  23.4025

          k = 0.4545-0.0909 0.6364 (   111 PWs)   bands (ev):

     2.2483   7.6293  11.0428  14.7031  20.8996  22.8776

          k = 0.3636 0.0000 0.5455 (   110 PWs)   bands (ev):

     0.5853  10.0566  11.5228  16.1136  22.1714  22.1811

          k =-0.1818 0.7273 0.0000 (   111 PWs)   bands (ev):

     1.7396  11.1621  11.1838  12.5542  17.2740  19.4367

          k = 0.7273-0.1818 0.9091 (   107 PWs)   bands (ev):

     3.3774   8.7148   9.8015  12.1388  18.1128  21.5569

          k = 0.6364-0.0909 0.8182 (   108 PWs)   bands (ev):

     5.3638   6.2233   8.8239  12.5547  18.7400  24.5597

          k = 0.5455 0.0000 0.7273 (   108 PWs)   bands (ev):

     4.0309   7.2869   8.7563  13.4240  19.6633  25.4959

          k = 0.8182-0.0909 1.0000 (   108 PWs)   bands (ev):

     4.2500   7.6612  10.6108  11.9877  16.7292  18.9397

          k = 0.7273 0.0000 0.9091 (   106 PWs)   bands (ev):

     5.6286   6.9809   8.4942  11.8575  17.8431  21.3187

          k = 0.6364-0.2727 1.0000 (   109 PWs)   bands (ev):

     2.6034   8.9477  10.3813  12.1289  21.1490  22.5911

          k = 0.5455-0.1818 0.9091 (   109 PWs)   bands (ev):

     4.5122   6.7896  10.1297  11.0271  22.0418  22.9878

          k = 0.6364-0.0909 1.0000 (   105 PWs)   bands (ev):

     5.0943   8.3955   8.4535   9.9827  20.6189  22.2687

          k = 0.5455 0.0000 0.9091 (   108 PWs)   bands (ev):

     6.4813   6.7333   8.1517  10.0232  21.8518  24.6733

     the Fermi energy is     7.8861 ev

!    total energy              =      -5.03746024 Ry
     Harris-Foulkes estimate   =      -5.03746024 Ry
     estimated scf accuracy    <          1.1E-10 Ry

     The total energy is the sum of the following terms:

     one-electron contribution =       2.93846778 Ry
     hartree contribution      =       0.00602445 Ry
     xc contribution           =      -2.58768003 Ry
     ewald contribution        =      -5.39395544 Ry
     smearing contrib. (-TS)   =      -0.00031701 Ry

     convergence has been achieved in   6 iterations

     Forces acting on atoms (cartesian axes, Ry/au):

     atom    1 type  1   force =     0.00000000    0.00000000    0.00000000

     Total force =     0.000000     Total SCF correction =     0.000000


     Computing stress (Cartesian axis) and pressure

          total   stress  (Ry/bohr**3)                   (kbar)     P=   -1.77
  -0.00001202   0.00000000   0.00000000         -1.77      0.00      0.00
   0.00000000  -0.00001202   0.00000000          0.00     -1.77      0.00
   0.00000000   0.00000000  -0.00001202          0.00      0.00     -1.77


     Writing output data file Al.save/

     init_run     :      0.09s CPU      0.10s WALL (       1 calls)
     electrons    :      0.69s CPU      0.82s WALL (       1 calls)
     forces       :      0.02s CPU      0.02s WALL (       1 calls)
     stress       :      0.02s CPU      0.02s WALL (       1 calls)

     Called by init_run:
     wfcinit      :      0.04s CPU      0.05s WALL (       1 calls)
     potinit      :      0.00s CPU      0.00s WALL (       1 calls)
     hinit0       :      0.05s CPU      0.05s WALL (       1 calls)

     Called by electrons:
     c_bands      :      0.58s CPU      0.69s WALL (       7 calls)
     sum_band     :      0.09s CPU      0.10s WALL (       7 calls)
     v_of_rho     :      0.01s CPU      0.01s WALL (       7 calls)
     newd         :      0.00s CPU      0.00s WALL (       7 calls)
     mix_rho      :      0.00s CPU      0.00s WALL (       7 calls)

     Called by c_bands:
     init_us_2    :      0.01s CPU      0.01s WALL (     952 calls)
     cegterg      :      0.56s CPU      0.67s WALL (     392 calls)

     Called by sum_band:
     sum_band:bec :      0.00s CPU      0.00s WALL (     392 calls)
     addusdens    :      0.00s CPU      0.00s WALL (       7 calls)

     Called by *egterg:
     h_psi        :      0.42s CPU      0.49s WALL (    1222 calls)
     s_psi        :      0.01s CPU      0.01s WALL (    1222 calls)
     g_psi        :      0.00s CPU      0.00s WALL (     774 calls)
     cdiaghg      :      0.09s CPU      0.11s WALL (    1110 calls)

     Called by h_psi:
     h_psi:pot    :      0.41s CPU      0.49s WALL (    1222 calls)
     h_psi:calbec :      0.03s CPU      0.03s WALL (    1222 calls)
     vloc_psi     :      0.37s CPU      0.44s WALL (    1222 calls)
     add_vuspsi   :      0.01s CPU      0.01s WALL (    1222 calls)

     General routines
     calbec       :      0.04s CPU      0.05s WALL (    1894 calls)
     fft          :      0.01s CPU      0.01s WALL (     104 calls)
     ffts         :      0.00s CPU      0.00s WALL (       7 calls)
     fftw         :      0.40s CPU      0.47s WALL (   14294 calls)

     Parallel routines
     fft_scatt_xy :      0.03s CPU      0.04s WALL (   14405 calls)
     fft_scatt_yz :      0.21s CPU      0.24s WALL (   14405 calls)

     PWSCF        :     1.57s CPU         1.81s WALL


   This run was terminated on:  19:54:26  25Mar2024            

=------------------------------------------------------------------------------=
   JOB DONE.
=------------------------------------------------------------------------------=
