
     Program PWSCF v.6.3MaX starts on 25Mar2024 at 19:56:16 

     This program is part of the open-source Quantum ESPRESSO suite
     for quantum simulation of materials; please cite
         "P. Giannozzi et al., J. Phys.:Condens. Matter 21 395502 (2009);
         "P. Giannozzi et al., J. Phys.:Condens. Matter 29 465901 (2017);
          URL http://www.quantum-espresso.org", 
     in publications or presentations arising from this work. More details at
     http://www.quantum-espresso.org/quote

     Parallel version (MPI), running on     5 processors

     MPI processes distributed on     1 nodes
     R & G space division:  proc/nbgrp/npool/nimage =       5
     Waiting for input...
     Reading input from standard input

     Current dimensions of program PWSCF are:
     Max number of different atomic species (ntypx) = 10
     Max number of k-points (npk) =  40000
     Max angular momentum in pseudopotentials (lmaxx) =  3
               file Al.pbe-n-kjpaw_psl.1.0.0.UPF: wavefunction(s)  3S 3P renormalized

     Subspace diagonalization in iterative solution of the eigenvalue problem:
     a serial algorithm will be used


     Parallelization info
     --------------------
     sticks:   dense  smooth     PW     G-vecs:    dense   smooth      PW
     Min          39      39     14                  381      381      82
     Max          40      40     15                  384      384      83
     Sum         199     199     73                 1917     1917     411



     bravais-lattice index     =            2
     lattice parameter (alat)  =       7.6500  a.u.
     unit-cell volume          =     111.9243 (a.u.)^3
     number of atoms/cell      =            1
     number of atomic types    =            1
     number of electrons       =         3.00
     number of Kohn-Sham states=            6
     kinetic-energy cutoff     =      25.0000  Ry
     charge density cutoff     =     100.0000  Ry
     convergence threshold     =      1.0E-08
     mixing beta               =       0.7000
     number of iterations used =            8  plain     mixing
     Exchange-correlation      = SLA PW PBX PBC ( 1  4  3  4 0 0)

     celldm(1)=   7.650000  celldm(2)=   0.000000  celldm(3)=   0.000000
     celldm(4)=   0.000000  celldm(5)=   0.000000  celldm(6)=   0.000000

     crystal axes: (cart. coord. in units of alat)
               a(1) = (  -0.500000   0.000000   0.500000 )  
               a(2) = (   0.000000   0.500000   0.500000 )  
               a(3) = (  -0.500000   0.500000   0.000000 )  

     reciprocal axes: (cart. coord. in units 2 pi/alat)
               b(1) = ( -1.000000 -1.000000  1.000000 )  
               b(2) = (  1.000000  1.000000  1.000000 )  
               b(3) = ( -1.000000  1.000000 -1.000000 )  


     PseudoPot. # 1 for Al read from file:
     /home/lorenzo/pseudos/Al/Al.pbe-n-kjpaw_psl.1.0.0.UPF
     MD5 check sum: 502b6b27b9c6270cab5dd1084b96fa6d
     Pseudo is Projector augmented-wave + core cor, Zval =  3.0
     Generated using "atomic" code by A. Dal Corso v.6.3
     Shape of augmentation charge: PSQ
     Using radial grid of 1135 points,  6 beta functions with: 
                l(1) =   0
                l(2) =   0
                l(3) =   1
                l(4) =   1
                l(5) =   2
                l(6) =   2
     Q(r) pseudized with 0 coefficients 


     atomic species   valence    mass     pseudopotential
        Al             3.00    26.98150     Al( 1.00)

     48 Sym. Ops., with inversion, found



   Cartesian axes

     site n.     atom                  positions (alat units)
         1           Al  tau(   1) = (   0.0000000   0.0000000   0.0000000  )

     number of k points=    56  gaussian smearing, width (Ry)=  0.0100
                       cart. coord. in units 2pi/alat
        k(    1) = (   0.0000000   0.0000000   0.0000000), wk =   0.0015026
        k(    2) = (  -0.0909091   0.0909091  -0.0909091), wk =   0.0120210
        k(    3) = (  -0.1818182   0.1818182  -0.1818182), wk =   0.0120210
        k(    4) = (  -0.2727273   0.2727273  -0.2727273), wk =   0.0120210
        k(    5) = (  -0.3636364   0.3636364  -0.3636364), wk =   0.0120210
        k(    6) = (  -0.4545455   0.4545455  -0.4545455), wk =   0.0120210
        k(    7) = (   0.0000000   0.1818182   0.0000000), wk =   0.0090158
        k(    8) = (  -0.0909091   0.2727273  -0.0909091), wk =   0.0360631
        k(    9) = (  -0.1818182   0.3636364  -0.1818182), wk =   0.0360631
        k(   10) = (  -0.2727273   0.4545455  -0.2727273), wk =   0.0360631
        k(   11) = (  -0.3636364   0.5454545  -0.3636364), wk =   0.0360631
        k(   12) = (   0.5454545  -0.3636364   0.5454545), wk =   0.0360631
        k(   13) = (   0.4545455  -0.2727273   0.4545455), wk =   0.0360631
        k(   14) = (   0.3636364  -0.1818182   0.3636364), wk =   0.0360631
        k(   15) = (   0.2727273  -0.0909091   0.2727273), wk =   0.0360631
        k(   16) = (   0.1818182  -0.0000000   0.1818182), wk =   0.0180316
        k(   17) = (   0.0000000   0.3636364   0.0000000), wk =   0.0090158
        k(   18) = (  -0.0909091   0.4545455  -0.0909091), wk =   0.0360631
        k(   19) = (  -0.1818182   0.5454545  -0.1818182), wk =   0.0360631
        k(   20) = (  -0.2727273   0.6363636  -0.2727273), wk =   0.0360631
        k(   21) = (   0.6363636  -0.2727273   0.6363636), wk =   0.0360631
        k(   22) = (   0.5454545  -0.1818182   0.5454545), wk =   0.0360631
        k(   23) = (   0.4545455  -0.0909091   0.4545455), wk =   0.0360631
        k(   24) = (   0.3636364   0.0000000   0.3636364), wk =   0.0180316
        k(   25) = (   0.0000000   0.5454545   0.0000000), wk =   0.0090158
        k(   26) = (  -0.0909091   0.6363636  -0.0909091), wk =   0.0360631
        k(   27) = (  -0.1818182   0.7272727  -0.1818182), wk =   0.0360631
        k(   28) = (   0.7272727  -0.1818182   0.7272727), wk =   0.0360631
        k(   29) = (   0.6363636  -0.0909091   0.6363636), wk =   0.0360631
        k(   30) = (   0.5454545   0.0000000   0.5454545), wk =   0.0180316
        k(   31) = (   0.0000000   0.7272727   0.0000000), wk =   0.0090158
        k(   32) = (  -0.0909091   0.8181818  -0.0909091), wk =   0.0360631
        k(   33) = (   0.8181818  -0.0909091   0.8181818), wk =   0.0360631
        k(   34) = (   0.7272727   0.0000000   0.7272727), wk =   0.0180316
        k(   35) = (   0.0000000   0.9090909   0.0000000), wk =   0.0090158
        k(   36) = (   0.9090909  -0.0000000   0.9090909), wk =   0.0180316
        k(   37) = (  -0.1818182   0.3636364   0.0000000), wk =   0.0360631
        k(   38) = (  -0.2727273   0.4545455  -0.0909091), wk =   0.0721262
        k(   39) = (  -0.3636364   0.5454545  -0.1818182), wk =   0.0721262
        k(   40) = (   0.5454545  -0.3636364   0.7272727), wk =   0.0721262
        k(   41) = (  -0.1818182   0.5454545   0.0000000), wk =   0.0360631
        k(   42) = (  -0.2727273   0.6363636  -0.0909091), wk =   0.0721262
        k(   43) = (   0.6363636  -0.2727273   0.8181818), wk =   0.0721262
        k(   44) = (   0.5454545  -0.1818182   0.7272727), wk =   0.0721262
        k(   45) = (   0.4545455  -0.0909091   0.6363636), wk =   0.0721262
        k(   46) = (   0.3636364   0.0000000   0.5454545), wk =   0.0360631
        k(   47) = (  -0.1818182   0.7272727   0.0000000), wk =   0.0360631
        k(   48) = (   0.7272727  -0.1818182   0.9090909), wk =   0.0721262
        k(   49) = (   0.6363636  -0.0909091   0.8181818), wk =   0.0721262
        k(   50) = (   0.5454545   0.0000000   0.7272727), wk =   0.0360631
        k(   51) = (   0.8181818  -0.0909091   1.0000000), wk =   0.0360631
        k(   52) = (   0.7272727   0.0000000   0.9090909), wk =   0.0360631
        k(   53) = (   0.6363636  -0.2727273   1.0000000), wk =   0.0360631
        k(   54) = (   0.5454545  -0.1818182   0.9090909), wk =   0.0721262
        k(   55) = (   0.6363636  -0.0909091   1.0000000), wk =   0.0360631
        k(   56) = (   0.5454545   0.0000000   0.9090909), wk =   0.0360631

     Dense  grid:     1917 G-vectors     FFT dimensions: (  18,  18,  18)

     Estimated max dynamical RAM per process >       2.65 MB

     Estimated total dynamical RAM >      13.26 MB

     Initial potential from superposition of free atoms

     starting charge    2.99771, renormalised to    3.00000
     Starting wfcs are    4 randomized atomic wfcs +    2 random wfcs
     Checking if some PAW data can be deallocated... 

     total cpu time spent up to now is        1.1 secs

     Self-consistent Calculation

     iteration #  1     ecut=    25.00 Ry     beta= 0.70
     Davidson diagonalization with overlap
     ethr =  1.00E-02,  avg # of iterations =  4.6

     Threshold (ethr) on eigenvalues was too large:
     Diagonalizing with lowered threshold

     Davidson diagonalization with overlap
     ethr =  1.82E-04,  avg # of iterations =  1.9

     total cpu time spent up to now is        1.5 secs

     total energy              =     -39.50348122 Ry
     Harris-Foulkes estimate   =     -39.50465248 Ry
     estimated scf accuracy    <       0.00541330 Ry

     iteration #  2     ecut=    25.00 Ry     beta= 0.70
     Davidson diagonalization with overlap
     ethr =  1.80E-04,  avg # of iterations =  1.0

     total cpu time spent up to now is        1.8 secs

     total energy              =     -39.50343748 Ry
     Harris-Foulkes estimate   =     -39.50352715 Ry
     estimated scf accuracy    <       0.00039580 Ry

     iteration #  3     ecut=    25.00 Ry     beta= 0.70
     Davidson diagonalization with overlap
     ethr =  1.32E-05,  avg # of iterations =  1.4

     total cpu time spent up to now is        2.1 secs

     total energy              =     -39.50344620 Ry
     Harris-Foulkes estimate   =     -39.50344631 Ry
     estimated scf accuracy    <       0.00000047 Ry

     iteration #  4     ecut=    25.00 Ry     beta= 0.70
     Davidson diagonalization with overlap
     ethr =  1.56E-08,  avg # of iterations =  2.9

     total cpu time spent up to now is        2.3 secs

     total energy              =     -39.50344774 Ry
     Harris-Foulkes estimate   =     -39.50344777 Ry
     estimated scf accuracy    <       0.00000003 Ry

     iteration #  5     ecut=    25.00 Ry     beta= 0.70
     Davidson diagonalization with overlap
     ethr =  1.03E-09,  avg # of iterations =  1.1

     total cpu time spent up to now is        2.6 secs

     End of self-consistent calculation

          k = 0.0000 0.0000 0.0000 (   259 PWs)   bands (ev):

    -3.2496  20.4350  20.4350  21.8935  21.8935  21.8935

          k =-0.0909 0.0909-0.0909 (   250 PWs)   bands (ev):

    -3.0257  17.5242  19.7923  19.7923  22.5834  22.8734

          k =-0.1818 0.1818-0.1818 (   238 PWs)   bands (ev):

    -2.3560  13.8807  19.0618  19.0618  22.3569  23.6879

          k =-0.2727 0.2727-0.2727 (   238 PWs)   bands (ev):

    -1.2470  10.4552  18.6544  18.6545  22.1452  22.1534

          k =-0.3636 0.3636-0.3636 (   232 PWs)   bands (ev):

     0.2915   7.3516  18.6112  18.6112  20.7283  20.7283

          k =-0.4545 0.4545-0.4545 (   241 PWs)   bands (ev):

     2.2447   4.6116  18.9397  18.9397  19.6499  19.6499

          k = 0.0000 0.1818 0.0000 (   250 PWs)   bands (ev):

    -2.9511  18.5331  18.5331  18.8405  21.2265  24.2236

          k =-0.0909 0.2727-0.0909 (   233 PWs)   bands (ev):

    -2.4302  15.2031  17.6091  18.9540  21.5556  22.1933

          k =-0.1818 0.3636-0.1818 (   236 PWs)   bands (ev):

    -1.4681  11.7277  17.0538  18.6140  19.9180  23.6967

          k =-0.2727 0.4545-0.2727 (   238 PWs)   bands (ev):

    -0.0734   8.5257  16.8750  18.2735  18.5221  23.1930

          k =-0.3636 0.5455-0.3636 (   239 PWs)   bands (ev):

     1.7410   5.6684  17.0485  17.0751  18.7405  22.0192

          k = 0.5455-0.3636 0.5455 (   235 PWs)   bands (ev):

     3.1674   3.9800  16.1905  17.6554  19.3663  21.1982

          k = 0.4545-0.2727 0.4545 (   240 PWs)   bands (ev):

     1.0907   6.5784  15.7256  18.6128  20.3765  20.7467

          k = 0.3636-0.1818 0.3636 (   239 PWs)   bands (ev):

    -0.5857   9.5508  15.6601  19.9181  20.6859  21.7475

          k = 0.2727-0.0909 0.2727 (   238 PWs)   bands (ev):

    -1.8374  12.8327  16.0081  20.8354  21.6475  23.3565

          k = 0.1818-0.0000 0.1818 (   243 PWs)   bands (ev):

    -2.6532  16.0432  17.0454  21.0173  22.1948  23.2898

          k = 0.0000 0.3636 0.0000 (   234 PWs)   bands (ev):

    -2.0594  16.5339  16.5339  16.6729  19.4919  19.8646

          k =-0.0909 0.4545-0.0909 (   233 PWs)   bands (ev):

    -1.2470  13.3177  15.8407  17.1348  17.4099  20.3893

          k =-0.1818 0.5455-0.1818 (   230 PWs)   bands (ev):

    -0.0008  10.0792  15.5278  15.5293  17.1823  22.5113

          k =-0.2727 0.6364-0.2727 (   236 PWs)   bands (ev):

     1.6674   7.1302  14.1226  15.5991  17.3341  24.7464

          k = 0.6364-0.2727 0.6364 (   239 PWs)   bands (ev):

     3.7290   4.5492  13.1148  16.0507  17.8609  23.8271

          k = 0.5455-0.1818 0.5455 (   238 PWs)   bands (ev):

     2.3160   6.2107  12.5221  16.8845  18.7830  23.2589

          k = 0.4545-0.0909 0.4545 (   240 PWs)   bands (ev):

     0.5096   8.9975  12.3847  18.0976  20.0828  23.0350

          k = 0.3636 0.0000 0.3636 (   236 PWs)   bands (ev):

    -0.8792  11.6728  13.1113  19.6749  21.7053  22.7540

          k = 0.0000 0.5455 0.0000 (   234 PWs)   bands (ev):

    -0.5860  14.9451  14.9990  15.0142  15.0142  18.4920

          k =-0.0909 0.6364-0.0909 (   236 PWs)   bands (ev):

     0.5082  11.9400  13.0500  14.5717  15.8506  19.2033

          k =-0.1818 0.7273-0.1818 (   237 PWs)   bands (ev):

     2.0238   8.9642  11.4848  14.5118  16.0880  21.5871

          k = 0.7273-0.1818 0.7273 (   232 PWs)   bands (ev):

     3.9377   6.2881  10.3326  14.8342  16.5296  24.5097

          k = 0.6364-0.0909 0.6364 (   232 PWs)   bands (ev):

     3.9534   6.2196   9.6431  15.5393  17.3460  26.1295

          k = 0.5455 0.0000 0.5455 (   240 PWs)   bands (ev):

     2.0285   8.3695   9.8656  16.6279  18.5462  26.0497

          k = 0.0000 0.7273 0.0000 (   238 PWs)   bands (ev):

     1.4472  10.9096  13.7733  13.9997  13.9997  17.4722

          k =-0.0909 0.8182-0.0909 (   234 PWs)   bands (ev):

     2.8014   9.1848  11.1457  13.8107  15.0085  18.4453

          k = 0.8182-0.0909 0.8182 (   235 PWs)   bands (ev):

     4.5253   7.8583   8.5058  14.0038  15.5235  21.1037

          k = 0.7273 0.0000 0.7273 (   236 PWs)   bands (ev):

     5.9698   6.1726   7.6218  14.5795  16.2521  24.3034

          k = 0.0000 0.9091 0.0000 (   230 PWs)   bands (ev):

     3.9635   7.3595  13.1848  13.4930  13.4930  16.9347

          k = 0.9091-0.0000 0.9091 (   230 PWs)   bands (ev):

     5.0773   6.3973  10.8654  13.5573  14.7258  18.1860

          k =-0.1818 0.3636 0.0000 (   238 PWs)   bands (ev):

    -1.7634  13.8708  15.0930  19.7007  19.8102  21.6223

          k =-0.2727 0.4545-0.0909 (   234 PWs)   bands (ev):

    -0.6591  10.9227  14.2125  17.8325  20.0490  23.1093

          k =-0.3636 0.5455-0.1818 (   238 PWs)   bands (ev):

     0.8727   7.8862  14.0989  16.3202  20.1127  22.3558

          k = 0.5455-0.3636 0.7273 (   241 PWs)   bands (ev):

     2.8160   5.1720  14.3993  15.2133  20.4667  21.2860

          k =-0.1818 0.5455 0.0000 (   237 PWs)   bands (ev):

    -0.2931  12.2256  13.5173  15.3097  18.2671  20.3394

          k =-0.2727 0.6364-0.0909 (   236 PWs)   bands (ev):

     1.0889   9.5417  12.8258  13.6724  18.8180  22.1618

          k = 0.6364-0.2727 0.8182 (   240 PWs)   bands (ev):

     2.8841   6.7673  12.2480  13.1168  19.1707  23.9748

          k = 0.5455-0.1818 0.7273 (   237 PWs)   bands (ev):

     4.2934   5.0992  11.4192  13.6700  19.8214  23.2520

          k = 0.4545-0.0909 0.6364 (   239 PWs)   bands (ev):

     2.2433   7.6097  11.0176  14.6662  20.8203  22.7251

          k = 0.3636 0.0000 0.5455 (   237 PWs)   bands (ev):

     0.5821  10.0211  11.5029  16.0620  22.0294  22.1024

          k =-0.1818 0.7273 0.0000 (   233 PWs)   bands (ev):

     1.7358  11.1247  11.1464  12.5501  17.1961  19.3880

          k = 0.7273-0.1818 0.9091 (   235 PWs)   bands (ev):

     3.3715   8.6885   9.7747  12.1225  18.0299  21.4763

          k = 0.6364-0.0909 0.8182 (   232 PWs)   bands (ev):

     5.3541   6.2093   8.8013  12.5327  18.6591  24.4352

          k = 0.5455 0.0000 0.7273 (   235 PWs)   bands (ev):

     4.0224   7.2702   8.7364  13.3952  19.5778  25.2990

          k = 0.8182-0.0909 1.0000 (   234 PWs)   bands (ev):

     4.2449   7.6378  10.5731  11.9834  16.6552  18.8878

          k = 0.7273 0.0000 0.9091 (   231 PWs)   bands (ev):

     5.6246   6.9546   8.4735  11.8413  17.7630  21.2384

          k = 0.6364-0.2727 1.0000 (   237 PWs)   bands (ev):

     2.5981   8.9203  10.3615  12.1049  21.0239  22.5466

          k = 0.5455-0.1818 0.9091 (   236 PWs)   bands (ev):

     4.5032   6.7741  10.0994  11.0126  21.9532  22.8447

          k = 0.6364-0.0909 1.0000 (   238 PWs)   bands (ev):

     5.0856   8.3699   8.4252   9.9757  20.4981  22.1970

          k = 0.5455 0.0000 0.9091 (   233 PWs)   bands (ev):

     6.4663   6.7212   8.1280  10.0087  21.7428  24.5668

     the Fermi energy is     7.8632 ev

!    total energy              =     -39.50344774 Ry
     Harris-Foulkes estimate   =     -39.50344774 Ry
     estimated scf accuracy    <          1.5E-10 Ry

     total all-electron energy =      -485.646228 Ry

     The total energy is the sum of the following terms:

     one-electron contribution =       3.15198793 Ry
     hartree contribution      =       0.00577970 Ry
     xc contribution           =      -2.58790856 Ry
     ewald contribution        =      -5.39395546 Ry
     one-center paw contrib.   =     -34.67903468 Ry
     smearing contrib. (-TS)   =      -0.00031667 Ry

     convergence has been achieved in   5 iterations

     Forces acting on atoms (cartesian axes, Ry/au):

     atom    1 type  1   force =     0.00000000    0.00000000    0.00000000

     Total force =     0.000000     Total SCF correction =     0.000000


     Computing stress (Cartesian axis) and pressure

          total   stress  (Ry/bohr**3)                   (kbar)     P=   -4.22
  -0.00002871   0.00000000   0.00000000         -4.22      0.00      0.00
   0.00000000  -0.00002871   0.00000000          0.00     -4.22      0.00
   0.00000000   0.00000000  -0.00002871          0.00      0.00     -4.22


     Writing output data file Al.save/

     init_run     :      0.22s CPU      0.24s WALL (       1 calls)
     electrons    :      1.34s CPU      1.50s WALL (       1 calls)
     forces       :      0.02s CPU      0.02s WALL (       1 calls)
     stress       :      0.06s CPU      0.06s WALL (       1 calls)

     Called by init_run:
     wfcinit      :      0.04s CPU      0.04s WALL (       1 calls)
     potinit      :      0.08s CPU      0.10s WALL (       1 calls)
     hinit0       :      0.08s CPU      0.09s WALL (       1 calls)

     Called by electrons:
     c_bands      :      0.67s CPU      0.74s WALL (       6 calls)
     sum_band     :      0.14s CPU      0.15s WALL (       6 calls)
     v_of_rho     :      0.01s CPU      0.01s WALL (       6 calls)
     newd         :      0.01s CPU      0.01s WALL (       6 calls)
     PAW_pot      :      0.58s CPU      0.66s WALL (       6 calls)
     mix_rho      :      0.00s CPU      0.00s WALL (       6 calls)

     Called by c_bands:
     init_us_2    :      0.03s CPU      0.03s WALL (     840 calls)
     cegterg      :      0.63s CPU      0.70s WALL (     336 calls)

     Called by sum_band:
     sum_band:bec :      0.00s CPU      0.00s WALL (     336 calls)
     addusdens    :      0.02s CPU      0.02s WALL (       6 calls)

     Called by *egterg:
     h_psi        :      0.48s CPU      0.53s WALL (    1116 calls)
     s_psi        :      0.01s CPU      0.02s WALL (    1116 calls)
     g_psi        :      0.00s CPU      0.00s WALL (     724 calls)
     cdiaghg      :      0.08s CPU      0.09s WALL (    1004 calls)

     Called by h_psi:
     h_psi:pot    :      0.48s CPU      0.53s WALL (    1116 calls)
     h_psi:calbec :      0.03s CPU      0.03s WALL (    1116 calls)
     vloc_psi     :      0.43s CPU      0.47s WALL (    1116 calls)
     add_vuspsi   :      0.01s CPU      0.02s WALL (    1116 calls)

     General routines
     calbec       :      0.05s CPU      0.05s WALL (    1732 calls)
     fft          :      0.01s CPU      0.01s WALL (      93 calls)
     ffts         :      0.00s CPU      0.00s WALL (       6 calls)
     fftw         :      0.48s CPU      0.53s WALL (   12720 calls)

     Parallel routines
     fft_scatt_xy :      0.04s CPU      0.05s WALL (   12819 calls)
     fft_scatt_yz :      0.16s CPU      0.18s WALL (   12819 calls)

     PWSCF        :     2.55s CPU         2.83s WALL


   This run was terminated on:  19:56:19  25Mar2024            

=------------------------------------------------------------------------------=
   JOB DONE.
=------------------------------------------------------------------------------=
