
     Program PWSCF v.6.3MaX starts on 25Mar2024 at 19:56:36 

     This program is part of the open-source Quantum ESPRESSO suite
     for quantum simulation of materials; please cite
         "P. Giannozzi et al., J. Phys.:Condens. Matter 21 395502 (2009);
         "P. Giannozzi et al., J. Phys.:Condens. Matter 29 465901 (2017);
          URL http://www.quantum-espresso.org", 
     in publications or presentations arising from this work. More details at
     http://www.quantum-espresso.org/quote

     Parallel version (MPI), running on     5 processors

     MPI processes distributed on     1 nodes
     R & G space division:  proc/nbgrp/npool/nimage =       5
     Waiting for input...
     Reading input from standard input

     Current dimensions of program PWSCF are:
     Max number of different atomic species (ntypx) = 10
     Max number of k-points (npk) =  40000
     Max angular momentum in pseudopotentials (lmaxx) =  3
               file Al.pbe-n-kjpaw_psl.1.0.0.UPF: wavefunction(s)  3S 3P renormalized

     Subspace diagonalization in iterative solution of the eigenvalue problem:
     a serial algorithm will be used


     Parallelization info
     --------------------
     sticks:   dense  smooth     PW     G-vecs:    dense   smooth      PW
     Min          39      39     13                  381      381      77
     Max          40      40     15                  384      384      78
     Sum         199     199     73                 1917     1917     387



     bravais-lattice index     =            2
     lattice parameter (alat)  =       7.6500  a.u.
     unit-cell volume          =     111.9243 (a.u.)^3
     number of atoms/cell      =            1
     number of atomic types    =            1
     number of electrons       =         3.00
     number of Kohn-Sham states=            6
     kinetic-energy cutoff     =      25.0000  Ry
     charge density cutoff     =     100.0000  Ry
     convergence threshold     =      1.0E-08
     mixing beta               =       0.7000
     number of iterations used =            8  plain     mixing
     Exchange-correlation      = SLA PW PBX PBC ( 1  4  3  4 0 0)

     celldm(1)=   7.650000  celldm(2)=   0.000000  celldm(3)=   0.000000
     celldm(4)=   0.000000  celldm(5)=   0.000000  celldm(6)=   0.000000

     crystal axes: (cart. coord. in units of alat)
               a(1) = (  -0.500000   0.000000   0.500000 )  
               a(2) = (   0.000000   0.500000   0.500000 )  
               a(3) = (  -0.500000   0.500000   0.000000 )  

     reciprocal axes: (cart. coord. in units 2 pi/alat)
               b(1) = ( -1.000000 -1.000000  1.000000 )  
               b(2) = (  1.000000  1.000000  1.000000 )  
               b(3) = ( -1.000000  1.000000 -1.000000 )  


     PseudoPot. # 1 for Al read from file:
     /home/lorenzo/pseudos/Al/Al.pbe-n-kjpaw_psl.1.0.0.UPF
     MD5 check sum: 502b6b27b9c6270cab5dd1084b96fa6d
     Pseudo is Projector augmented-wave + core cor, Zval =  3.0
     Generated using "atomic" code by A. Dal Corso v.6.3
     Shape of augmentation charge: PSQ
     Using radial grid of 1135 points,  6 beta functions with: 
                l(1) =   0
                l(2) =   0
                l(3) =   1
                l(4) =   1
                l(5) =   2
                l(6) =   2
     Q(r) pseudized with 0 coefficients 


     atomic species   valence    mass     pseudopotential
        Al             3.00    26.98150     Al( 1.00)

     48 Sym. Ops., with inversion, found



   Cartesian axes

     site n.     atom                  positions (alat units)
         1           Al  tau(   1) = (   0.0000000   0.0000000   0.0000000  )

     number of k points=     8  gaussian smearing, width (Ry)=  0.0100
                       cart. coord. in units 2pi/alat
        k(    1) = (   0.0000000   0.0000000   0.0000000), wk =   0.0312500
        k(    2) = (  -0.2500000   0.2500000  -0.2500000), wk =   0.2500000
        k(    3) = (   0.5000000  -0.5000000   0.5000000), wk =   0.1250000
        k(    4) = (   0.0000000   0.5000000   0.0000000), wk =   0.1875000
        k(    5) = (   0.7500000  -0.2500000   0.7500000), wk =   0.7500000
        k(    6) = (   0.5000000   0.0000000   0.5000000), wk =   0.3750000
        k(    7) = (   0.0000000  -1.0000000   0.0000000), wk =   0.0937500
        k(    8) = (  -0.5000000  -1.0000000   0.0000000), wk =   0.1875000

     Dense  grid:     1917 G-vectors     FFT dimensions: (  18,  18,  18)

     Estimated max dynamical RAM per process >       2.45 MB

     Estimated total dynamical RAM >      12.23 MB

     Initial potential from superposition of free atoms

     starting charge    2.99771, renormalised to    3.00000
     Starting wfcs are    4 randomized atomic wfcs +    2 random wfcs
     Checking if some PAW data can be deallocated... 

     total cpu time spent up to now is        0.9 secs

     Self-consistent Calculation

     iteration #  1     ecut=    25.00 Ry     beta= 0.70
     Davidson diagonalization with overlap
     ethr =  1.00E-02,  avg # of iterations =  4.6

     Threshold (ethr) on eigenvalues was too large:
     Diagonalizing with lowered threshold

     Davidson diagonalization with overlap
     ethr =  2.07E-04,  avg # of iterations =  1.2

     total cpu time spent up to now is        1.1 secs

     total energy              =     -39.48217320 Ry
     Harris-Foulkes estimate   =     -39.48326168 Ry
     estimated scf accuracy    <       0.00601547 Ry

     iteration #  2     ecut=    25.00 Ry     beta= 0.70
     Davidson diagonalization with overlap
     ethr =  2.01E-04,  avg # of iterations =  1.0

     total cpu time spent up to now is        1.2 secs

     total energy              =     -39.48212459 Ry
     Harris-Foulkes estimate   =     -39.48221473 Ry
     estimated scf accuracy    <       0.00046176 Ry

     iteration #  3     ecut=    25.00 Ry     beta= 0.70
     Davidson diagonalization with overlap
     ethr =  1.54E-05,  avg # of iterations =  2.0

     total cpu time spent up to now is        1.3 secs

     total energy              =     -39.48213342 Ry
     Harris-Foulkes estimate   =     -39.48213353 Ry
     estimated scf accuracy    <       0.00000042 Ry

     iteration #  4     ecut=    25.00 Ry     beta= 0.70
     Davidson diagonalization with overlap
     ethr =  1.41E-08,  avg # of iterations =  3.9

     total cpu time spent up to now is        1.5 secs

     total energy              =     -39.48213487 Ry
     Harris-Foulkes estimate   =     -39.48213489 Ry
     estimated scf accuracy    <       0.00000002 Ry

     iteration #  5     ecut=    25.00 Ry     beta= 0.70
     Davidson diagonalization with overlap
     ethr =  7.45E-10,  avg # of iterations =  1.4

     total cpu time spent up to now is        1.6 secs

     End of self-consistent calculation

          k = 0.0000 0.0000 0.0000 (   259 PWs)   bands (ev):

    -3.2458  20.4398  20.4398  21.8974  21.8974  21.8974

          k =-0.2500 0.2500-0.2500 (   238 PWs)   bands (ev):

    -1.5611  11.2881  18.7269  18.7269  22.1832  22.5572

          k = 0.5000-0.5000 0.5000 (   242 PWs)   bands (ev):

     3.2809   3.4850  19.2164  19.2164  19.2869  19.2869

          k = 0.0000 0.5000 0.0000 (   234 PWs)   bands (ev):

    -1.0041  15.3339  15.3508  15.3508  16.0937  18.8111

          k = 0.7500-0.2500 0.7500 (   236 PWs)   bands (ev):

     2.8282   7.1042  11.5021  14.8805  16.5632  23.8955

          k = 0.5000 0.0000 0.5000 (   238 PWs)   bands (ev):

     1.2027   9.0971  10.5953  17.3032  19.2691  24.7950

          k = 0.0000-1.0000 0.0000 (   230 PWs)   bands (ev):

     4.9458   6.2552  13.1182  13.4332  13.4332  16.8686

          k =-0.5000-1.0000 0.0000 (   224 PWs)   bands (ev):

     7.0183   7.0183   8.0317   8.9392  23.6449  23.6449

     the Fermi energy is     7.1889 ev

!    total energy              =     -39.48213487 Ry
     Harris-Foulkes estimate   =     -39.48213487 Ry
     estimated scf accuracy    <          3.2E-10 Ry

     total all-electron energy =      -485.624915 Ry

     The total energy is the sum of the following terms:

     one-electron contribution =       3.17316773 Ry
     hartree contribution      =       0.00729273 Ry
     xc contribution           =      -2.58874428 Ry
     ewald contribution        =      -5.39395546 Ry
     one-center paw contrib.   =     -34.67824019 Ry
     smearing contrib. (-TS)   =      -0.00165540 Ry

     convergence has been achieved in   5 iterations

     Forces acting on atoms (cartesian axes, Ry/au):

     atom    1 type  1   force =     0.00000000    0.00000000    0.00000000

     Total force =     0.000000     Total SCF correction =     0.000000


     Computing stress (Cartesian axis) and pressure

          total   stress  (Ry/bohr**3)                   (kbar)     P=    3.36
   0.00002286   0.00000000  -0.00000000          3.36      0.00     -0.00
   0.00000000   0.00002286   0.00000000          0.00      3.36      0.00
   0.00000000   0.00000000   0.00002286          0.00      0.00      3.36


     Writing output data file Al.save/

     init_run     :      0.20s CPU      0.21s WALL (       1 calls)
     electrons    :      0.64s CPU      0.72s WALL (       1 calls)
     forces       :      0.01s CPU      0.01s WALL (       1 calls)
     stress       :      0.03s CPU      0.03s WALL (       1 calls)

     Called by init_run:
     wfcinit      :      0.00s CPU      0.01s WALL (       1 calls)
     potinit      :      0.10s CPU      0.10s WALL (       1 calls)
     hinit0       :      0.08s CPU      0.08s WALL (       1 calls)

     Called by electrons:
     c_bands      :      0.10s CPU      0.11s WALL (       6 calls)
     sum_band     :      0.04s CPU      0.04s WALL (       6 calls)
     v_of_rho     :      0.01s CPU      0.01s WALL (       6 calls)
     newd         :      0.01s CPU      0.01s WALL (       6 calls)
     PAW_pot      :      0.56s CPU      0.64s WALL (       6 calls)
     mix_rho      :      0.00s CPU      0.00s WALL (       6 calls)

     Called by c_bands:
     init_us_2    :      0.00s CPU      0.00s WALL (     120 calls)
     cegterg      :      0.09s CPU      0.10s WALL (      48 calls)

     Called by sum_band:
     sum_band:bec :      0.00s CPU      0.00s WALL (      48 calls)
     addusdens    :      0.01s CPU      0.01s WALL (       6 calls)

     Called by *egterg:
     h_psi        :      0.07s CPU      0.08s WALL (     169 calls)
     s_psi        :      0.00s CPU      0.00s WALL (     169 calls)
     g_psi        :      0.00s CPU      0.00s WALL (     113 calls)
     cdiaghg      :      0.01s CPU      0.01s WALL (     153 calls)

     Called by h_psi:
     h_psi:pot    :      0.07s CPU      0.08s WALL (     169 calls)
     h_psi:calbec :      0.00s CPU      0.00s WALL (     169 calls)
     vloc_psi     :      0.06s CPU      0.07s WALL (     169 calls)
     add_vuspsi   :      0.00s CPU      0.00s WALL (     169 calls)

     General routines
     calbec       :      0.01s CPU      0.01s WALL (     257 calls)
     fft          :      0.01s CPU      0.01s WALL (      93 calls)
     ffts         :      0.00s CPU      0.00s WALL (       6 calls)
     fftw         :      0.07s CPU      0.08s WALL (    1816 calls)

     Parallel routines
     fft_scatt_xy :      0.01s CPU      0.01s WALL (    1915 calls)
     fft_scatt_yz :      0.03s CPU      0.04s WALL (    1915 calls)

     PWSCF        :     1.57s CPU         1.70s WALL


   This run was terminated on:  19:56:37  25Mar2024            

=------------------------------------------------------------------------------=
   JOB DONE.
=------------------------------------------------------------------------------=
