
     Program PWSCF v.6.3MaX starts on 25Mar2024 at 19:52:40 

     This program is part of the open-source Quantum ESPRESSO suite
     for quantum simulation of materials; please cite
         "P. Giannozzi et al., J. Phys.:Condens. Matter 21 395502 (2009);
         "P. Giannozzi et al., J. Phys.:Condens. Matter 29 465901 (2017);
          URL http://www.quantum-espresso.org", 
     in publications or presentations arising from this work. More details at
     http://www.quantum-espresso.org/quote

     Parallel version (MPI), running on     5 processors

     MPI processes distributed on     1 nodes
     R & G space division:  proc/nbgrp/npool/nimage =       5
     Waiting for input...
     Reading input from standard input

     Current dimensions of program PWSCF are:
     Max number of different atomic species (ntypx) = 10
     Max number of k-points (npk) =  40000
     Max angular momentum in pseudopotentials (lmaxx) =  3

     Subspace diagonalization in iterative solution of the eigenvalue problem:
     a serial algorithm will be used


     Parallelization info
     --------------------
     sticks:   dense  smooth     PW     G-vecs:    dense   smooth      PW
     Min         161     161     48                 3017     3017     488
     Max         161     161     49                 3018     3018     491
     Sum         805     805    241                15089    15089    2445



     bravais-lattice index     =            2
     lattice parameter (alat)  =       7.6500  a.u.
     unit-cell volume          =     111.9243 (a.u.)^3
     number of atoms/cell      =            1
     number of atomic types    =            1
     number of electrons       =         3.00
     number of Kohn-Sham states=            6
     kinetic-energy cutoff     =     100.0000  Ry
     charge density cutoff     =     400.0000  Ry
     convergence threshold     =      1.0E-08
     mixing beta               =       0.7000
     number of iterations used =            8  plain     mixing
     Exchange-correlation      = PBE ( 1  4  3  4 0 0)

     celldm(1)=   7.650000  celldm(2)=   0.000000  celldm(3)=   0.000000
     celldm(4)=   0.000000  celldm(5)=   0.000000  celldm(6)=   0.000000

     crystal axes: (cart. coord. in units of alat)
               a(1) = (  -0.500000   0.000000   0.500000 )  
               a(2) = (   0.000000   0.500000   0.500000 )  
               a(3) = (  -0.500000   0.500000   0.000000 )  

     reciprocal axes: (cart. coord. in units 2 pi/alat)
               b(1) = ( -1.000000 -1.000000  1.000000 )  
               b(2) = (  1.000000  1.000000  1.000000 )  
               b(3) = ( -1.000000  1.000000 -1.000000 )  


     PseudoPot. # 1 for Al read from file:
     /home/lorenzo/pseudos/Al/Al.pbe-nl-rrkjus_psl.1.0.0.UPF
     MD5 check sum: 6db8691240a1c860ce6448702d298c4b
     Pseudo is Ultrasoft + core correction, Zval =  3.0
     Generated using "atomic" code by A. Dal Corso v.6.3
     Using radial grid of 1135 points,  4 beta functions with: 
                l(1) =   0
                l(2) =   0
                l(3) =   1
                l(4) =   1
     Q(r) pseudized with 0 coefficients 


     atomic species   valence    mass     pseudopotential
        Al             3.00    26.98150     Al( 1.00)

     48 Sym. Ops., with inversion, found



   Cartesian axes

     site n.     atom                  positions (alat units)
         1           Al  tau(   1) = (   0.0000000   0.0000000   0.0000000  )

     number of k points=    10  gaussian smearing, width (Ry)=  0.0100
                       cart. coord. in units 2pi/alat
        k(    1) = (   0.0000000   0.0000000   0.0000000), wk =   0.0160000
        k(    2) = (  -0.2000000   0.2000000  -0.2000000), wk =   0.1280000
        k(    3) = (  -0.4000000   0.4000000  -0.4000000), wk =   0.1280000
        k(    4) = (   0.0000000   0.4000000   0.0000000), wk =   0.0960000
        k(    5) = (  -0.2000000   0.6000000  -0.2000000), wk =   0.3840000
        k(    6) = (   0.6000000  -0.2000000   0.6000000), wk =   0.3840000
        k(    7) = (   0.4000000   0.0000000   0.4000000), wk =   0.1920000
        k(    8) = (   0.0000000   0.8000000   0.0000000), wk =   0.0960000
        k(    9) = (   0.8000000   0.0000000   0.8000000), wk =   0.1920000
        k(   10) = (   0.6000000  -0.2000000   1.0000000), wk =   0.3840000

     Dense  grid:    15089 G-vectors     FFT dimensions: (  36,  36,  36)

     Estimated max dynamical RAM per process >       5.25 MB

     Estimated total dynamical RAM >      26.27 MB

     Initial potential from superposition of free atoms

     starting charge    2.99771, renormalised to    3.00000
     Starting wfcs are    4 randomized atomic wfcs +    2 random wfcs

     total cpu time spent up to now is        0.5 secs

     Self-consistent Calculation

     iteration #  1     ecut=   100.00 Ry     beta= 0.70
     Davidson diagonalization with overlap
     ethr =  1.00E-02,  avg # of iterations =  5.2

     Threshold (ethr) on eigenvalues was too large:
     Diagonalizing with lowered threshold

     Davidson diagonalization with overlap
     ethr =  1.71E-04,  avg # of iterations =  1.8

     total cpu time spent up to now is        0.9 secs

     total energy              =      -5.03491548 Ry
     Harris-Foulkes estimate   =      -5.03619676 Ry
     estimated scf accuracy    <       0.00508309 Ry

     iteration #  2     ecut=   100.00 Ry     beta= 0.70
     Davidson diagonalization with overlap
     ethr =  1.69E-04,  avg # of iterations =  1.1

     total cpu time spent up to now is        1.0 secs

     total energy              =      -5.03489638 Ry
     Harris-Foulkes estimate   =      -5.03498116 Ry
     estimated scf accuracy    <       0.00035877 Ry

     iteration #  3     ecut=   100.00 Ry     beta= 0.70
     Davidson diagonalization with overlap
     ethr =  1.20E-05,  avg # of iterations =  2.2

     total cpu time spent up to now is        1.1 secs

     total energy              =      -5.03491399 Ry
     Harris-Foulkes estimate   =      -5.03491401 Ry
     estimated scf accuracy    <       0.00000125 Ry

     iteration #  4     ecut=   100.00 Ry     beta= 0.70
     Davidson diagonalization with overlap
     ethr =  4.16E-08,  avg # of iterations =  2.9

     total cpu time spent up to now is        1.2 secs

     total energy              =      -5.03491565 Ry
     Harris-Foulkes estimate   =      -5.03491564 Ry
     estimated scf accuracy    <       0.00000006 Ry

     iteration #  5     ecut=   100.00 Ry     beta= 0.70
     Davidson diagonalization with overlap
     ethr =  2.00E-09,  avg # of iterations =  1.1

     total cpu time spent up to now is        1.3 secs

     End of self-consistent calculation

          k = 0.0000 0.0000 0.0000 (  1917 PWs)   bands (ev):

    -3.2505  20.4390  20.4390  21.8763  21.8763  21.8763

          k =-0.2000 0.2000-0.2000 (  1901 PWs)   bands (ev):

    -2.1704  13.1704  18.9470  18.9470  22.2748  23.4235

          k =-0.4000 0.4000-0.4000 (  1889 PWs)   bands (ev):

     1.0227   6.2096  18.6907  18.6907  20.2462  20.2463

          k = 0.0000 0.4000 0.0000 (  1916 PWs)   bands (ev):

    -1.8121  16.1839  16.1839  16.2820  18.5654  19.5586

          k =-0.2000 0.6000-0.2000 (  1884 PWs)   bands (ev):

     0.6701   9.2066  14.3791  15.2712  16.9350  22.7944

          k = 0.6000-0.2000 0.6000 (  1901 PWs)   bands (ev):

     3.4523   5.1743  12.1051  16.2089  18.0571  23.9873

          k = 0.4000 0.0000 0.4000 (  1895 PWs)   bands (ev):

    -0.3879  10.9231  12.3904  18.9857  21.0047  23.2260

          k = 0.0000 0.8000 0.0000 (  1884 PWs)   bands (ev):

     2.4053   9.4121  13.4712  13.7266  13.7266  17.1944

          k = 0.8000 0.0000 0.8000 (  1876 PWs)   bands (ev):

     5.5998   6.9091   7.9331  14.0386  15.5958  21.6702

          k = 0.6000-0.2000 1.0000 (  1880 PWs)   bands (ev):

     3.7860   8.2592   9.6573  10.8954  21.5636  22.9204

     the Fermi energy is     8.2008 ev

!    total energy              =      -5.03491565 Ry
     Harris-Foulkes estimate   =      -5.03491565 Ry
     estimated scf accuracy    <          3.3E-09 Ry

     The total energy is the sum of the following terms:

     one-electron contribution =       2.94292317 Ry
     hartree contribution      =       0.00584237 Ry
     xc contribution           =      -2.58881312 Ry
     ewald contribution        =      -5.39395538 Ry
     smearing contrib. (-TS)   =      -0.00091269 Ry

     convergence has been achieved in   5 iterations

     Forces acting on atoms (cartesian axes, Ry/au):

     atom    1 type  1   force =     0.00000000    0.00000000    0.00000000

     Total force =     0.000000     Total SCF correction =     0.000000


     Computing stress (Cartesian axis) and pressure

          total   stress  (Ry/bohr**3)                   (kbar)     P=   13.98
   0.00009507  -0.00000000  -0.00000000         13.98     -0.00     -0.00
  -0.00000000   0.00009507   0.00000000         -0.00     13.98      0.00
  -0.00000000   0.00000000   0.00009507         -0.00      0.00     13.98


     Writing output data file Al.save/

     init_run     :      0.17s CPU      0.18s WALL (       1 calls)
     electrons    :      0.74s CPU      0.78s WALL (       1 calls)
     forces       :      0.04s CPU      0.04s WALL (       1 calls)
     stress       :      0.08s CPU      0.09s WALL (       1 calls)

     Called by init_run:
     wfcinit      :      0.03s CPU      0.03s WALL (       1 calls)
     potinit      :      0.02s CPU      0.02s WALL (       1 calls)
     hinit0       :      0.11s CPU      0.11s WALL (       1 calls)

     Called by electrons:
     c_bands      :      0.54s CPU      0.57s WALL (       6 calls)
     sum_band     :      0.13s CPU      0.13s WALL (       6 calls)
     v_of_rho     :      0.06s CPU      0.06s WALL (       6 calls)
     newd         :      0.02s CPU      0.02s WALL (       6 calls)
     mix_rho      :      0.00s CPU      0.00s WALL (       6 calls)

     Called by c_bands:
     init_us_2    :      0.02s CPU      0.02s WALL (     150 calls)
     cegterg      :      0.53s CPU      0.55s WALL (      60 calls)

     Called by sum_band:
     sum_band:bec :      0.00s CPU      0.00s WALL (      60 calls)
     addusdens    :      0.02s CPU      0.02s WALL (       6 calls)

     Called by *egterg:
     h_psi        :      0.46s CPU      0.48s WALL (     213 calls)
     s_psi        :      0.01s CPU      0.01s WALL (     213 calls)
     g_psi        :      0.00s CPU      0.00s WALL (     143 calls)
     cdiaghg      :      0.02s CPU      0.03s WALL (     193 calls)

     Called by h_psi:
     h_psi:pot    :      0.46s CPU      0.48s WALL (     213 calls)
     h_psi:calbec :      0.02s CPU      0.02s WALL (     213 calls)
     vloc_psi     :      0.43s CPU      0.46s WALL (     213 calls)
     add_vuspsi   :      0.01s CPU      0.01s WALL (     213 calls)

     General routines
     calbec       :      0.03s CPU      0.03s WALL (     323 calls)
     fft          :      0.04s CPU      0.04s WALL (      93 calls)
     ffts         :      0.00s CPU      0.00s WALL (       6 calls)
     fftw         :      0.48s CPU      0.51s WALL (    2316 calls)

     Parallel routines
     fft_scatt_xy :      0.04s CPU      0.04s WALL (    2415 calls)
     fft_scatt_yz :      0.14s CPU      0.15s WALL (    2415 calls)

     PWSCF        :     1.42s CPU         1.50s WALL


   This run was terminated on:  19:52:42  25Mar2024            

=------------------------------------------------------------------------------=
   JOB DONE.
=------------------------------------------------------------------------------=
