
     Program PWSCF v.6.3MaX starts on 25Mar2024 at 20: 9:25 

     This program is part of the open-source Quantum ESPRESSO suite
     for quantum simulation of materials; please cite
         "P. Giannozzi et al., J. Phys.:Condens. Matter 21 395502 (2009);
         "P. Giannozzi et al., J. Phys.:Condens. Matter 29 465901 (2017);
          URL http://www.quantum-espresso.org", 
     in publications or presentations arising from this work. More details at
     http://www.quantum-espresso.org/quote

     Parallel version (MPI), running on     5 processors

     MPI processes distributed on     1 nodes
     R & G space division:  proc/nbgrp/npool/nimage =       5
     Waiting for input...
     Reading input from standard input

     Current dimensions of program PWSCF are:
     Max number of different atomic species (ntypx) = 10
     Max number of k-points (npk) =  40000
     Max angular momentum in pseudopotentials (lmaxx) =  3
               file Al.pbe-nl-kjpaw_psl.1.0.0.UPF: wavefunction(s)  3S 3P renormalized

     Subspace diagonalization in iterative solution of the eigenvalue problem:
     a serial algorithm will be used


     Parallelization info
     --------------------
     sticks:   dense  smooth     PW     G-vecs:    dense   smooth      PW
     Min         119     119     39                 1967     1967     351
     Max         119     119     40                 1969     1969     352
     Sum         595     595    199                 9841     9841    1759



     bravais-lattice index     =            2
     lattice parameter (alat)  =       7.6500  a.u.
     unit-cell volume          =     111.9243 (a.u.)^3
     number of atoms/cell      =            1
     number of atomic types    =            1
     number of electrons       =         3.00
     number of Kohn-Sham states=            6
     kinetic-energy cutoff     =      75.0000  Ry
     charge density cutoff     =     300.0000  Ry
     convergence threshold     =      1.0E-08
     mixing beta               =       0.7000
     number of iterations used =            8  plain     mixing
     Exchange-correlation      = SLA PW PBX PBC ( 1  4  3  4 0 0)

     celldm(1)=   7.650000  celldm(2)=   0.000000  celldm(3)=   0.000000
     celldm(4)=   0.000000  celldm(5)=   0.000000  celldm(6)=   0.000000

     crystal axes: (cart. coord. in units of alat)
               a(1) = (  -0.500000   0.000000   0.500000 )  
               a(2) = (   0.000000   0.500000   0.500000 )  
               a(3) = (  -0.500000   0.500000   0.000000 )  

     reciprocal axes: (cart. coord. in units 2 pi/alat)
               b(1) = ( -1.000000 -1.000000  1.000000 )  
               b(2) = (  1.000000  1.000000  1.000000 )  
               b(3) = ( -1.000000  1.000000 -1.000000 )  


     PseudoPot. # 1 for Al read from file:
     /home/lorenzo/pseudos/Al/Al.pbe-nl-kjpaw_psl.1.0.0.UPF
     MD5 check sum: 8cf6d98cc7ef3f4b729b574060f3a10f
     Pseudo is Projector augmented-wave + core cor, Zval =  3.0
     Generated using "atomic" code by A. Dal Corso v.6.3
     Shape of augmentation charge: PSQ
     Using radial grid of 1135 points,  4 beta functions with: 
                l(1) =   0
                l(2) =   0
                l(3) =   1
                l(4) =   1
     Q(r) pseudized with 0 coefficients 


     atomic species   valence    mass     pseudopotential
        Al             3.00    26.98150     Al( 1.00)

     48 Sym. Ops., with inversion, found



   Cartesian axes

     site n.     atom                  positions (alat units)
         1           Al  tau(   1) = (   0.0000000   0.0000000   0.0000000  )

     number of k points=    35  gaussian smearing, width (Ry)=  0.0100
                       cart. coord. in units 2pi/alat
        k(    1) = (   0.0000000   0.0000000   0.0000000), wk =   0.0027435
        k(    2) = (  -0.1111111   0.1111111  -0.1111111), wk =   0.0219479
        k(    3) = (  -0.2222222   0.2222222  -0.2222222), wk =   0.0219479
        k(    4) = (  -0.3333333   0.3333333  -0.3333333), wk =   0.0219479
        k(    5) = (  -0.4444444   0.4444444  -0.4444444), wk =   0.0219479
        k(    6) = (   0.0000000   0.2222222   0.0000000), wk =   0.0164609
        k(    7) = (  -0.1111111   0.3333333  -0.1111111), wk =   0.0658436
        k(    8) = (  -0.2222222   0.4444444  -0.2222222), wk =   0.0658436
        k(    9) = (  -0.3333333   0.5555556  -0.3333333), wk =   0.0658436
        k(   10) = (   0.5555556  -0.3333333   0.5555556), wk =   0.0658436
        k(   11) = (   0.4444444  -0.2222222   0.4444444), wk =   0.0658436
        k(   12) = (   0.3333333  -0.1111111   0.3333333), wk =   0.0658436
        k(   13) = (   0.2222222  -0.0000000   0.2222222), wk =   0.0329218
        k(   14) = (   0.0000000   0.4444444   0.0000000), wk =   0.0164609
        k(   15) = (  -0.1111111   0.5555556  -0.1111111), wk =   0.0658436
        k(   16) = (  -0.2222222   0.6666667  -0.2222222), wk =   0.0658436
        k(   17) = (   0.6666667  -0.2222222   0.6666667), wk =   0.0658436
        k(   18) = (   0.5555556  -0.1111111   0.5555556), wk =   0.0658436
        k(   19) = (   0.4444444   0.0000000   0.4444444), wk =   0.0329218
        k(   20) = (   0.0000000   0.6666667   0.0000000), wk =   0.0164609
        k(   21) = (  -0.1111111   0.7777778  -0.1111111), wk =   0.0658436
        k(   22) = (   0.7777778  -0.1111111   0.7777778), wk =   0.0658436
        k(   23) = (   0.6666667  -0.0000000   0.6666667), wk =   0.0329218
        k(   24) = (   0.0000000   0.8888889   0.0000000), wk =   0.0164609
        k(   25) = (   0.8888889   0.0000000   0.8888889), wk =   0.0329218
        k(   26) = (  -0.2222222   0.4444444   0.0000000), wk =   0.0658436
        k(   27) = (  -0.3333333   0.5555556  -0.1111111), wk =   0.1316872
        k(   28) = (   0.5555556  -0.3333333   0.7777778), wk =   0.1316872
        k(   29) = (  -0.2222222   0.6666667   0.0000000), wk =   0.0658436
        k(   30) = (   0.6666667  -0.2222222   0.8888889), wk =   0.1316872
        k(   31) = (   0.5555556  -0.1111111   0.7777778), wk =   0.1316872
        k(   32) = (   0.4444444   0.0000000   0.6666667), wk =   0.0658436
        k(   33) = (   0.7777778  -0.1111111   1.0000000), wk =   0.0658436
        k(   34) = (   0.6666667  -0.0000000   0.8888889), wk =   0.0658436
        k(   35) = (   0.5555556  -0.1111111   1.0000000), wk =   0.0658436

     Dense  grid:     9841 G-vectors     FFT dimensions: (  30,  30,  30)

     Estimated max dynamical RAM per process >       4.01 MB

     Estimated total dynamical RAM >      20.06 MB

     Initial potential from superposition of free atoms

     starting charge    2.99771, renormalised to    3.00000
     Starting wfcs are    4 randomized atomic wfcs +    2 random wfcs
     Checking if some PAW data can be deallocated... 

     total cpu time spent up to now is        0.7 secs

     Self-consistent Calculation

     iteration #  1     ecut=    75.00 Ry     beta= 0.70
     Davidson diagonalization with overlap
     ethr =  1.00E-02,  avg # of iterations =  4.9

     Threshold (ethr) on eigenvalues was too large:
     Diagonalizing with lowered threshold

     Davidson diagonalization with overlap
     ethr =  1.91E-04,  avg # of iterations =  2.2

     total cpu time spent up to now is        1.5 secs

     total energy              =     -39.50067510 Ry
     Harris-Foulkes estimate   =     -39.50213844 Ry
     estimated scf accuracy    <       0.00565547 Ry

     iteration #  2     ecut=    75.00 Ry     beta= 0.70
     Davidson diagonalization with overlap
     ethr =  1.89E-04,  avg # of iterations =  1.0

     total cpu time spent up to now is        1.8 secs

     total energy              =     -39.50066731 Ry
     Harris-Foulkes estimate   =     -39.50076194 Ry
     estimated scf accuracy    <       0.00039547 Ry

     iteration #  3     ecut=    75.00 Ry     beta= 0.70
     Davidson diagonalization with overlap
     ethr =  1.32E-05,  avg # of iterations =  1.9

     total cpu time spent up to now is        2.1 secs

     total energy              =     -39.50068834 Ry
     Harris-Foulkes estimate   =     -39.50068898 Ry
     estimated scf accuracy    <       0.00000151 Ry

     iteration #  4     ecut=    75.00 Ry     beta= 0.70
     Davidson diagonalization with overlap
     ethr =  5.04E-08,  avg # of iterations =  3.1

     total cpu time spent up to now is        2.5 secs

     total energy              =     -39.50069054 Ry
     Harris-Foulkes estimate   =     -39.50069052 Ry
     estimated scf accuracy    <       0.00000013 Ry

     iteration #  5     ecut=    75.00 Ry     beta= 0.70
     Davidson diagonalization with overlap
     ethr =  4.25E-09,  avg # of iterations =  1.1

     total cpu time spent up to now is        2.7 secs

     total energy              =     -39.50069052 Ry
     Harris-Foulkes estimate   =     -39.50069055 Ry
     estimated scf accuracy    <       0.00000005 Ry

     iteration #  6     ecut=    75.00 Ry     beta= 0.70
     Davidson diagonalization with overlap
     ethr =  1.65E-09,  avg # of iterations =  1.0

     total cpu time spent up to now is        3.0 secs

     End of self-consistent calculation

          k = 0.0000 0.0000 0.0000 (  1243 PWs)   bands (ev):

    -3.2515  20.4393  20.4394  21.8767  21.8768  21.8768

          k =-0.1111 0.1111-0.1111 (  1242 PWs)   bands (ev):

    -2.9173  16.7045  19.6057  19.6057  22.5380  23.1958

          k =-0.2222 0.2222-0.2222 (  1233 PWs)   bands (ev):

    -1.9190  12.3210  18.8321  18.8321  22.2131  23.0427

          k =-0.3333 0.3333-0.3333 (  1236 PWs)   bands (ev):

    -0.2704   8.3470  18.5783  18.5783  21.1608  21.1608

          k =-0.4444 0.4444-0.4444 (  1215 PWs)   bands (ev):

     2.0065   4.8964  18.8782  18.8782  19.7463  19.7463

          k = 0.0000 0.2222 0.0000 (  1247 PWs)   bands (ev):

    -2.8060  18.0479  18.0479  18.3333  20.9337  23.1555

          k =-0.1111 0.3333-0.1111 (  1237 PWs)   bands (ev):

    -2.0296  13.9609  17.0252  18.4894  20.3887  21.8948

          k =-0.2222 0.4444-0.2222 (  1233 PWs)   bands (ev):

    -0.5987   9.8766  16.5643  18.0991  18.2951  24.2391

          k =-0.3333 0.5556-0.3333 (  1225 PWs)   bands (ev):

     1.4673   6.2607  16.5037  16.6700  18.3853  22.7027

          k = 0.5556-0.3333 0.5556 (  1218 PWs)   bands (ev):

     3.1775   4.1599  15.4143  17.3445  19.1239  21.6708

          k = 0.4444-0.2222 0.4444 (  1228 PWs)   bands (ev):

     0.7098   7.4027  14.9203  18.5836  20.4389  21.1875

          k = 0.3333-0.1111 0.3333 (  1226 PWs)   bands (ev):

    -1.1474  11.1667  15.0443  20.3376  21.2610  22.2780

          k = 0.2222-0.0000 0.2222 (  1237 PWs)   bands (ev):

    -2.3618  14.9851  16.1334  21.3037  22.1228  23.3237

          k = 0.0000 0.4444 0.0000 (  1235 PWs)   bands (ev):

    -1.4776  15.7911  15.7911  15.8386  17.4513  19.2113

          k =-0.1111 0.5556-0.1111 (  1242 PWs)   bands (ev):

    -0.2709  11.9287  14.9570  15.1303  16.5773  20.2205

          k =-0.2222 0.6667-0.2222 (  1226 PWs)   bands (ev):

     1.5730   8.2174  13.0478  15.0412  16.7126  23.2283

          k = 0.6667-0.2222 0.6667 (  1228 PWs)   bands (ev):

     4.0141   5.0063  11.7376  15.5234  17.3030  25.0089

          k = 0.5556-0.1111 0.5556 (  1226 PWs)   bands (ev):

     2.3278   7.0372  11.0782  16.5775  18.4760  24.3525

          k = 0.4444 0.0000 0.4444 (  1231 PWs)   bands (ev):

     0.2749  10.0694  11.5568  18.1990  20.1992  23.8734

          k = 0.0000 0.6667 0.0000 (  1242 PWs)   bands (ev):

     0.7074  12.2189  14.1038  14.2739  14.2739  17.7575

          k =-0.1111 0.7778-0.1111 (  1228 PWs)   bands (ev):

     2.3183  10.0328  10.7465  13.9910  15.3272  19.1233

          k = 0.7778-0.1111 0.7778 (  1228 PWs)   bands (ev):

     4.5107   7.3579   8.6103  14.2800  15.8860  22.5490

          k = 0.6667-0.0000 0.6667 (  1220 PWs)   bands (ev):

     4.5561   6.7822   8.2374  15.1417  16.9046  26.4508

          k = 0.0000 0.8889 0.0000 (  1222 PWs)   bands (ev):

     3.6688   7.7162  13.2268  13.5153  13.5153  16.9650

          k = 0.8889 0.0000 0.8889 (  1224 PWs)   bands (ev):

     5.1430   6.4678  10.3049  13.6115  14.9040  18.7425

          k =-0.2222 0.4444 0.0000 (  1240 PWs)   bands (ev):

    -1.0375  12.5361  13.8742  17.8350  19.8522  21.6279

          k =-0.3333 0.5556-0.1111 (  1230 PWs)   bands (ev):

     0.6007   9.1095  13.0762  15.7694  20.2892  22.9734

          k = 0.5556-0.3333 0.7778 (  1225 PWs)   bands (ev):

     2.8609   5.7272  13.3082  14.2989  20.6673  21.6653

          k =-0.2222 0.6667 0.0000 (  1238 PWs)   bands (ev):

     1.1408  10.8936  12.1464  12.8094  18.2926  20.3225

          k = 0.6667-0.2222 0.8889 (  1224 PWs)   bands (ev):

     3.1732   7.8599  10.8639  11.9575  19.1785  22.9974

          k = 0.5556-0.1111 0.7778 (  1223 PWs)   bands (ev):

     4.8565   5.7948   9.8269  12.5799  19.9923  24.1983

          k = 0.4444 0.0000 0.6667 (  1225 PWs)   bands (ev):

     2.4333   8.4250   9.9050  13.8771  21.2746  23.1352

          k = 0.7778-0.1111 1.0000 (  1220 PWs)   bands (ev):

     4.0909   8.1268  10.0708  11.5390  17.4904  19.6023

          k = 0.6667-0.0000 0.8889 (  1210 PWs)   bands (ev):

     5.9621   7.1574   7.6393  11.5069  18.7893  22.6842

          k = 0.5556-0.1111 1.0000 (  1217 PWs)   bands (ev):

     5.3487   7.6034   8.8592   9.6732  22.3823  23.3948

     the Fermi energy is     7.8203 ev

!    total energy              =     -39.50069053 Ry
     Harris-Foulkes estimate   =     -39.50069053 Ry
     estimated scf accuracy    <          1.9E-10 Ry

     total all-electron energy =      -485.643471 Ry

     The total energy is the sum of the following terms:

     one-electron contribution =       3.15293336 Ry
     hartree contribution      =       0.00630204 Ry
     xc contribution           =      -2.58833312 Ry
     ewald contribution        =      -5.39395538 Ry
     one-center paw contrib.   =     -34.67722277 Ry
     smearing contrib. (-TS)   =      -0.00041466 Ry

     convergence has been achieved in   6 iterations

     Forces acting on atoms (cartesian axes, Ry/au):

     atom    1 type  1   force =     0.00000000    0.00000000    0.00000000

     Total force =     0.000000     Total SCF correction =     0.000000


     Computing stress (Cartesian axis) and pressure

          total   stress  (Ry/bohr**3)                   (kbar)     P=   -1.69
  -0.00001150  -0.00000000   0.00000000         -1.69     -0.00      0.00
  -0.00000000  -0.00001150   0.00000000         -0.00     -1.69      0.00
   0.00000000   0.00000000  -0.00001150          0.00      0.00     -1.69


     Writing output data file Al.save/

     init_run     :      0.23s CPU      0.25s WALL (       1 calls)
     electrons    :      2.18s CPU      2.31s WALL (       1 calls)
     forces       :      0.05s CPU      0.05s WALL (       1 calls)
     stress       :      0.11s CPU      0.11s WALL (       1 calls)

     Called by init_run:
     wfcinit      :      0.08s CPU      0.09s WALL (       1 calls)
     potinit      :      0.04s CPU      0.04s WALL (       1 calls)
     hinit0       :      0.10s CPU      0.10s WALL (       1 calls)

     Called by electrons:
     c_bands      :      1.66s CPU      1.72s WALL (       7 calls)
     sum_band     :      0.31s CPU      0.32s WALL (       7 calls)
     v_of_rho     :      0.04s CPU      0.04s WALL (       7 calls)
     newd         :      0.02s CPU      0.02s WALL (       7 calls)
     PAW_pot      :      0.18s CPU      0.23s WALL (       7 calls)
     mix_rho      :      0.00s CPU      0.00s WALL (       7 calls)

     Called by c_bands:
     init_us_2    :      0.05s CPU      0.05s WALL (     595 calls)
     cegterg      :      1.60s CPU      1.66s WALL (     245 calls)

     Called by sum_band:
     sum_band:bec :      0.00s CPU      0.00s WALL (     245 calls)
     addusdens    :      0.01s CPU      0.01s WALL (       7 calls)

     Called by *egterg:
     h_psi        :      1.35s CPU      1.41s WALL (     814 calls)
     s_psi        :      0.02s CPU      0.02s WALL (     814 calls)
     g_psi        :      0.00s CPU      0.00s WALL (     534 calls)
     cdiaghg      :      0.09s CPU      0.09s WALL (     744 calls)

     Called by h_psi:
     h_psi:pot    :      1.35s CPU      1.40s WALL (     814 calls)
     h_psi:calbec :      0.06s CPU      0.06s WALL (     814 calls)
     vloc_psi     :      1.26s CPU      1.31s WALL (     814 calls)
     add_vuspsi   :      0.02s CPU      0.02s WALL (     814 calls)

     General routines
     calbec       :      0.09s CPU      0.10s WALL (    1234 calls)
     fft          :      0.03s CPU      0.03s WALL (     104 calls)
     ffts         :      0.00s CPU      0.00s WALL (       7 calls)
     fftw         :      1.41s CPU      1.47s WALL (    9142 calls)

     Parallel routines
     fft_scatt_xy :      0.10s CPU      0.11s WALL (    9253 calls)
     fft_scatt_yz :      0.57s CPU      0.59s WALL (    9253 calls)

     PWSCF        :     3.04s CPU         3.24s WALL


   This run was terminated on:  20: 9:28  25Mar2024            

=------------------------------------------------------------------------------=
   JOB DONE.
=------------------------------------------------------------------------------=
