
     Program PWSCF v.6.3MaX starts on 25Mar2024 at 20: 2:24 

     This program is part of the open-source Quantum ESPRESSO suite
     for quantum simulation of materials; please cite
         "P. Giannozzi et al., J. Phys.:Condens. Matter 21 395502 (2009);
         "P. Giannozzi et al., J. Phys.:Condens. Matter 29 465901 (2017);
          URL http://www.quantum-espresso.org", 
     in publications or presentations arising from this work. More details at
     http://www.quantum-espresso.org/quote

     Parallel version (MPI), running on     5 processors

     MPI processes distributed on     1 nodes
     R & G space division:  proc/nbgrp/npool/nimage =       5
     Waiting for input...
     Reading input from standard input

     Current dimensions of program PWSCF are:
     Max number of different atomic species (ntypx) = 10
     Max number of k-points (npk) =  40000
     Max angular momentum in pseudopotentials (lmaxx) =  3
               file Al.pbe-nl-kjpaw_psl.1.0.0.UPF: wavefunction(s)  3S 3P renormalized

     Subspace diagonalization in iterative solution of the eigenvalue problem:
     a serial algorithm will be used


     Parallelization info
     --------------------
     sticks:   dense  smooth     PW     G-vecs:    dense   smooth      PW
     Min          81      81     25                 1065     1065     192
     Max          82      82     26                 1066     1066     195
     Sum         409     409    127                 5329     5329     965



     bravais-lattice index     =            2
     lattice parameter (alat)  =       7.6500  a.u.
     unit-cell volume          =     111.9243 (a.u.)^3
     number of atoms/cell      =            1
     number of atomic types    =            1
     number of electrons       =         3.00
     number of Kohn-Sham states=            6
     kinetic-energy cutoff     =      50.0000  Ry
     charge density cutoff     =     200.0000  Ry
     convergence threshold     =      1.0E-08
     mixing beta               =       0.7000
     number of iterations used =            8  plain     mixing
     Exchange-correlation      = SLA PW PBX PBC ( 1  4  3  4 0 0)

     celldm(1)=   7.650000  celldm(2)=   0.000000  celldm(3)=   0.000000
     celldm(4)=   0.000000  celldm(5)=   0.000000  celldm(6)=   0.000000

     crystal axes: (cart. coord. in units of alat)
               a(1) = (  -0.500000   0.000000   0.500000 )  
               a(2) = (   0.000000   0.500000   0.500000 )  
               a(3) = (  -0.500000   0.500000   0.000000 )  

     reciprocal axes: (cart. coord. in units 2 pi/alat)
               b(1) = ( -1.000000 -1.000000  1.000000 )  
               b(2) = (  1.000000  1.000000  1.000000 )  
               b(3) = ( -1.000000  1.000000 -1.000000 )  


     PseudoPot. # 1 for Al read from file:
     /home/lorenzo/pseudos/Al/Al.pbe-nl-kjpaw_psl.1.0.0.UPF
     MD5 check sum: 8cf6d98cc7ef3f4b729b574060f3a10f
     Pseudo is Projector augmented-wave + core cor, Zval =  3.0
     Generated using "atomic" code by A. Dal Corso v.6.3
     Shape of augmentation charge: PSQ
     Using radial grid of 1135 points,  4 beta functions with: 
                l(1) =   0
                l(2) =   0
                l(3) =   1
                l(4) =   1
     Q(r) pseudized with 0 coefficients 


     atomic species   valence    mass     pseudopotential
        Al             3.00    26.98150     Al( 1.00)

     48 Sym. Ops., with inversion, found



   Cartesian axes

     site n.     atom                  positions (alat units)
         1           Al  tau(   1) = (   0.0000000   0.0000000   0.0000000  )

     number of k points=    20  gaussian smearing, width (Ry)=  0.0100
                       cart. coord. in units 2pi/alat
        k(    1) = (   0.0000000   0.0000000   0.0000000), wk =   0.0058309
        k(    2) = (  -0.1428571   0.1428571  -0.1428571), wk =   0.0466472
        k(    3) = (  -0.2857143   0.2857143  -0.2857143), wk =   0.0466472
        k(    4) = (  -0.4285714   0.4285714  -0.4285714), wk =   0.0466472
        k(    5) = (   0.0000000   0.2857143   0.0000000), wk =   0.0349854
        k(    6) = (  -0.1428571   0.4285714  -0.1428571), wk =   0.1399417
        k(    7) = (  -0.2857143   0.5714286  -0.2857143), wk =   0.1399417
        k(    8) = (   0.5714286  -0.2857143   0.5714286), wk =   0.1399417
        k(    9) = (   0.4285714  -0.1428571   0.4285714), wk =   0.1399417
        k(   10) = (   0.2857143  -0.0000000   0.2857143), wk =   0.0699708
        k(   11) = (   0.0000000   0.5714286   0.0000000), wk =   0.0349854
        k(   12) = (  -0.1428571   0.7142857  -0.1428571), wk =   0.1399417
        k(   13) = (   0.7142857  -0.1428571   0.7142857), wk =   0.1399417
        k(   14) = (   0.5714286   0.0000000   0.5714286), wk =   0.0699708
        k(   15) = (   0.0000000   0.8571429   0.0000000), wk =   0.0349854
        k(   16) = (   0.8571429  -0.0000000   0.8571429), wk =   0.0699708
        k(   17) = (  -0.2857143   0.5714286   0.0000000), wk =   0.1399417
        k(   18) = (   0.5714286  -0.2857143   0.8571429), wk =   0.2798834
        k(   19) = (   0.7142857  -0.1428571   1.0000000), wk =   0.1399417
        k(   20) = (   0.5714286   0.0000000   0.8571429), wk =   0.1399417

     Dense  grid:     5329 G-vectors     FFT dimensions: (  25,  25,  25)

     Estimated max dynamical RAM per process >       2.14 MB

     Estimated total dynamical RAM >      10.69 MB

     Initial potential from superposition of free atoms

     starting charge    2.99771, renormalised to    3.00000
     Starting wfcs are    4 randomized atomic wfcs +    2 random wfcs
     Checking if some PAW data can be deallocated... 

     total cpu time spent up to now is        0.8 secs

     Self-consistent Calculation

     iteration #  1     ecut=    50.00 Ry     beta= 0.70
     Davidson diagonalization with overlap
     ethr =  1.00E-02,  avg # of iterations =  5.0

     Threshold (ethr) on eigenvalues was too large:
     Diagonalizing with lowered threshold

     Davidson diagonalization with overlap
     ethr =  1.97E-04,  avg # of iterations =  1.9

     total cpu time spent up to now is        1.0 secs

     total energy              =     -39.50619897 Ry
     Harris-Foulkes estimate   =     -39.50767596 Ry
     estimated scf accuracy    <       0.00579891 Ry

     iteration #  2     ecut=    50.00 Ry     beta= 0.70
     Davidson diagonalization with overlap
     ethr =  1.93E-04,  avg # of iterations =  1.0

     total cpu time spent up to now is        1.2 secs

     total energy              =     -39.50619615 Ry
     Harris-Foulkes estimate   =     -39.50629188 Ry
     estimated scf accuracy    <       0.00040832 Ry

     iteration #  3     ecut=    50.00 Ry     beta= 0.70
     Davidson diagonalization with overlap
     ethr =  1.36E-05,  avg # of iterations =  1.4

     total cpu time spent up to now is        1.3 secs

     total energy              =     -39.50621837 Ry
     Harris-Foulkes estimate   =     -39.50621904 Ry
     estimated scf accuracy    <       0.00000148 Ry

     iteration #  4     ecut=    50.00 Ry     beta= 0.70
     Davidson diagonalization with overlap
     ethr =  4.94E-08,  avg # of iterations =  3.0

     total cpu time spent up to now is        1.4 secs

     total energy              =     -39.50622034 Ry
     Harris-Foulkes estimate   =     -39.50622033 Ry
     estimated scf accuracy    <       0.00000011 Ry

     iteration #  5     ecut=    50.00 Ry     beta= 0.70
     Davidson diagonalization with overlap
     ethr =  3.62E-09,  avg # of iterations =  1.1

     total cpu time spent up to now is        1.5 secs

     total energy              =     -39.50622033 Ry
     Harris-Foulkes estimate   =     -39.50622035 Ry
     estimated scf accuracy    <       0.00000005 Ry

     iteration #  6     ecut=    50.00 Ry     beta= 0.70
     Davidson diagonalization with overlap
     ethr =  1.66E-09,  avg # of iterations =  1.0

     total cpu time spent up to now is        1.7 secs

     End of self-consistent calculation

          k = 0.0000 0.0000 0.0000 (   645 PWs)   bands (ev):

    -3.2512  20.4402  20.4402  21.8766  21.8766  21.8766

          k =-0.1429 0.1429-0.1429 (   655 PWs)   bands (ev):

    -2.6990  15.4248  19.3380  19.3380  22.4571  23.6723

          k =-0.2857 0.2857-0.2857 (   658 PWs)   bands (ev):

    -1.0551   9.9906  18.6203  18.6203  21.9249  22.1113

          k =-0.4286 0.4286-0.4286 (   664 PWs)   bands (ev):

     1.6444   5.3552  18.8017  18.8017  19.9152  19.9152

          k = 0.0000 0.2857 0.0000 (   665 PWs)   bands (ev):

    -2.5154  17.3318  17.3318  17.5606  20.4525  21.5153

          k =-0.1429 0.4286-0.1429 (   661 PWs)   bands (ev):

    -1.2369  12.1251  16.2483  17.7904  18.1892  22.0506

          k =-0.2857 0.5714-0.2857 (   660 PWs)   bands (ev):

     1.1078   7.2521  15.6913  16.1036  17.8396  23.8415

          k = 0.5714-0.2857 0.5714 (   675 PWs)   bands (ev):

     3.2337   4.4825  14.2092  16.9006  18.7350  22.4613

          k = 0.4286-0.1429 0.4286 (   661 PWs)   bands (ev):

     0.2108   8.7673  13.7389  18.6333  20.5840  21.9689

          k = 0.2857-0.0000 0.2857 (   668 PWs)   bands (ev):

    -1.7834  13.4215  14.7357  21.1947  21.8672  23.2472

          k = 0.0000 0.5714 0.0000 (   657 PWs)   bands (ev):

    -0.3310  14.3841  14.7457  14.8317  14.8317  18.3132

          k =-0.1429 0.7143-0.1429 (   672 PWs)   bands (ev):

     1.6394  10.0752  11.5528  14.3643  15.8525  20.3382

          k = 0.7143-0.1429 0.7143 (   673 PWs)   bands (ev):

     4.6012   5.8692   9.7130  14.8423  16.5508  24.8827

          k = 0.5714 0.0000 0.5714 (   672 PWs)   bands (ev):

     2.5313   7.9893   9.4748  16.2671  18.1525  26.4331

          k = 0.0000 0.8571 0.0000 (   676 PWs)   bands (ev):

     3.2096   8.3022  13.2997  13.5773  13.5773  17.0310

          k = 0.8571-0.0000 0.8571 (   666 PWs)   bands (ev):

     5.2771   6.6054   9.4323  13.7364  15.1540  19.7248

          k =-0.2857 0.5714 0.0000 (   669 PWs)   bands (ev):

     0.3901  10.7087  12.1412  15.0850  20.1793  21.8868

          k = 0.5714-0.2857 0.8571 (   670 PWs)   bands (ev):

     3.0575   6.7025  11.7058  12.9559  21.0778  22.3427

          k = 0.7143-0.1429 1.0000 (   674 PWs)   bands (ev):

     3.9104   8.9577   9.3491  10.8950  18.8779  20.8082

          k = 0.5714 0.0000 0.8571 (   674 PWs)   bands (ev):

     5.9830   6.6320   8.0680  11.1223  20.4970  24.8949

     the Fermi energy is     7.9579 ev

!    total energy              =     -39.50622033 Ry
     Harris-Foulkes estimate   =     -39.50622033 Ry
     estimated scf accuracy    <          3.3E-11 Ry

     total all-electron energy =      -485.649001 Ry

     The total energy is the sum of the following terms:

     one-electron contribution =       3.14705362 Ry
     hartree contribution      =       0.00649322 Ry
     xc contribution           =      -2.58830785 Ry
     ewald contribution        =      -5.39395542 Ry
     one-center paw contrib.   =     -34.67711130 Ry
     smearing contrib. (-TS)   =      -0.00039260 Ry

     convergence has been achieved in   6 iterations

     Forces acting on atoms (cartesian axes, Ry/au):

     atom    1 type  1   force =     0.00000000    0.00000000    0.00000000

     Total force =     0.000000     Total SCF correction =     0.000000


     Computing stress (Cartesian axis) and pressure

          total   stress  (Ry/bohr**3)                   (kbar)     P=   -8.78
  -0.00005971   0.00000000   0.00000000         -8.78      0.00      0.00
   0.00000000  -0.00005971  -0.00000000          0.00     -8.78     -0.00
   0.00000000  -0.00000000  -0.00005971          0.00     -0.00     -8.78


     Writing output data file Al.save/

     init_run     :      0.16s CPU      0.17s WALL (       1 calls)
     electrons    :      0.81s CPU      0.91s WALL (       1 calls)
     forces       :      0.01s CPU      0.01s WALL (       1 calls)
     stress       :      0.05s CPU      0.05s WALL (       1 calls)

     Called by init_run:
     wfcinit      :      0.05s CPU      0.05s WALL (       1 calls)
     potinit      :      0.03s CPU      0.04s WALL (       1 calls)
     hinit0       :      0.07s CPU      0.07s WALL (       1 calls)

     Called by electrons:
     c_bands      :      0.51s CPU      0.55s WALL (       7 calls)
     sum_band     :      0.11s CPU      0.13s WALL (       7 calls)
     v_of_rho     :      0.03s CPU      0.04s WALL (       7 calls)
     newd         :      0.01s CPU      0.01s WALL (       7 calls)
     PAW_pot      :      0.17s CPU      0.21s WALL (       7 calls)
     mix_rho      :      0.00s CPU      0.00s WALL (       7 calls)

     Called by c_bands:
     init_us_2    :      0.02s CPU      0.02s WALL (     340 calls)
     cegterg      :      0.49s CPU      0.53s WALL (     140 calls)

     Called by sum_band:
     sum_band:bec :      0.00s CPU      0.00s WALL (     140 calls)
     addusdens    :      0.01s CPU      0.01s WALL (       7 calls)

     Called by *egterg:
     h_psi        :      0.43s CPU      0.47s WALL (     449 calls)
     s_psi        :      0.01s CPU      0.01s WALL (     449 calls)
     g_psi        :      0.00s CPU      0.00s WALL (     289 calls)
     cdiaghg      :      0.04s CPU      0.04s WALL (     409 calls)

     Called by h_psi:
     h_psi:pot    :      0.43s CPU      0.47s WALL (     449 calls)
     h_psi:calbec :      0.01s CPU      0.02s WALL (     449 calls)
     vloc_psi     :      0.41s CPU      0.44s WALL (     449 calls)
     add_vuspsi   :      0.01s CPU      0.01s WALL (     449 calls)

     General routines
     calbec       :      0.03s CPU      0.03s WALL (     689 calls)
     fft          :      0.02s CPU      0.02s WALL (     104 calls)
     ffts         :      0.00s CPU      0.00s WALL (       7 calls)
     fftw         :      0.46s CPU      0.50s WALL (    5180 calls)

     Parallel routines
     fft_scatt_xy :      0.04s CPU      0.04s WALL (    5291 calls)
     fft_scatt_yz :      0.16s CPU      0.17s WALL (    5291 calls)

     PWSCF        :     1.65s CPU         1.84s WALL


   This run was terminated on:  20: 2:26  25Mar2024            

=------------------------------------------------------------------------------=
   JOB DONE.
=------------------------------------------------------------------------------=
