
     Program PWSCF v.6.3MaX starts on 25Mar2024 at 19:57:41 

     This program is part of the open-source Quantum ESPRESSO suite
     for quantum simulation of materials; please cite
         "P. Giannozzi et al., J. Phys.:Condens. Matter 21 395502 (2009);
         "P. Giannozzi et al., J. Phys.:Condens. Matter 29 465901 (2017);
          URL http://www.quantum-espresso.org", 
     in publications or presentations arising from this work. More details at
     http://www.quantum-espresso.org/quote

     Parallel version (MPI), running on     5 processors

     MPI processes distributed on     1 nodes
     R & G space division:  proc/nbgrp/npool/nimage =       5
     Waiting for input...
     Reading input from standard input

     Current dimensions of program PWSCF are:
     Max number of different atomic species (ntypx) = 10
     Max number of k-points (npk) =  40000
     Max angular momentum in pseudopotentials (lmaxx) =  3
               file Al.pbe-nl-kjpaw_psl.1.0.0.UPF: wavefunction(s)  3S 3P renormalized

     Subspace diagonalization in iterative solution of the eigenvalue problem:
     a serial algorithm will be used


     Parallelization info
     --------------------
     sticks:   dense  smooth     PW     G-vecs:    dense   smooth      PW
     Min          48      48     17                  488      488     106
     Max          49      49     17                  491      491     107
     Sum         241     241     85                 2445     2445     531



     bravais-lattice index     =            2
     lattice parameter (alat)  =       7.6500  a.u.
     unit-cell volume          =     111.9243 (a.u.)^3
     number of atoms/cell      =            1
     number of atomic types    =            1
     number of electrons       =         3.00
     number of Kohn-Sham states=            6
     kinetic-energy cutoff     =      30.0000  Ry
     charge density cutoff     =     120.0000  Ry
     convergence threshold     =      1.0E-08
     mixing beta               =       0.7000
     number of iterations used =            8  plain     mixing
     Exchange-correlation      = SLA PW PBX PBC ( 1  4  3  4 0 0)

     celldm(1)=   7.650000  celldm(2)=   0.000000  celldm(3)=   0.000000
     celldm(4)=   0.000000  celldm(5)=   0.000000  celldm(6)=   0.000000

     crystal axes: (cart. coord. in units of alat)
               a(1) = (  -0.500000   0.000000   0.500000 )  
               a(2) = (   0.000000   0.500000   0.500000 )  
               a(3) = (  -0.500000   0.500000   0.000000 )  

     reciprocal axes: (cart. coord. in units 2 pi/alat)
               b(1) = ( -1.000000 -1.000000  1.000000 )  
               b(2) = (  1.000000  1.000000  1.000000 )  
               b(3) = ( -1.000000  1.000000 -1.000000 )  


     PseudoPot. # 1 for Al read from file:
     /home/lorenzo/pseudos/Al/Al.pbe-nl-kjpaw_psl.1.0.0.UPF
     MD5 check sum: 8cf6d98cc7ef3f4b729b574060f3a10f
     Pseudo is Projector augmented-wave + core cor, Zval =  3.0
     Generated using "atomic" code by A. Dal Corso v.6.3
     Shape of augmentation charge: PSQ
     Using radial grid of 1135 points,  4 beta functions with: 
                l(1) =   0
                l(2) =   0
                l(3) =   1
                l(4) =   1
     Q(r) pseudized with 0 coefficients 


     atomic species   valence    mass     pseudopotential
        Al             3.00    26.98150     Al( 1.00)

     48 Sym. Ops., with inversion, found



   Cartesian axes

     site n.     atom                  positions (alat units)
         1           Al  tau(   1) = (   0.0000000   0.0000000   0.0000000  )

     number of k points=    10  gaussian smearing, width (Ry)=  0.0100
                       cart. coord. in units 2pi/alat
        k(    1) = (   0.0000000   0.0000000   0.0000000), wk =   0.0160000
        k(    2) = (  -0.2000000   0.2000000  -0.2000000), wk =   0.1280000
        k(    3) = (  -0.4000000   0.4000000  -0.4000000), wk =   0.1280000
        k(    4) = (   0.0000000   0.4000000   0.0000000), wk =   0.0960000
        k(    5) = (  -0.2000000   0.6000000  -0.2000000), wk =   0.3840000
        k(    6) = (   0.6000000  -0.2000000   0.6000000), wk =   0.3840000
        k(    7) = (   0.4000000   0.0000000   0.4000000), wk =   0.1920000
        k(    8) = (   0.0000000   0.8000000   0.0000000), wk =   0.0960000
        k(    9) = (   0.8000000   0.0000000   0.8000000), wk =   0.1920000
        k(   10) = (   0.6000000  -0.2000000   1.0000000), wk =   0.3840000

     Dense  grid:     2445 G-vectors     FFT dimensions: (  20,  20,  20)

     Estimated max dynamical RAM per process >       1.06 MB

     Estimated total dynamical RAM >       5.31 MB

     Initial potential from superposition of free atoms

     starting charge    2.99771, renormalised to    3.00000
     Starting wfcs are    4 randomized atomic wfcs +    2 random wfcs
     Checking if some PAW data can be deallocated... 

     total cpu time spent up to now is        0.5 secs

     Self-consistent Calculation

     iteration #  1     ecut=    30.00 Ry     beta= 0.70
     Davidson diagonalization with overlap
     ethr =  1.00E-02,  avg # of iterations =  5.0

     Threshold (ethr) on eigenvalues was too large:
     Diagonalizing with lowered threshold

     Davidson diagonalization with overlap
     ethr =  1.73E-04,  avg # of iterations =  2.1

     total cpu time spent up to now is        0.6 secs

     total energy              =     -39.49864460 Ry
     Harris-Foulkes estimate   =     -39.50003393 Ry
     estimated scf accuracy    <       0.00510355 Ry

     iteration #  2     ecut=    30.00 Ry     beta= 0.70
     Davidson diagonalization with overlap
     ethr =  1.70E-04,  avg # of iterations =  1.0

     total cpu time spent up to now is        0.7 secs

     total energy              =     -39.49863837 Ry
     Harris-Foulkes estimate   =     -39.49872819 Ry
     estimated scf accuracy    <       0.00035474 Ry

     iteration #  3     ecut=    30.00 Ry     beta= 0.70
     Davidson diagonalization with overlap
     ethr =  1.18E-05,  avg # of iterations =  1.7

     total cpu time spent up to now is        0.7 secs

     total energy              =     -39.49865871 Ry
     Harris-Foulkes estimate   =     -39.49865926 Ry
     estimated scf accuracy    <       0.00000131 Ry

     iteration #  4     ecut=    30.00 Ry     beta= 0.70
     Davidson diagonalization with overlap
     ethr =  4.36E-08,  avg # of iterations =  3.3

     total cpu time spent up to now is        0.8 secs

     total energy              =     -39.49866035 Ry
     Harris-Foulkes estimate   =     -39.49866034 Ry
     estimated scf accuracy    <       0.00000009 Ry

     iteration #  5     ecut=    30.00 Ry     beta= 0.70
     Davidson diagonalization with overlap
     ethr =  2.99E-09,  avg # of iterations =  1.2

     total cpu time spent up to now is        0.8 secs

     total energy              =     -39.49866034 Ry
     Harris-Foulkes estimate   =     -39.49866035 Ry
     estimated scf accuracy    <       0.00000002 Ry

     iteration #  6     ecut=    30.00 Ry     beta= 0.70
     Davidson diagonalization with overlap
     ethr =  5.62E-10,  avg # of iterations =  1.0

     total cpu time spent up to now is        0.9 secs

     End of self-consistent calculation

          k = 0.0000 0.0000 0.0000 (   331 PWs)   bands (ev):

    -3.2511  20.4480  20.4480  21.8804  21.8804  21.8804

          k =-0.2000 0.2000-0.2000 (   311 PWs)   bands (ev):

    -2.1708  13.1742  18.9545  18.9545  22.2795  23.4351

          k =-0.4000 0.4000-0.4000 (   311 PWs)   bands (ev):

     1.0230   6.2111  18.6972  18.6972  20.2550  20.2550

          k = 0.0000 0.4000 0.0000 (   303 PWs)   bands (ev):

    -1.8124  16.1893  16.1893  16.2899  18.5732  19.5613

          k =-0.2000 0.6000-0.2000 (   316 PWs)   bands (ev):

     0.6703   9.2090  14.3827  15.2751  16.9390  22.8017

          k = 0.6000-0.2000 0.6000 (   307 PWs)   bands (ev):

     3.4533   5.1756  12.1078  16.2138  18.0622  24.0014

          k = 0.4000 0.0000 0.4000 (   311 PWs)   bands (ev):

    -0.3880  10.9270  12.3924  18.9939  21.0113  23.2410

          k = 0.0000 0.8000 0.0000 (   322 PWs)   bands (ev):

     2.4058   9.4141  13.4766  13.7295  13.7295  17.1954

          k = 0.8000 0.0000 0.8000 (   310 PWs)   bands (ev):

     5.6020   6.9104   7.9345  14.0417  15.5998  21.6772

          k = 0.6000-0.2000 1.0000 (   305 PWs)   bands (ev):

     3.7871   8.2623   9.6592  10.8967  21.5738  22.9267

     the Fermi energy is     8.2039 ev

!    total energy              =     -39.49866034 Ry
     Harris-Foulkes estimate   =     -39.49866034 Ry
     estimated scf accuracy    <          4.4E-11 Ry

     total all-electron energy =      -485.641441 Ry

     The total energy is the sum of the following terms:

     one-electron contribution =       3.15768049 Ry
     hartree contribution      =       0.00584283 Ry
     xc contribution           =      -2.58885390 Ry
     ewald contribution        =      -5.39395543 Ry
     one-center paw contrib.   =     -34.67846232 Ry
     smearing contrib. (-TS)   =      -0.00091202 Ry

     convergence has been achieved in   6 iterations

     Forces acting on atoms (cartesian axes, Ry/au):

     atom    1 type  1   force =     0.00000000    0.00000000    0.00000000

     Total force =     0.000000     Total SCF correction =     0.000000


     Computing stress (Cartesian axis) and pressure

          total   stress  (Ry/bohr**3)                   (kbar)     P=   13.65
   0.00009277  -0.00000000  -0.00000000         13.65     -0.00     -0.00
  -0.00000000   0.00009277   0.00000000         -0.00     13.65      0.00
  -0.00000000   0.00000000   0.00009277         -0.00      0.00     13.65


     Writing output data file Al.save/

     init_run     :      0.09s CPU      0.10s WALL (       1 calls)
     electrons    :      0.32s CPU      0.37s WALL (       1 calls)
     forces       :      0.01s CPU      0.01s WALL (       1 calls)
     stress       :      0.02s CPU      0.02s WALL (       1 calls)

     Called by init_run:
     wfcinit      :      0.01s CPU      0.01s WALL (       1 calls)
     potinit      :      0.02s CPU      0.03s WALL (       1 calls)
     hinit0       :      0.05s CPU      0.05s WALL (       1 calls)

     Called by electrons:
     c_bands      :      0.14s CPU      0.15s WALL (       7 calls)
     sum_band     :      0.03s CPU      0.03s WALL (       7 calls)
     v_of_rho     :      0.01s CPU      0.01s WALL (       7 calls)
     newd         :      0.00s CPU      0.00s WALL (       7 calls)
     PAW_pot      :      0.15s CPU      0.18s WALL (       7 calls)
     mix_rho      :      0.00s CPU      0.00s WALL (       7 calls)

     Called by c_bands:
     init_us_2    :      0.00s CPU      0.00s WALL (     170 calls)
     cegterg      :      0.13s CPU      0.15s WALL (      70 calls)

     Called by sum_band:
     sum_band:bec :      0.00s CPU      0.00s WALL (      70 calls)
     addusdens    :      0.00s CPU      0.00s WALL (       7 calls)

     Called by *egterg:
     h_psi        :      0.10s CPU      0.12s WALL (     233 calls)
     s_psi        :      0.00s CPU      0.00s WALL (     233 calls)
     g_psi        :      0.00s CPU      0.00s WALL (     153 calls)
     cdiaghg      :      0.02s CPU      0.02s WALL (     213 calls)

     Called by h_psi:
     h_psi:pot    :      0.10s CPU      0.11s WALL (     233 calls)
     h_psi:calbec :      0.00s CPU      0.01s WALL (     233 calls)
     vloc_psi     :      0.09s CPU      0.11s WALL (     233 calls)
     add_vuspsi   :      0.00s CPU      0.00s WALL (     233 calls)

     General routines
     calbec       :      0.01s CPU      0.01s WALL (     353 calls)
     fft          :      0.01s CPU      0.01s WALL (     104 calls)
     ffts         :      0.00s CPU      0.00s WALL (       7 calls)
     fftw         :      0.10s CPU      0.12s WALL (    2600 calls)

     Parallel routines
     fft_scatt_xy :      0.01s CPU      0.01s WALL (    2711 calls)
     fft_scatt_yz :      0.03s CPU      0.04s WALL (    2711 calls)

     PWSCF        :     0.87s CPU         0.98s WALL


   This run was terminated on:  19:57:42  25Mar2024            

=------------------------------------------------------------------------------=
   JOB DONE.
=------------------------------------------------------------------------------=
