
     Program PWSCF v.6.3MaX starts on 25Mar2024 at 19:56:39 

     This program is part of the open-source Quantum ESPRESSO suite
     for quantum simulation of materials; please cite
         "P. Giannozzi et al., J. Phys.:Condens. Matter 21 395502 (2009);
         "P. Giannozzi et al., J. Phys.:Condens. Matter 29 465901 (2017);
          URL http://www.quantum-espresso.org", 
     in publications or presentations arising from this work. More details at
     http://www.quantum-espresso.org/quote

     Parallel version (MPI), running on     5 processors

     MPI processes distributed on     1 nodes
     R & G space division:  proc/nbgrp/npool/nimage =       5
     Waiting for input...
     Reading input from standard input

     Current dimensions of program PWSCF are:
     Max number of different atomic species (ntypx) = 10
     Max number of k-points (npk) =  40000
     Max angular momentum in pseudopotentials (lmaxx) =  3

     Subspace diagonalization in iterative solution of the eigenvalue problem:
     a serial algorithm will be used


     Parallelization info
     --------------------
     sticks:   dense  smooth     PW     G-vecs:    dense   smooth      PW
     Min          39      39     13                  381      381      77
     Max          40      40     15                  384      384      78
     Sum         199     199     73                 1917     1917     387



     bravais-lattice index     =            2
     lattice parameter (alat)  =       7.6500  a.u.
     unit-cell volume          =     111.9243 (a.u.)^3
     number of atoms/cell      =            1
     number of atomic types    =            1
     number of electrons       =         3.00
     number of Kohn-Sham states=            6
     kinetic-energy cutoff     =      25.0000  Ry
     charge density cutoff     =     100.0000  Ry
     convergence threshold     =      1.0E-08
     mixing beta               =       0.7000
     number of iterations used =            8  plain     mixing
     Exchange-correlation      = PBE ( 1  4  3  4 0 0)

     celldm(1)=   7.650000  celldm(2)=   0.000000  celldm(3)=   0.000000
     celldm(4)=   0.000000  celldm(5)=   0.000000  celldm(6)=   0.000000

     crystal axes: (cart. coord. in units of alat)
               a(1) = (  -0.500000   0.000000   0.500000 )  
               a(2) = (   0.000000   0.500000   0.500000 )  
               a(3) = (  -0.500000   0.500000   0.000000 )  

     reciprocal axes: (cart. coord. in units 2 pi/alat)
               b(1) = ( -1.000000 -1.000000  1.000000 )  
               b(2) = (  1.000000  1.000000  1.000000 )  
               b(3) = ( -1.000000  1.000000 -1.000000 )  


     PseudoPot. # 1 for Al read from file:
     /home/lorenzo/pseudos/Al/Al.pbe-nl-rrkjus_psl.1.0.0.UPF
     MD5 check sum: 6db8691240a1c860ce6448702d298c4b
     Pseudo is Ultrasoft + core correction, Zval =  3.0
     Generated using "atomic" code by A. Dal Corso v.6.3
     Using radial grid of 1135 points,  4 beta functions with: 
                l(1) =   0
                l(2) =   0
                l(3) =   1
                l(4) =   1
     Q(r) pseudized with 0 coefficients 


     atomic species   valence    mass     pseudopotential
        Al             3.00    26.98150     Al( 1.00)

     48 Sym. Ops., with inversion, found



   Cartesian axes

     site n.     atom                  positions (alat units)
         1           Al  tau(   1) = (   0.0000000   0.0000000   0.0000000  )

     number of k points=     8  gaussian smearing, width (Ry)=  0.0100
                       cart. coord. in units 2pi/alat
        k(    1) = (   0.0000000   0.0000000   0.0000000), wk =   0.0312500
        k(    2) = (  -0.2500000   0.2500000  -0.2500000), wk =   0.2500000
        k(    3) = (   0.5000000  -0.5000000   0.5000000), wk =   0.1250000
        k(    4) = (   0.0000000   0.5000000   0.0000000), wk =   0.1875000
        k(    5) = (   0.7500000  -0.2500000   0.7500000), wk =   0.7500000
        k(    6) = (   0.5000000   0.0000000   0.5000000), wk =   0.3750000
        k(    7) = (   0.0000000  -1.0000000   0.0000000), wk =   0.0937500
        k(    8) = (  -0.5000000  -1.0000000   0.0000000), wk =   0.1875000

     Dense  grid:     1917 G-vectors     FFT dimensions: (  18,  18,  18)

     Estimated max dynamical RAM per process >       0.86 MB

     Estimated total dynamical RAM >       4.31 MB

     Initial potential from superposition of free atoms

     starting charge    2.99771, renormalised to    3.00000
     Starting wfcs are    4 randomized atomic wfcs +    2 random wfcs

     total cpu time spent up to now is        0.4 secs

     Self-consistent Calculation

     iteration #  1     ecut=    25.00 Ry     beta= 0.70
     Davidson diagonalization with overlap
     ethr =  1.00E-02,  avg # of iterations =  4.6

     Threshold (ethr) on eigenvalues was too large:
     Diagonalizing with lowered threshold

     Davidson diagonalization with overlap
     ethr =  2.14E-04,  avg # of iterations =  1.6

     total cpu time spent up to now is        0.5 secs

     total energy              =      -5.01783137 Ry
     Harris-Foulkes estimate   =      -5.01913503 Ry
     estimated scf accuracy    <       0.00621266 Ry

     iteration #  2     ecut=    25.00 Ry     beta= 0.70
     Davidson diagonalization with overlap
     ethr =  2.07E-04,  avg # of iterations =  1.0

     total cpu time spent up to now is        0.5 secs

     total energy              =      -5.01781352 Ry
     Harris-Foulkes estimate   =      -5.01790677 Ry
     estimated scf accuracy    <       0.00046229 Ry

     iteration #  3     ecut=    25.00 Ry     beta= 0.70
     Davidson diagonalization with overlap
     ethr =  1.54E-05,  avg # of iterations =  1.9

     total cpu time spent up to now is        0.5 secs

     total energy              =      -5.01783343 Ry
     Harris-Foulkes estimate   =      -5.01783353 Ry
     estimated scf accuracy    <       0.00000153 Ry

     iteration #  4     ecut=    25.00 Ry     beta= 0.70
     Davidson diagonalization with overlap
     ethr =  5.11E-08,  avg # of iterations =  4.4

     total cpu time spent up to now is        0.5 secs

     total energy              =      -5.01783559 Ry
     Harris-Foulkes estimate   =      -5.01783557 Ry
     estimated scf accuracy    <       0.00000011 Ry

     iteration #  5     ecut=    25.00 Ry     beta= 0.70
     Davidson diagonalization with overlap
     ethr =  3.67E-09,  avg # of iterations =  1.1

     total cpu time spent up to now is        0.6 secs

     total energy              =      -5.01783559 Ry
     Harris-Foulkes estimate   =      -5.01783559 Ry
     estimated scf accuracy    <       0.00000002 Ry

     iteration #  6     ecut=    25.00 Ry     beta= 0.70
     Davidson diagonalization with overlap
     ethr =  5.25E-10,  avg # of iterations =  1.0

     total cpu time spent up to now is        0.6 secs

     End of self-consistent calculation

          k = 0.0000 0.0000 0.0000 (   259 PWs)   bands (ev):

    -3.2454  20.4711  20.4711  21.8798  21.8798  21.8798

          k =-0.2500 0.2500-0.2500 (   238 PWs)   bands (ev):

    -1.5611  11.2942  18.7366  18.7366  22.1748  22.5792

          k = 0.5000-0.5000 0.5000 (   242 PWs)   bands (ev):

     3.2788   3.4889  19.2006  19.2006  19.3197  19.3198

          k = 0.0000 0.5000 0.0000 (   234 PWs)   bands (ev):

    -1.0042  15.3507  15.3507  15.3549  16.1019  18.8104

          k = 0.7500-0.2500 0.7500 (   236 PWs)   bands (ev):

     2.8284   7.1070  11.5069  14.8771  16.5764  23.9081

          k = 0.5000 0.0000 0.5000 (   238 PWs)   bands (ev):

     1.2029   9.1023  10.5973  17.3065  19.2762  24.8339

          k = 0.0000-1.0000 0.0000 (   230 PWs)   bands (ev):

     4.9432   6.2630  13.1471  13.4237  13.4237  16.8811

          k =-0.5000-1.0000 0.0000 (   224 PWs)   bands (ev):

     7.0203   7.0203   8.0401   8.9373  23.6673  23.6673

     the Fermi energy is     7.1916 ev

!    total energy              =      -5.01783559 Ry
     Harris-Foulkes estimate   =      -5.01783559 Ry
     estimated scf accuracy    <          4.6E-10 Ry

     The total energy is the sum of the following terms:

     one-electron contribution =       2.95902049 Ry
     hartree contribution      =       0.00759025 Ry
     xc contribution           =      -2.58883685 Ry
     ewald contribution        =      -5.39395546 Ry
     smearing contrib. (-TS)   =      -0.00165401 Ry

     convergence has been achieved in   6 iterations

     Forces acting on atoms (cartesian axes, Ry/au):

     atom    1 type  1   force =     0.00000000    0.00000000    0.00000000

     Total force =     0.000000     Total SCF correction =     0.000000


     Computing stress (Cartesian axis) and pressure

          total   stress  (Ry/bohr**3)                   (kbar)     P=    2.85
   0.00001940  -0.00000000  -0.00000000          2.85     -0.00     -0.00
   0.00000000   0.00001940   0.00000000          0.00      2.85      0.00
  -0.00000000   0.00000000   0.00001940         -0.00      0.00      2.85


     Writing output data file Al.save/

     init_run     :      0.06s CPU      0.06s WALL (       1 calls)
     electrons    :      0.13s CPU      0.15s WALL (       1 calls)
     forces       :      0.01s CPU      0.01s WALL (       1 calls)
     stress       :      0.02s CPU      0.02s WALL (       1 calls)

     Called by init_run:
     wfcinit      :      0.01s CPU      0.01s WALL (       1 calls)
     potinit      :      0.00s CPU      0.00s WALL (       1 calls)
     hinit0       :      0.04s CPU      0.04s WALL (       1 calls)

     Called by electrons:
     c_bands      :      0.09s CPU      0.11s WALL (       7 calls)
     sum_band     :      0.02s CPU      0.02s WALL (       7 calls)
     v_of_rho     :      0.01s CPU      0.01s WALL (       7 calls)
     newd         :      0.00s CPU      0.00s WALL (       7 calls)
     mix_rho      :      0.00s CPU      0.00s WALL (       7 calls)

     Called by c_bands:
     init_us_2    :      0.00s CPU      0.00s WALL (     136 calls)
     cegterg      :      0.09s CPU      0.10s WALL (      56 calls)

     Called by sum_band:
     sum_band:bec :      0.00s CPU      0.00s WALL (      56 calls)
     addusdens    :      0.00s CPU      0.00s WALL (       7 calls)

     Called by *egterg:
     h_psi        :      0.07s CPU      0.08s WALL (     189 calls)
     s_psi        :      0.00s CPU      0.00s WALL (     189 calls)
     g_psi        :      0.00s CPU      0.00s WALL (     125 calls)
     cdiaghg      :      0.01s CPU      0.01s WALL (     173 calls)

     Called by h_psi:
     h_psi:pot    :      0.07s CPU      0.08s WALL (     189 calls)
     h_psi:calbec :      0.00s CPU      0.00s WALL (     189 calls)
     vloc_psi     :      0.06s CPU      0.07s WALL (     189 calls)
     add_vuspsi   :      0.00s CPU      0.00s WALL (     189 calls)

     General routines
     calbec       :      0.00s CPU      0.01s WALL (     285 calls)
     fft          :      0.01s CPU      0.01s WALL (     104 calls)
     ffts         :      0.00s CPU      0.00s WALL (       7 calls)
     fftw         :      0.07s CPU      0.08s WALL (    2064 calls)

     Parallel routines
     fft_scatt_xy :      0.01s CPU      0.01s WALL (    2175 calls)
     fft_scatt_yz :      0.02s CPU      0.03s WALL (    2175 calls)

     PWSCF        :     0.58s CPU         0.64s WALL


   This run was terminated on:  19:56:39  25Mar2024            

=------------------------------------------------------------------------------=
   JOB DONE.
=------------------------------------------------------------------------------=
