
     Program PWSCF v.6.3MaX starts on 25Mar2024 at 19:55:54 

     This program is part of the open-source Quantum ESPRESSO suite
     for quantum simulation of materials; please cite
         "P. Giannozzi et al., J. Phys.:Condens. Matter 21 395502 (2009);
         "P. Giannozzi et al., J. Phys.:Condens. Matter 29 465901 (2017);
          URL http://www.quantum-espresso.org", 
     in publications or presentations arising from this work. More details at
     http://www.quantum-espresso.org/quote

     Parallel version (MPI), running on     5 processors

     MPI processes distributed on     1 nodes
     R & G space division:  proc/nbgrp/npool/nimage =       5
     Waiting for input...
     Reading input from standard input

     Current dimensions of program PWSCF are:
     Max number of different atomic species (ntypx) = 10
     Max number of k-points (npk) =  40000
     Max angular momentum in pseudopotentials (lmaxx) =  3
               file Al.pbe-n-kjpaw_psl.1.0.0.UPF: wavefunction(s)  3S 3P renormalized

     Subspace diagonalization in iterative solution of the eigenvalue problem:
     a serial algorithm will be used


     Parallelization info
     --------------------
     sticks:   dense  smooth     PW     G-vecs:    dense   smooth      PW
     Min          32      32     12                  272      272      66
     Max          33      33     13                  273      273      67
     Sum         163     163     61                 1363     1363     331



     bravais-lattice index     =            2
     lattice parameter (alat)  =       7.6500  a.u.
     unit-cell volume          =     111.9243 (a.u.)^3
     number of atoms/cell      =            1
     number of atomic types    =            1
     number of electrons       =         3.00
     number of Kohn-Sham states=            6
     kinetic-energy cutoff     =      20.0000  Ry
     charge density cutoff     =      80.0000  Ry
     convergence threshold     =      1.0E-08
     mixing beta               =       0.7000
     number of iterations used =            8  plain     mixing
     Exchange-correlation      = SLA PW PBX PBC ( 1  4  3  4 0 0)

     celldm(1)=   7.650000  celldm(2)=   0.000000  celldm(3)=   0.000000
     celldm(4)=   0.000000  celldm(5)=   0.000000  celldm(6)=   0.000000

     crystal axes: (cart. coord. in units of alat)
               a(1) = (  -0.500000   0.000000   0.500000 )  
               a(2) = (   0.000000   0.500000   0.500000 )  
               a(3) = (  -0.500000   0.500000   0.000000 )  

     reciprocal axes: (cart. coord. in units 2 pi/alat)
               b(1) = ( -1.000000 -1.000000  1.000000 )  
               b(2) = (  1.000000  1.000000  1.000000 )  
               b(3) = ( -1.000000  1.000000 -1.000000 )  


     PseudoPot. # 1 for Al read from file:
     /home/lorenzo/pseudos/Al/Al.pbe-n-kjpaw_psl.1.0.0.UPF
     MD5 check sum: 502b6b27b9c6270cab5dd1084b96fa6d
     Pseudo is Projector augmented-wave + core cor, Zval =  3.0
     Generated using "atomic" code by A. Dal Corso v.6.3
     Shape of augmentation charge: PSQ
     Using radial grid of 1135 points,  6 beta functions with: 
                l(1) =   0
                l(2) =   0
                l(3) =   1
                l(4) =   1
                l(5) =   2
                l(6) =   2
     Q(r) pseudized with 0 coefficients 


     atomic species   valence    mass     pseudopotential
        Al             3.00    26.98150     Al( 1.00)

     48 Sym. Ops., with inversion, found



   Cartesian axes

     site n.     atom                  positions (alat units)
         1           Al  tau(   1) = (   0.0000000   0.0000000   0.0000000  )

     number of k points=    20  gaussian smearing, width (Ry)=  0.0100
                       cart. coord. in units 2pi/alat
        k(    1) = (   0.0000000   0.0000000   0.0000000), wk =   0.0058309
        k(    2) = (  -0.1428571   0.1428571  -0.1428571), wk =   0.0466472
        k(    3) = (  -0.2857143   0.2857143  -0.2857143), wk =   0.0466472
        k(    4) = (  -0.4285714   0.4285714  -0.4285714), wk =   0.0466472
        k(    5) = (   0.0000000   0.2857143   0.0000000), wk =   0.0349854
        k(    6) = (  -0.1428571   0.4285714  -0.1428571), wk =   0.1399417
        k(    7) = (  -0.2857143   0.5714286  -0.2857143), wk =   0.1399417
        k(    8) = (   0.5714286  -0.2857143   0.5714286), wk =   0.1399417
        k(    9) = (   0.4285714  -0.1428571   0.4285714), wk =   0.1399417
        k(   10) = (   0.2857143  -0.0000000   0.2857143), wk =   0.0699708
        k(   11) = (   0.0000000   0.5714286   0.0000000), wk =   0.0349854
        k(   12) = (  -0.1428571   0.7142857  -0.1428571), wk =   0.1399417
        k(   13) = (   0.7142857  -0.1428571   0.7142857), wk =   0.1399417
        k(   14) = (   0.5714286   0.0000000   0.5714286), wk =   0.0699708
        k(   15) = (   0.0000000   0.8571429   0.0000000), wk =   0.0349854
        k(   16) = (   0.8571429  -0.0000000   0.8571429), wk =   0.0699708
        k(   17) = (  -0.2857143   0.5714286   0.0000000), wk =   0.1399417
        k(   18) = (   0.5714286  -0.2857143   0.8571429), wk =   0.2798834
        k(   19) = (   0.7142857  -0.1428571   1.0000000), wk =   0.1399417
        k(   20) = (   0.5714286   0.0000000   0.8571429), wk =   0.1399417

     Dense  grid:     1363 G-vectors     FFT dimensions: (  15,  15,  15)

     Estimated max dynamical RAM per process >       1.94 MB

     Estimated total dynamical RAM >       9.70 MB

     Initial potential from superposition of free atoms

     starting charge    2.99771, renormalised to    3.00000
     Starting wfcs are    4 randomized atomic wfcs +    2 random wfcs
     Checking if some PAW data can be deallocated... 

     total cpu time spent up to now is        0.9 secs

     Self-consistent Calculation

     iteration #  1     ecut=    20.00 Ry     beta= 0.70
     Davidson diagonalization with overlap
     ethr =  1.00E-02,  avg # of iterations =  4.4

     Threshold (ethr) on eigenvalues was too large:
     Diagonalizing with lowered threshold

     Davidson diagonalization with overlap
     ethr =  1.88E-04,  avg # of iterations =  1.8

     total cpu time spent up to now is        1.1 secs

     total energy              =     -39.50602179 Ry
     Harris-Foulkes estimate   =     -39.50716649 Ry
     estimated scf accuracy    <       0.00557222 Ry

     iteration #  2     ecut=    20.00 Ry     beta= 0.70
     Davidson diagonalization with overlap
     ethr =  1.86E-04,  avg # of iterations =  1.0

     total cpu time spent up to now is        1.3 secs

     total energy              =     -39.50597579 Ry
     Harris-Foulkes estimate   =     -39.50606579 Ry
     estimated scf accuracy    <       0.00041386 Ry

     iteration #  3     ecut=    20.00 Ry     beta= 0.70
     Davidson diagonalization with overlap
     ethr =  1.38E-05,  avg # of iterations =  1.6

     total cpu time spent up to now is        1.5 secs

     total energy              =     -39.50598408 Ry
     Harris-Foulkes estimate   =     -39.50598420 Ry
     estimated scf accuracy    <       0.00000042 Ry

     iteration #  4     ecut=    20.00 Ry     beta= 0.70
     Davidson diagonalization with overlap
     ethr =  1.41E-08,  avg # of iterations =  2.7

     total cpu time spent up to now is        1.6 secs

     total energy              =     -39.50598550 Ry
     Harris-Foulkes estimate   =     -39.50598553 Ry
     estimated scf accuracy    <       0.00000002 Ry

     iteration #  5     ecut=    20.00 Ry     beta= 0.70
     Davidson diagonalization with overlap
     ethr =  7.82E-10,  avg # of iterations =  1.1

     total cpu time spent up to now is        1.7 secs

     End of self-consistent calculation

          k = 0.0000 0.0000 0.0000 (   169 PWs)   bands (ev):

    -3.2478  20.4546  20.4546  21.8954  21.8955  21.8955

          k =-0.1429 0.1429-0.1429 (   169 PWs)   bands (ev):

    -2.6955  15.4355  19.3522  19.3522  22.4885  23.6916

          k =-0.2857 0.2857-0.2857 (   162 PWs)   bands (ev):

    -1.0512   9.9967  18.6345  18.6345  21.9469  21.9469

          k =-0.4286 0.4286-0.4286 (   168 PWs)   bands (ev):

     1.6480   5.3579  18.8172  18.8173  19.9329  19.9329

          k = 0.0000 0.2857 0.0000 (   165 PWs)   bands (ev):

    -2.5117  17.3442  17.3442  17.5774  20.4675  21.5410

          k =-0.1429 0.4286-0.1429 (   162 PWs)   bands (ev):

    -1.2329  12.1331  16.2602  17.8080  18.2044  22.0725

          k =-0.2857 0.5714-0.2857 (   166 PWs)   bands (ev):

     1.1115   7.2556  15.7026  16.1152  17.8561  23.8700

          k = 0.5714-0.2857 0.5714 (   168 PWs)   bands (ev):

     3.2369   4.4855  14.2187  16.9136  18.7534  22.4873

          k = 0.4286-0.1429 0.4286 (   166 PWs)   bands (ev):

     0.2147   8.7719  13.7480  18.6486  20.6069  21.9928

          k = 0.2857-0.0000 0.2857 (   164 PWs)   bands (ev):

    -1.7796  13.4310  14.7454  21.2123  21.8912  23.2382

          k = 0.0000 0.5714 0.0000 (   174 PWs)   bands (ev):

    -0.3273  14.3917  14.7566  14.8418  14.8418  18.3244

          k =-0.1429 0.7143-0.1429 (   171 PWs)   bands (ev):

     1.6430  10.0800  11.5587  14.3746  15.8652  20.3546

          k = 0.7143-0.1429 0.7143 (   180 PWs)   bands (ev):

     4.6040   5.8721   9.7175  14.8523  16.5631  24.9037

          k = 0.5714 0.0000 0.5714 (   168 PWs)   bands (ev):

     2.5347   7.9929   9.4813  16.2790  18.1709  26.4608

          k = 0.0000 0.8571 0.0000 (   170 PWs)   bands (ev):

     3.2130   8.3063  13.3068  13.5882  13.5882  17.0403

          k = 0.8571-0.0000 0.8571 (   178 PWs)   bands (ev):

     5.2806   6.6074   9.4374  13.7470  15.1639  19.7386

          k =-0.2857 0.5714 0.0000 (   171 PWs)   bands (ev):

     0.3939  10.7139  12.1491  15.0951  20.2021  21.9042

          k = 0.5714-0.2857 0.8571 (   169 PWs)   bands (ev):

     3.0608   6.7057  11.7128  12.9644  21.1013  22.3684

          k = 0.7143-0.1429 1.0000 (   171 PWs)   bands (ev):

     3.9136   8.9616   9.3533  10.9036  18.8992  20.8224

          k = 0.5714 0.0000 0.8571 (   171 PWs)   bands (ev):

     5.9857   6.6349   8.0731  11.1297  20.5195  24.9172

     the Fermi energy is     7.9623 ev

!    total energy              =     -39.50598551 Ry
     Harris-Foulkes estimate   =     -39.50598551 Ry
     estimated scf accuracy    <          2.1E-10 Ry

     total all-electron energy =      -485.648766 Ry

     The total energy is the sum of the following terms:

     one-electron contribution =       3.14928177 Ry
     hartree contribution      =       0.00617682 Ry
     xc contribution           =      -2.58811488 Ry
     ewald contribution        =      -5.39395546 Ry
     one-center paw contrib.   =     -34.67898251 Ry
     smearing contrib. (-TS)   =      -0.00039125 Ry

     convergence has been achieved in   5 iterations

     Forces acting on atoms (cartesian axes, Ry/au):

     atom    1 type  1   force =     0.00000000    0.00000000    0.00000000

     Total force =     0.000000     Total SCF correction =     0.000000


     Computing stress (Cartesian axis) and pressure

          total   stress  (Ry/bohr**3)                   (kbar)     P=   -9.73
  -0.00006617   0.00000000   0.00000000         -9.73      0.00      0.00
   0.00000000  -0.00006617  -0.00000000          0.00     -9.73     -0.00
   0.00000000  -0.00000000  -0.00006617          0.00     -0.00     -9.73


     Writing output data file Al.save/

     init_run     :      0.21s CPU      0.22s WALL (       1 calls)
     electrons    :      0.72s CPU      0.82s WALL (       1 calls)
     forces       :      0.01s CPU      0.01s WALL (       1 calls)
     stress       :      0.02s CPU      0.02s WALL (       1 calls)

     Called by init_run:
     wfcinit      :      0.01s CPU      0.02s WALL (       1 calls)
     potinit      :      0.10s CPU      0.11s WALL (       1 calls)
     hinit0       :      0.07s CPU      0.07s WALL (       1 calls)

     Called by electrons:
     c_bands      :      0.20s CPU      0.23s WALL (       6 calls)
     sum_band     :      0.04s CPU      0.05s WALL (       6 calls)
     v_of_rho     :      0.00s CPU      0.00s WALL (       6 calls)
     newd         :      0.01s CPU      0.01s WALL (       6 calls)
     PAW_pot      :      0.55s CPU      0.62s WALL (       6 calls)
     mix_rho      :      0.00s CPU      0.00s WALL (       6 calls)

     Called by c_bands:
     init_us_2    :      0.01s CPU      0.01s WALL (     300 calls)
     cegterg      :      0.19s CPU      0.21s WALL (     120 calls)

     Called by sum_band:
     sum_band:bec :      0.00s CPU      0.00s WALL (     120 calls)
     addusdens    :      0.01s CPU      0.01s WALL (       6 calls)

     Called by *egterg:
     h_psi        :      0.13s CPU      0.15s WALL (     391 calls)
     s_psi        :      0.00s CPU      0.01s WALL (     391 calls)
     g_psi        :      0.00s CPU      0.00s WALL (     251 calls)
     cdiaghg      :      0.03s CPU      0.03s WALL (     351 calls)

     Called by h_psi:
     h_psi:pot    :      0.13s CPU      0.15s WALL (     391 calls)
     h_psi:calbec :      0.01s CPU      0.01s WALL (     391 calls)
     vloc_psi     :      0.11s CPU      0.13s WALL (     391 calls)
     add_vuspsi   :      0.00s CPU      0.01s WALL (     391 calls)

     General routines
     calbec       :      0.01s CPU      0.02s WALL (     611 calls)
     fft          :      0.01s CPU      0.01s WALL (      93 calls)
     ffts         :      0.00s CPU      0.00s WALL (       6 calls)
     fftw         :      0.12s CPU      0.14s WALL (    4494 calls)

     Parallel routines
     fft_scatt_xy :      0.01s CPU      0.02s WALL (    4593 calls)
     fft_scatt_yz :      0.06s CPU      0.07s WALL (    4593 calls)

     PWSCF        :     1.68s CPU         1.87s WALL


   This run was terminated on:  19:55:56  25Mar2024            

=------------------------------------------------------------------------------=
   JOB DONE.
=------------------------------------------------------------------------------=
