
     Program PWSCF v.6.3MaX starts on 25Mar2024 at 20: 1:41 

     This program is part of the open-source Quantum ESPRESSO suite
     for quantum simulation of materials; please cite
         "P. Giannozzi et al., J. Phys.:Condens. Matter 21 395502 (2009);
         "P. Giannozzi et al., J. Phys.:Condens. Matter 29 465901 (2017);
          URL http://www.quantum-espresso.org", 
     in publications or presentations arising from this work. More details at
     http://www.quantum-espresso.org/quote

     Parallel version (MPI), running on     5 processors

     MPI processes distributed on     1 nodes
     R & G space division:  proc/nbgrp/npool/nimage =       5
     Waiting for input...
     Reading input from standard input

     Current dimensions of program PWSCF are:
     Max number of different atomic species (ntypx) = 10
     Max number of k-points (npk) =  40000
     Max angular momentum in pseudopotentials (lmaxx) =  3
               file Al.pbe-n-kjpaw_psl.1.0.0.UPF: wavefunction(s)  3S 3P renormalized

     Subspace diagonalization in iterative solution of the eigenvalue problem:
     a serial algorithm will be used


     Parallelization info
     --------------------
     sticks:   dense  smooth     PW     G-vecs:    dense   smooth      PW
     Min          81      81     25                 1065     1065     192
     Max          82      82     26                 1066     1066     195
     Sum         409     409    127                 5329     5329     965



     bravais-lattice index     =            2
     lattice parameter (alat)  =       7.6500  a.u.
     unit-cell volume          =     111.9243 (a.u.)^3
     number of atoms/cell      =            1
     number of atomic types    =            1
     number of electrons       =         3.00
     number of Kohn-Sham states=            6
     kinetic-energy cutoff     =      50.0000  Ry
     charge density cutoff     =     200.0000  Ry
     convergence threshold     =      1.0E-08
     mixing beta               =       0.7000
     number of iterations used =            8  plain     mixing
     Exchange-correlation      = SLA PW PBX PBC ( 1  4  3  4 0 0)

     celldm(1)=   7.650000  celldm(2)=   0.000000  celldm(3)=   0.000000
     celldm(4)=   0.000000  celldm(5)=   0.000000  celldm(6)=   0.000000

     crystal axes: (cart. coord. in units of alat)
               a(1) = (  -0.500000   0.000000   0.500000 )  
               a(2) = (   0.000000   0.500000   0.500000 )  
               a(3) = (  -0.500000   0.500000   0.000000 )  

     reciprocal axes: (cart. coord. in units 2 pi/alat)
               b(1) = ( -1.000000 -1.000000  1.000000 )  
               b(2) = (  1.000000  1.000000  1.000000 )  
               b(3) = ( -1.000000  1.000000 -1.000000 )  


     PseudoPot. # 1 for Al read from file:
     /home/lorenzo/pseudos/Al/Al.pbe-n-kjpaw_psl.1.0.0.UPF
     MD5 check sum: 502b6b27b9c6270cab5dd1084b96fa6d
     Pseudo is Projector augmented-wave + core cor, Zval =  3.0
     Generated using "atomic" code by A. Dal Corso v.6.3
     Shape of augmentation charge: PSQ
     Using radial grid of 1135 points,  6 beta functions with: 
                l(1) =   0
                l(2) =   0
                l(3) =   1
                l(4) =   1
                l(5) =   2
                l(6) =   2
     Q(r) pseudized with 0 coefficients 


     atomic species   valence    mass     pseudopotential
        Al             3.00    26.98150     Al( 1.00)

     48 Sym. Ops., with inversion, found



   Cartesian axes

     site n.     atom                  positions (alat units)
         1           Al  tau(   1) = (   0.0000000   0.0000000   0.0000000  )

     number of k points=    56  gaussian smearing, width (Ry)=  0.0100
                       cart. coord. in units 2pi/alat
        k(    1) = (   0.0000000   0.0000000   0.0000000), wk =   0.0015026
        k(    2) = (  -0.0909091   0.0909091  -0.0909091), wk =   0.0120210
        k(    3) = (  -0.1818182   0.1818182  -0.1818182), wk =   0.0120210
        k(    4) = (  -0.2727273   0.2727273  -0.2727273), wk =   0.0120210
        k(    5) = (  -0.3636364   0.3636364  -0.3636364), wk =   0.0120210
        k(    6) = (  -0.4545455   0.4545455  -0.4545455), wk =   0.0120210
        k(    7) = (   0.0000000   0.1818182   0.0000000), wk =   0.0090158
        k(    8) = (  -0.0909091   0.2727273  -0.0909091), wk =   0.0360631
        k(    9) = (  -0.1818182   0.3636364  -0.1818182), wk =   0.0360631
        k(   10) = (  -0.2727273   0.4545455  -0.2727273), wk =   0.0360631
        k(   11) = (  -0.3636364   0.5454545  -0.3636364), wk =   0.0360631
        k(   12) = (   0.5454545  -0.3636364   0.5454545), wk =   0.0360631
        k(   13) = (   0.4545455  -0.2727273   0.4545455), wk =   0.0360631
        k(   14) = (   0.3636364  -0.1818182   0.3636364), wk =   0.0360631
        k(   15) = (   0.2727273  -0.0909091   0.2727273), wk =   0.0360631
        k(   16) = (   0.1818182  -0.0000000   0.1818182), wk =   0.0180316
        k(   17) = (   0.0000000   0.3636364   0.0000000), wk =   0.0090158
        k(   18) = (  -0.0909091   0.4545455  -0.0909091), wk =   0.0360631
        k(   19) = (  -0.1818182   0.5454545  -0.1818182), wk =   0.0360631
        k(   20) = (  -0.2727273   0.6363636  -0.2727273), wk =   0.0360631
        k(   21) = (   0.6363636  -0.2727273   0.6363636), wk =   0.0360631
        k(   22) = (   0.5454545  -0.1818182   0.5454545), wk =   0.0360631
        k(   23) = (   0.4545455  -0.0909091   0.4545455), wk =   0.0360631
        k(   24) = (   0.3636364   0.0000000   0.3636364), wk =   0.0180316
        k(   25) = (   0.0000000   0.5454545   0.0000000), wk =   0.0090158
        k(   26) = (  -0.0909091   0.6363636  -0.0909091), wk =   0.0360631
        k(   27) = (  -0.1818182   0.7272727  -0.1818182), wk =   0.0360631
        k(   28) = (   0.7272727  -0.1818182   0.7272727), wk =   0.0360631
        k(   29) = (   0.6363636  -0.0909091   0.6363636), wk =   0.0360631
        k(   30) = (   0.5454545   0.0000000   0.5454545), wk =   0.0180316
        k(   31) = (   0.0000000   0.7272727   0.0000000), wk =   0.0090158
        k(   32) = (  -0.0909091   0.8181818  -0.0909091), wk =   0.0360631
        k(   33) = (   0.8181818  -0.0909091   0.8181818), wk =   0.0360631
        k(   34) = (   0.7272727   0.0000000   0.7272727), wk =   0.0180316
        k(   35) = (   0.0000000   0.9090909   0.0000000), wk =   0.0090158
        k(   36) = (   0.9090909  -0.0000000   0.9090909), wk =   0.0180316
        k(   37) = (  -0.1818182   0.3636364   0.0000000), wk =   0.0360631
        k(   38) = (  -0.2727273   0.4545455  -0.0909091), wk =   0.0721262
        k(   39) = (  -0.3636364   0.5454545  -0.1818182), wk =   0.0721262
        k(   40) = (   0.5454545  -0.3636364   0.7272727), wk =   0.0721262
        k(   41) = (  -0.1818182   0.5454545   0.0000000), wk =   0.0360631
        k(   42) = (  -0.2727273   0.6363636  -0.0909091), wk =   0.0721262
        k(   43) = (   0.6363636  -0.2727273   0.8181818), wk =   0.0721262
        k(   44) = (   0.5454545  -0.1818182   0.7272727), wk =   0.0721262
        k(   45) = (   0.4545455  -0.0909091   0.6363636), wk =   0.0721262
        k(   46) = (   0.3636364   0.0000000   0.5454545), wk =   0.0360631
        k(   47) = (  -0.1818182   0.7272727   0.0000000), wk =   0.0360631
        k(   48) = (   0.7272727  -0.1818182   0.9090909), wk =   0.0721262
        k(   49) = (   0.6363636  -0.0909091   0.8181818), wk =   0.0721262
        k(   50) = (   0.5454545   0.0000000   0.7272727), wk =   0.0360631
        k(   51) = (   0.8181818  -0.0909091   1.0000000), wk =   0.0360631
        k(   52) = (   0.7272727   0.0000000   0.9090909), wk =   0.0360631
        k(   53) = (   0.6363636  -0.2727273   1.0000000), wk =   0.0360631
        k(   54) = (   0.5454545  -0.1818182   0.9090909), wk =   0.0721262
        k(   55) = (   0.6363636  -0.0909091   1.0000000), wk =   0.0360631
        k(   56) = (   0.5454545   0.0000000   0.9090909), wk =   0.0360631

     Dense  grid:     5329 G-vectors     FFT dimensions: (  25,  25,  25)

     Estimated max dynamical RAM per process >       6.04 MB

     Estimated total dynamical RAM >      30.20 MB

     Initial potential from superposition of free atoms

     starting charge    2.99771, renormalised to    3.00000
     Starting wfcs are    4 randomized atomic wfcs +    2 random wfcs
     Checking if some PAW data can be deallocated... 

     total cpu time spent up to now is        1.1 secs

     Self-consistent Calculation

     iteration #  1     ecut=    50.00 Ry     beta= 0.70
     Davidson diagonalization with overlap
     ethr =  1.00E-02,  avg # of iterations =  4.7

     Threshold (ethr) on eigenvalues was too large:
     Diagonalizing with lowered threshold

     Davidson diagonalization with overlap
     ethr =  1.82E-04,  avg # of iterations =  2.0

     total cpu time spent up to now is        2.2 secs

     total energy              =     -39.50355558 Ry
     Harris-Foulkes estimate   =     -39.50472227 Ry
     estimated scf accuracy    <       0.00541476 Ry

     iteration #  2     ecut=    50.00 Ry     beta= 0.70
     Davidson diagonalization with overlap
     ethr =  1.80E-04,  avg # of iterations =  1.0

     total cpu time spent up to now is        2.5 secs

     total energy              =     -39.50351420 Ry
     Harris-Foulkes estimate   =     -39.50360259 Ry
     estimated scf accuracy    <       0.00039497 Ry

     iteration #  3     ecut=    50.00 Ry     beta= 0.70
     Davidson diagonalization with overlap
     ethr =  1.32E-05,  avg # of iterations =  1.7

     total cpu time spent up to now is        2.9 secs

     total energy              =     -39.50352264 Ry
     Harris-Foulkes estimate   =     -39.50352276 Ry
     estimated scf accuracy    <       0.00000047 Ry

     iteration #  4     ecut=    50.00 Ry     beta= 0.70
     Davidson diagonalization with overlap
     ethr =  1.56E-08,  avg # of iterations =  2.9

     total cpu time spent up to now is        3.3 secs

     total energy              =     -39.50352397 Ry
     Harris-Foulkes estimate   =     -39.50352399 Ry
     estimated scf accuracy    <       0.00000002 Ry

     iteration #  5     ecut=    50.00 Ry     beta= 0.70
     Davidson diagonalization with overlap
     ethr =  6.73E-10,  avg # of iterations =  1.1

     total cpu time spent up to now is        3.6 secs

     End of self-consistent calculation

          k = 0.0000 0.0000 0.0000 (   645 PWs)   bands (ev):

    -3.2500  20.4333  20.4333  21.8933  21.8934  21.8934

          k =-0.0909 0.0909-0.0909 (   658 PWs)   bands (ev):

    -3.0260  17.5229  19.7908  19.7908  22.5825  22.8723

          k =-0.1818 0.1818-0.1818 (   661 PWs)   bands (ev):

    -2.3564  13.8795  19.0604  19.0604  22.3556  23.6852

          k =-0.2727 0.2727-0.2727 (   658 PWs)   bands (ev):

    -1.2473  10.4543  18.6531  18.6531  22.1437  22.1508

          k =-0.3636 0.3636-0.3636 (   658 PWs)   bands (ev):

     0.2912   7.3511  18.6096  18.6096  20.7257  20.7257

          k =-0.4545 0.4545-0.4545 (   670 PWs)   bands (ev):

     2.2445   4.6113  18.9385  18.9385  19.6484  19.6484

          k = 0.0000 0.1818 0.0000 (   665 PWs)   bands (ev):

    -2.9515  18.5316  18.5316  18.8388  21.2263  24.2217

          k =-0.0909 0.2727-0.0909 (   662 PWs)   bands (ev):

    -2.4306  15.2015  17.6076  18.9520  21.5546  22.1900

          k =-0.1818 0.3636-0.1818 (   657 PWs)   bands (ev):

    -1.4685  11.7266  17.0527  18.6123  19.9163  23.6943

          k =-0.2727 0.4545-0.2727 (   664 PWs)   bands (ev):

    -0.0738   8.5252  16.8740  18.2716  18.5210  23.1903

          k =-0.3636 0.5455-0.3636 (   659 PWs)   bands (ev):

     1.7407   5.6681  17.0473  17.0741  18.7390  22.0169

          k = 0.5455-0.3636 0.5455 (   665 PWs)   bands (ev):

     3.1672   3.9797  16.1892  17.6542  19.3647  21.1957

          k = 0.4545-0.2727 0.4545 (   661 PWs)   bands (ev):

     1.0903   6.5780  15.7246  18.6117  20.3750  20.7448

          k = 0.3636-0.1818 0.3636 (   657 PWs)   bands (ev):

    -0.5860   9.5501  15.6590  19.9167  20.6834  21.7456

          k = 0.2727-0.0909 0.2727 (   661 PWs)   bands (ev):

    -1.8378  12.8316  16.0071  20.8337  21.6448  23.3550

          k = 0.1818-0.0000 0.1818 (   660 PWs)   bands (ev):

    -2.6536  16.0415  17.0445  21.0151  22.1946  23.2888

          k = 0.0000 0.3636 0.0000 (   665 PWs)   bands (ev):

    -2.0598  16.5327  16.5327  16.6707  19.4904  19.8639

          k =-0.0909 0.4545-0.0909 (   665 PWs)   bands (ev):

    -1.2474  13.3164  15.8398  17.1329  17.4087  20.3884

          k =-0.1818 0.5455-0.1818 (   666 PWs)   bands (ev):

    -0.0011  10.0783  15.5265  15.5284  17.1805  22.5090

          k =-0.2727 0.6364-0.2727 (   674 PWs)   bands (ev):

     1.6671   7.1297  14.1217  15.5983  17.3325  24.7428

          k = 0.6364-0.2727 0.6364 (   672 PWs)   bands (ev):

     3.7287   4.5488  13.1140  16.0500  17.8594  23.8242

          k = 0.5455-0.1818 0.5455 (   673 PWs)   bands (ev):

     2.3157   6.2103  12.5213  16.8837  18.7813  23.2561

          k = 0.4545-0.0909 0.4545 (   665 PWs)   bands (ev):

     0.5093   8.9969  12.3840  18.0966  20.0813  23.0319

          k = 0.3636 0.0000 0.3636 (   658 PWs)   bands (ev):

    -0.8796  11.6715  13.1106  19.6733  21.7035  22.7502

          k = 0.0000 0.5455 0.0000 (   657 PWs)   bands (ev):

    -0.5864  14.9431  14.9978  15.0134  15.0134  18.4914

          k =-0.0909 0.6364-0.0909 (   668 PWs)   bands (ev):

     0.5079  11.9390  13.0492  14.5712  15.8491  19.2024

          k =-0.1818 0.7273-0.1818 (   670 PWs)   bands (ev):

     2.0235   8.9636  11.4841  14.5114  16.0865  21.5859

          k = 0.7273-0.1818 0.7273 (   673 PWs)   bands (ev):

     3.9374   6.2876  10.3318  14.8336  16.5279  24.5069

          k = 0.6364-0.0909 0.6364 (   675 PWs)   bands (ev):

     3.9531   6.2191   9.6423  15.5387  17.3442  26.1252

          k = 0.5455 0.0000 0.5455 (   672 PWs)   bands (ev):

     2.0282   8.3690   9.8650  16.6272  18.5447  26.0482

          k = 0.0000 0.7273 0.0000 (   672 PWs)   bands (ev):

     1.4469  10.9090  13.7715  13.9993  13.9993  17.4715

          k =-0.0909 0.8182-0.0909 (   670 PWs)   bands (ev):

     2.8011   9.1842  11.1448  13.8104  15.0070  18.4443

          k = 0.8182-0.0909 0.8182 (   678 PWs)   bands (ev):

     4.5250   7.8577   8.5052  14.0034  15.5218  21.1023

          k = 0.7273 0.0000 0.7273 (   674 PWs)   bands (ev):

     5.9694   6.1723   7.6212  14.5790  16.2506  24.3006

          k = 0.0000 0.9091 0.0000 (   676 PWs)   bands (ev):

     3.9632   7.3589  13.1820  13.4927  13.4927  16.9336

          k = 0.9091-0.0000 0.9091 (   666 PWs)   bands (ev):

     5.0770   6.3965  10.8646  13.5570  14.7240  18.1847

          k =-0.1818 0.3636 0.0000 (   669 PWs)   bands (ev):

    -1.7638  13.8694  15.0921  19.6991  19.8082  21.6212

          k =-0.2727 0.4545-0.0909 (   655 PWs)   bands (ev):

    -0.6594  10.9217  14.2115  17.8311  20.0472  23.1076

          k =-0.3636 0.5455-0.1818 (   667 PWs)   bands (ev):

     0.8724   7.8858  14.0980  16.3191  20.1111  22.3536

          k = 0.5455-0.3636 0.7273 (   666 PWs)   bands (ev):

     2.8158   5.1717  14.3984  15.2126  20.4653  21.2838

          k =-0.1818 0.5455 0.0000 (   666 PWs)   bands (ev):

    -0.2935  12.2245  13.5166  15.3088  18.2653  20.3387

          k =-0.2727 0.6364-0.0909 (   666 PWs)   bands (ev):

     1.0886   9.5410  12.8249  13.6717  18.8163  22.1604

          k = 0.6364-0.2727 0.8182 (   671 PWs)   bands (ev):

     2.8838   6.7669  12.2472  13.1163  19.1693  23.9727

          k = 0.5455-0.1818 0.7273 (   674 PWs)   bands (ev):

     4.2931   5.0988  11.4184  13.6693  19.8197  23.2499

          k = 0.4545-0.0909 0.6364 (   672 PWs)   bands (ev):

     2.2430   7.6093  11.0169  14.6654  20.8186  22.7229

          k = 0.3636 0.0000 0.5455 (   660 PWs)   bands (ev):

     0.5818  10.0203  11.5023  16.0611  22.0264  22.1008

          k =-0.1818 0.7273 0.0000 (   664 PWs)   bands (ev):

     1.7355  11.1236  11.1456  12.5497  17.1943  19.3872

          k = 0.7273-0.1818 0.9091 (   670 PWs)   bands (ev):

     3.3712   8.6879   9.7741  12.1219  18.0284  21.4749

          k = 0.6364-0.0909 0.8182 (   677 PWs)   bands (ev):

     5.3537   6.2088   8.8007  12.5320  18.6575  24.4322

          k = 0.5455 0.0000 0.7273 (   677 PWs)   bands (ev):

     4.0221   7.2698   8.7358  13.3945  19.5762  25.2948

          k = 0.8182-0.0909 1.0000 (   670 PWs)   bands (ev):

     4.2445   7.6372  10.5722  11.9830  16.6537  18.8867

          k = 0.7273 0.0000 0.9091 (   678 PWs)   bands (ev):

     5.6243   6.9538   8.4729  11.8406  17.7614  21.2365

          k = 0.6364-0.2727 1.0000 (   664 PWs)   bands (ev):

     2.5978   8.9196  10.3608  12.1043  21.0217  22.5455

          k = 0.5455-0.1818 0.9091 (   671 PWs)   bands (ev):

     4.5029   6.7736  10.0986  11.0122  21.9513  22.8424

          k = 0.6364-0.0909 1.0000 (   674 PWs)   bands (ev):

     5.0852   8.3694   8.4245   9.9754  20.4962  22.1956

          k = 0.5455 0.0000 0.9091 (   677 PWs)   bands (ev):

     6.4658   6.7208   8.1272  10.0082  21.7408  24.5639

     the Fermi energy is     7.8626 ev

!    total energy              =     -39.50352397 Ry
     Harris-Foulkes estimate   =     -39.50352397 Ry
     estimated scf accuracy    <          1.0E-10 Ry

     total all-electron energy =      -485.646304 Ry

     The total energy is the sum of the following terms:

     one-electron contribution =       3.15188703 Ry
     hartree contribution      =       0.00578020 Ry
     xc contribution           =      -2.58791489 Ry
     ewald contribution        =      -5.39395542 Ry
     one-center paw contrib.   =     -34.67900425 Ry
     smearing contrib. (-TS)   =      -0.00031664 Ry

     convergence has been achieved in   5 iterations

     Forces acting on atoms (cartesian axes, Ry/au):

     atom    1 type  1   force =     0.00000000    0.00000000    0.00000000

     Total force =     0.000000     Total SCF correction =     0.000000


     Computing stress (Cartesian axis) and pressure

          total   stress  (Ry/bohr**3)                   (kbar)     P=   -4.01
  -0.00002724   0.00000000   0.00000000         -4.01      0.00      0.00
   0.00000000  -0.00002724  -0.00000000          0.00     -4.01     -0.00
   0.00000000  -0.00000000  -0.00002724          0.00     -0.00     -4.01


     Writing output data file Al.save/

     init_run     :      0.41s CPU      0.44s WALL (       1 calls)
     electrons    :      2.35s CPU      2.51s WALL (       1 calls)
     forces       :      0.03s CPU      0.03s WALL (       1 calls)
     stress       :      0.18s CPU      0.19s WALL (       1 calls)

     Called by init_run:
     wfcinit      :      0.14s CPU      0.14s WALL (       1 calls)
     potinit      :      0.12s CPU      0.14s WALL (       1 calls)
     hinit0       :      0.13s CPU      0.13s WALL (       1 calls)

     Called by electrons:
     c_bands      :      1.55s CPU      1.64s WALL (       6 calls)
     sum_band     :      0.32s CPU      0.32s WALL (       6 calls)
     v_of_rho     :      0.02s CPU      0.02s WALL (       6 calls)
     newd         :      0.04s CPU      0.04s WALL (       6 calls)
     PAW_pot      :      0.54s CPU      0.62s WALL (       6 calls)
     mix_rho      :      0.00s CPU      0.00s WALL (       6 calls)

     Called by c_bands:
     init_us_2    :      0.07s CPU      0.08s WALL (     840 calls)
     cegterg      :      1.44s CPU      1.53s WALL (     336 calls)

     Called by sum_band:
     sum_band:bec :      0.00s CPU      0.00s WALL (     336 calls)
     addusdens    :      0.03s CPU      0.03s WALL (       6 calls)

     Called by *egterg:
     h_psi        :      1.22s CPU      1.30s WALL (    1148 calls)
     s_psi        :      0.04s CPU      0.04s WALL (    1148 calls)
     g_psi        :      0.00s CPU      0.00s WALL (     756 calls)
     cdiaghg      :      0.11s CPU      0.12s WALL (    1036 calls)

     Called by h_psi:
     h_psi:pot    :      1.21s CPU      1.29s WALL (    1148 calls)
     h_psi:calbec :      0.07s CPU      0.07s WALL (    1148 calls)
     vloc_psi     :      1.10s CPU      1.17s WALL (    1148 calls)
     add_vuspsi   :      0.04s CPU      0.04s WALL (    1148 calls)

     General routines
     calbec       :      0.11s CPU      0.11s WALL (    1764 calls)
     fft          :      0.02s CPU      0.02s WALL (      93 calls)
     ffts         :      0.00s CPU      0.00s WALL (       6 calls)
     fftw         :      1.22s CPU      1.29s WALL (   12810 calls)

     Parallel routines
     fft_scatt_xy :      0.09s CPU      0.09s WALL (   12909 calls)
     fft_scatt_yz :      0.37s CPU      0.39s WALL (   12909 calls)

     PWSCF        :     3.68s CPU         3.94s WALL


   This run was terminated on:  20: 1:45  25Mar2024            

=------------------------------------------------------------------------------=
   JOB DONE.
=------------------------------------------------------------------------------=
