
     Program PWSCF v.6.3MaX starts on 25Mar2024 at 19:55:59 

     This program is part of the open-source Quantum ESPRESSO suite
     for quantum simulation of materials; please cite
         "P. Giannozzi et al., J. Phys.:Condens. Matter 21 395502 (2009);
         "P. Giannozzi et al., J. Phys.:Condens. Matter 29 465901 (2017);
          URL http://www.quantum-espresso.org", 
     in publications or presentations arising from this work. More details at
     http://www.quantum-espresso.org/quote

     Parallel version (MPI), running on     5 processors

     MPI processes distributed on     1 nodes
     R & G space division:  proc/nbgrp/npool/nimage =       5
     Waiting for input...
     Reading input from standard input

     Current dimensions of program PWSCF are:
     Max number of different atomic species (ntypx) = 10
     Max number of k-points (npk) =  40000
     Max angular momentum in pseudopotentials (lmaxx) =  3
               file Al.pbe-n-kjpaw_psl.1.0.0.UPF: wavefunction(s)  3S 3P renormalized

     Subspace diagonalization in iterative solution of the eigenvalue problem:
     a serial algorithm will be used


     Parallelization info
     --------------------
     sticks:   dense  smooth     PW     G-vecs:    dense   smooth      PW
     Min          32      32     12                  272      272      66
     Max          33      33     13                  273      273      67
     Sum         163     163     61                 1363     1363     331



     bravais-lattice index     =            2
     lattice parameter (alat)  =       7.6500  a.u.
     unit-cell volume          =     111.9243 (a.u.)^3
     number of atoms/cell      =            1
     number of atomic types    =            1
     number of electrons       =         3.00
     number of Kohn-Sham states=            6
     kinetic-energy cutoff     =      20.0000  Ry
     charge density cutoff     =      80.0000  Ry
     convergence threshold     =      1.0E-08
     mixing beta               =       0.7000
     number of iterations used =            8  plain     mixing
     Exchange-correlation      = SLA PW PBX PBC ( 1  4  3  4 0 0)

     celldm(1)=   7.650000  celldm(2)=   0.000000  celldm(3)=   0.000000
     celldm(4)=   0.000000  celldm(5)=   0.000000  celldm(6)=   0.000000

     crystal axes: (cart. coord. in units of alat)
               a(1) = (  -0.500000   0.000000   0.500000 )  
               a(2) = (   0.000000   0.500000   0.500000 )  
               a(3) = (  -0.500000   0.500000   0.000000 )  

     reciprocal axes: (cart. coord. in units 2 pi/alat)
               b(1) = ( -1.000000 -1.000000  1.000000 )  
               b(2) = (  1.000000  1.000000  1.000000 )  
               b(3) = ( -1.000000  1.000000 -1.000000 )  


     PseudoPot. # 1 for Al read from file:
     /home/lorenzo/pseudos/Al/Al.pbe-n-kjpaw_psl.1.0.0.UPF
     MD5 check sum: 502b6b27b9c6270cab5dd1084b96fa6d
     Pseudo is Projector augmented-wave + core cor, Zval =  3.0
     Generated using "atomic" code by A. Dal Corso v.6.3
     Shape of augmentation charge: PSQ
     Using radial grid of 1135 points,  6 beta functions with: 
                l(1) =   0
                l(2) =   0
                l(3) =   1
                l(4) =   1
                l(5) =   2
                l(6) =   2
     Q(r) pseudized with 0 coefficients 


     atomic species   valence    mass     pseudopotential
        Al             3.00    26.98150     Al( 1.00)

     48 Sym. Ops., with inversion, found



   Cartesian axes

     site n.     atom                  positions (alat units)
         1           Al  tau(   1) = (   0.0000000   0.0000000   0.0000000  )

     number of k points=    29  gaussian smearing, width (Ry)=  0.0100
                       cart. coord. in units 2pi/alat
        k(    1) = (   0.0000000   0.0000000   0.0000000), wk =   0.0039062
        k(    2) = (  -0.1250000   0.1250000  -0.1250000), wk =   0.0312500
        k(    3) = (  -0.2500000   0.2500000  -0.2500000), wk =   0.0312500
        k(    4) = (  -0.3750000   0.3750000  -0.3750000), wk =   0.0312500
        k(    5) = (   0.5000000  -0.5000000   0.5000000), wk =   0.0156250
        k(    6) = (   0.0000000   0.2500000   0.0000000), wk =   0.0234375
        k(    7) = (  -0.1250000   0.3750000  -0.1250000), wk =   0.0937500
        k(    8) = (  -0.2500000   0.5000000  -0.2500000), wk =   0.0937500
        k(    9) = (   0.6250000  -0.3750000   0.6250000), wk =   0.0937500
        k(   10) = (   0.5000000  -0.2500000   0.5000000), wk =   0.0937500
        k(   11) = (   0.3750000  -0.1250000   0.3750000), wk =   0.0937500
        k(   12) = (   0.2500000   0.0000000   0.2500000), wk =   0.0468750
        k(   13) = (   0.0000000   0.5000000   0.0000000), wk =   0.0234375
        k(   14) = (  -0.1250000   0.6250000  -0.1250000), wk =   0.0937500
        k(   15) = (   0.7500000  -0.2500000   0.7500000), wk =   0.0937500
        k(   16) = (   0.6250000  -0.1250000   0.6250000), wk =   0.0937500
        k(   17) = (   0.5000000   0.0000000   0.5000000), wk =   0.0468750
        k(   18) = (   0.0000000   0.7500000   0.0000000), wk =   0.0234375
        k(   19) = (   0.8750000  -0.1250000   0.8750000), wk =   0.0937500
        k(   20) = (   0.7500000   0.0000000   0.7500000), wk =   0.0468750
        k(   21) = (   0.0000000  -1.0000000   0.0000000), wk =   0.0117188
        k(   22) = (  -0.2500000   0.5000000   0.0000000), wk =   0.0937500
        k(   23) = (   0.6250000  -0.3750000   0.8750000), wk =   0.1875000
        k(   24) = (   0.5000000  -0.2500000   0.7500000), wk =   0.0937500
        k(   25) = (   0.7500000  -0.2500000   1.0000000), wk =   0.0937500
        k(   26) = (   0.6250000  -0.1250000   0.8750000), wk =   0.1875000
        k(   27) = (   0.5000000   0.0000000   0.7500000), wk =   0.0937500
        k(   28) = (  -0.2500000  -1.0000000   0.0000000), wk =   0.0468750
        k(   29) = (  -0.5000000  -1.0000000   0.0000000), wk =   0.0234375

     Dense  grid:     1363 G-vectors     FFT dimensions: (  15,  15,  15)

     Estimated max dynamical RAM per process >       1.97 MB

     Estimated total dynamical RAM >       9.84 MB

     Initial potential from superposition of free atoms

     starting charge    2.99771, renormalised to    3.00000
     Starting wfcs are    4 randomized atomic wfcs +    2 random wfcs
     Checking if some PAW data can be deallocated... 

     total cpu time spent up to now is        0.9 secs

     Self-consistent Calculation

     iteration #  1     ecut=    20.00 Ry     beta= 0.70
     Davidson diagonalization with overlap
     ethr =  1.00E-02,  avg # of iterations =  4.5

     Threshold (ethr) on eigenvalues was too large:
     Diagonalizing with lowered threshold

     Davidson diagonalization with overlap
     ethr =  1.85E-04,  avg # of iterations =  1.3

     total cpu time spent up to now is        1.2 secs

     total energy              =     -39.50222145 Ry
     Harris-Foulkes estimate   =     -39.50335216 Ry
     estimated scf accuracy    <       0.00549286 Ry

     iteration #  2     ecut=    20.00 Ry     beta= 0.70
     Davidson diagonalization with overlap
     ethr =  1.83E-04,  avg # of iterations =  1.0

     total cpu time spent up to now is        1.3 secs

     total energy              =     -39.50217643 Ry
     Harris-Foulkes estimate   =     -39.50226506 Ry
     estimated scf accuracy    <       0.00040923 Ry

     iteration #  3     ecut=    20.00 Ry     beta= 0.70
     Davidson diagonalization with overlap
     ethr =  1.36E-05,  avg # of iterations =  1.9

     total cpu time spent up to now is        1.5 secs

     total energy              =     -39.50218431 Ry
     Harris-Foulkes estimate   =     -39.50218444 Ry
     estimated scf accuracy    <       0.00000045 Ry

     iteration #  4     ecut=    20.00 Ry     beta= 0.70
     Davidson diagonalization with overlap
     ethr =  1.49E-08,  avg # of iterations =  2.7

     total cpu time spent up to now is        1.6 secs

     total energy              =     -39.50218577 Ry
     Harris-Foulkes estimate   =     -39.50218579 Ry
     estimated scf accuracy    <       0.00000003 Ry

     iteration #  5     ecut=    20.00 Ry     beta= 0.70
     Davidson diagonalization with overlap
     ethr =  9.81E-10,  avg # of iterations =  1.2

     total cpu time spent up to now is        1.8 secs

     End of self-consistent calculation

          k = 0.0000 0.0000 0.0000 (   169 PWs)   bands (ev):

    -3.2476  20.4550  20.4550  21.8961  21.8961  21.8961

          k =-0.1250 0.1250-0.1250 (   169 PWs)   bands (ev):

    -2.8246  16.1554  19.4997  19.4997  22.5390  23.4418

          k =-0.2500 0.2500-0.2500 (   162 PWs)   bands (ev):

    -1.5627  11.2901  18.7324  18.7324  22.1862  22.5702

          k =-0.3750 0.3750-0.3750 (   162 PWs)   bands (ev):

     0.5159   6.9917  18.6422  18.6422  20.5880  20.5881

          k = 0.5000-0.5000 0.5000 (   168 PWs)   bands (ev):

     3.2796   3.4834  19.2141  19.2141  19.3044  19.3044

          k = 0.0000 0.2500 0.0000 (   169 PWs)   bands (ev):

    -2.6838  17.7410  17.7410  18.0096  20.7444  22.4624

          k =-0.1250 0.3750-0.1250 (   166 PWs)   bands (ev):

    -1.7025  13.1493  16.6771  18.2016  19.4303  21.9565

          k =-0.2500 0.5000-0.2500 (   168 PWs)   bands (ev):

     0.1021   8.6890  16.3291  17.0587  18.0363  24.0533

          k = 0.6250-0.3750 0.6250 (   168 PWs)   bands (ev):

     2.6970   4.8644  15.4313  16.7015  18.4744  22.5434

          k = 0.5000-0.2500 0.5000 (   168 PWs)   bands (ev):

     1.7479   6.0568  14.5509  17.7950  19.6587  21.7016

          k = 0.3750-0.1250 0.3750 (   165 PWs)   bands (ev):

    -0.5892  10.0897  14.4511  19.5899  21.5440  21.5499

          k = 0.2500 0.0000 0.2500 (   164 PWs)   bands (ev):

    -2.1220  14.2975  15.5268  21.5558  21.8406  23.1889

          k = 0.0000 0.5000 0.0000 (   165 PWs)   bands (ev):

    -1.0058  15.3414  15.3527  15.3527  16.0996  18.8133

          k =-0.1250 0.6250-0.1250 (   165 PWs)   bands (ev):

     0.5141  11.0761  13.4282  14.7548  16.2278  20.2324

          k = 0.7500-0.2500 0.7500 (   171 PWs)   bands (ev):

     2.8268   7.1042  11.5037  14.8808  16.5683  23.9044

          k = 0.6250-0.1250 0.6250 (   174 PWs)   bands (ev):

     3.7733   5.8847  10.3814  15.7314  17.5579  25.4598

          k = 0.5000 0.0000 0.5000 (   170 PWs)   bands (ev):

     1.2014   9.0973  10.5961  17.3076  19.2742  25.4292

          k = 0.0000 0.7500 0.0000 (   170 PWs)   bands (ev):

     1.7411  10.4372  13.6821  13.9118  13.9118  17.3826

          k = 0.8750-0.1250 0.8750 (   172 PWs)   bands (ev):

     3.7389   8.2288  10.0641  13.7935  15.1623  19.2949

          k = 0.7500 0.0000 0.7500 (   172 PWs)   bands (ev):

     5.9789   6.5040   7.4515  14.3991  16.0430  23.4881

          k = 0.0000-1.0000 0.0000 (   174 PWs)   bands (ev):

     4.9429   6.2555  13.1232  13.4319  13.4319  16.8715

          k =-0.2500 0.5000 0.0000 (   166 PWs)   bands (ev):

    -0.4509  11.7034  13.0967  16.6149  19.9797  21.7271

          k = 0.6250-0.3750 0.8750 (   169 PWs)   bands (ev):

     1.6102   7.9931  12.4234  14.4792  20.5988  22.6824

          k = 0.5000-0.2500 0.7500 (   168 PWs)   bands (ev):

     4.3236   4.5735  12.8243  13.2821  21.1204  21.5554

          k = 0.7500-0.2500 1.0000 (   176 PWs)   bands (ev):

     2.2848  10.1401  10.8505  11.7306  18.4879  20.4743

          k = 0.6250-0.1250 0.8750 (   170 PWs)   bands (ev):

     4.8032   6.9310   9.3102  11.4660  19.6670  23.7877

          k = 0.5000 0.0000 0.7500 (   171 PWs)   bands (ev):

     3.9038   7.5365   9.0008  12.5705  20.8796  24.1257

          k =-0.2500-1.0000 0.0000 (   172 PWs)   bands (ev):

     5.4607   6.7973   9.6193  11.1187  17.9806  20.0190

          k =-0.5000-1.0000 0.0000 (   176 PWs)   bands (ev):

     7.0163   7.0163   8.0339   8.9372  23.6513  23.6513

     the Fermi energy is     7.8882 ev

!    total energy              =     -39.50218577 Ry
     Harris-Foulkes estimate   =     -39.50218577 Ry
     estimated scf accuracy    <          3.0E-10 Ry

     total all-electron energy =      -485.644966 Ry

     The total energy is the sum of the following terms:

     one-electron contribution =       3.15324671 Ry
     hartree contribution      =       0.00616665 Ry
     xc contribution           =      -2.58823010 Ry
     ewald contribution        =      -5.39395546 Ry
     one-center paw contrib.   =     -34.67909998 Ry
     smearing contrib. (-TS)   =      -0.00031359 Ry

     convergence has been achieved in   5 iterations

     Forces acting on atoms (cartesian axes, Ry/au):

     atom    1 type  1   force =     0.00000000    0.00000000    0.00000000

     Total force =     0.000000     Total SCF correction =     0.000000


     Computing stress (Cartesian axis) and pressure

          total   stress  (Ry/bohr**3)                   (kbar)     P=   -4.94
  -0.00003360  -0.00000000   0.00000000         -4.94     -0.00      0.00
  -0.00000000  -0.00003360   0.00000000         -0.00     -4.94      0.00
   0.00000000  -0.00000000  -0.00003360          0.00     -0.00     -4.94


     Writing output data file Al.save/

     init_run     :      0.20s CPU      0.22s WALL (       1 calls)
     electrons    :      0.77s CPU      0.91s WALL (       1 calls)
     forces       :      0.01s CPU      0.01s WALL (       1 calls)
     stress       :      0.03s CPU      0.03s WALL (       1 calls)

     Called by init_run:
     wfcinit      :      0.02s CPU      0.02s WALL (       1 calls)
     potinit      :      0.09s CPU      0.10s WALL (       1 calls)
     hinit0       :      0.07s CPU      0.07s WALL (       1 calls)

     Called by electrons:
     c_bands      :      0.27s CPU      0.31s WALL (       6 calls)
     sum_band     :      0.05s CPU      0.06s WALL (       6 calls)
     v_of_rho     :      0.01s CPU      0.01s WALL (       6 calls)
     newd         :      0.01s CPU      0.01s WALL (       6 calls)
     PAW_pot      :      0.51s CPU      0.61s WALL (       6 calls)
     mix_rho      :      0.00s CPU      0.00s WALL (       6 calls)

     Called by c_bands:
     init_us_2    :      0.01s CPU      0.01s WALL (     435 calls)
     cegterg      :      0.25s CPU      0.29s WALL (     174 calls)

     Called by sum_band:
     sum_band:bec :      0.00s CPU      0.00s WALL (     174 calls)
     addusdens    :      0.01s CPU      0.01s WALL (       6 calls)

     Called by *egterg:
     h_psi        :      0.18s CPU      0.20s WALL (     571 calls)
     s_psi        :      0.01s CPU      0.01s WALL (     571 calls)
     g_psi        :      0.00s CPU      0.00s WALL (     368 calls)
     cdiaghg      :      0.04s CPU      0.05s WALL (     513 calls)

     Called by h_psi:
     h_psi:pot    :      0.17s CPU      0.20s WALL (     571 calls)
     h_psi:calbec :      0.01s CPU      0.02s WALL (     571 calls)
     vloc_psi     :      0.15s CPU      0.17s WALL (     571 calls)
     add_vuspsi   :      0.01s CPU      0.01s WALL (     571 calls)

     General routines
     calbec       :      0.02s CPU      0.02s WALL (     890 calls)
     fft          :      0.01s CPU      0.01s WALL (      93 calls)
     ffts         :      0.00s CPU      0.00s WALL (       6 calls)
     fftw         :      0.16s CPU      0.19s WALL (    6504 calls)

     Parallel routines
     fft_scatt_xy :      0.02s CPU      0.02s WALL (    6603 calls)
     fft_scatt_yz :      0.08s CPU      0.09s WALL (    6603 calls)

     PWSCF        :     1.70s CPU         1.91s WALL


   This run was terminated on:  19:56: 1  25Mar2024            

=------------------------------------------------------------------------------=
   JOB DONE.
=------------------------------------------------------------------------------=
