
     Program PWSCF v.6.3MaX starts on 25Mar2024 at 19:55:10 

     This program is part of the open-source Quantum ESPRESSO suite
     for quantum simulation of materials; please cite
         "P. Giannozzi et al., J. Phys.:Condens. Matter 21 395502 (2009);
         "P. Giannozzi et al., J. Phys.:Condens. Matter 29 465901 (2017);
          URL http://www.quantum-espresso.org", 
     in publications or presentations arising from this work. More details at
     http://www.quantum-espresso.org/quote

     Parallel version (MPI), running on     5 processors

     MPI processes distributed on     1 nodes
     R & G space division:  proc/nbgrp/npool/nimage =       5
     Waiting for input...
     Reading input from standard input

     Current dimensions of program PWSCF are:
     Max number of different atomic species (ntypx) = 10
     Max number of k-points (npk) =  40000
     Max angular momentum in pseudopotentials (lmaxx) =  3
               file Al.pbe-nl-kjpaw_psl.1.0.0.UPF: wavefunction(s)  3S 3P renormalized

     Subspace diagonalization in iterative solution of the eigenvalue problem:
     a serial algorithm will be used


     Parallelization info
     --------------------
     sticks:   dense  smooth     PW     G-vecs:    dense   smooth      PW
     Min          24      24     11                  178      178      45
     Max          25      25     11                  181      181      46
     Sum         121     121     55                  893      893     229



     bravais-lattice index     =            2
     lattice parameter (alat)  =       7.6500  a.u.
     unit-cell volume          =     111.9243 (a.u.)^3
     number of atoms/cell      =            1
     number of atomic types    =            1
     number of electrons       =         3.00
     number of Kohn-Sham states=            6
     kinetic-energy cutoff     =      15.0000  Ry
     charge density cutoff     =      60.0000  Ry
     convergence threshold     =      1.0E-08
     mixing beta               =       0.7000
     number of iterations used =            8  plain     mixing
     Exchange-correlation      = SLA PW PBX PBC ( 1  4  3  4 0 0)

     celldm(1)=   7.650000  celldm(2)=   0.000000  celldm(3)=   0.000000
     celldm(4)=   0.000000  celldm(5)=   0.000000  celldm(6)=   0.000000

     crystal axes: (cart. coord. in units of alat)
               a(1) = (  -0.500000   0.000000   0.500000 )  
               a(2) = (   0.000000   0.500000   0.500000 )  
               a(3) = (  -0.500000   0.500000   0.000000 )  

     reciprocal axes: (cart. coord. in units 2 pi/alat)
               b(1) = ( -1.000000 -1.000000  1.000000 )  
               b(2) = (  1.000000  1.000000  1.000000 )  
               b(3) = ( -1.000000  1.000000 -1.000000 )  


     PseudoPot. # 1 for Al read from file:
     /home/lorenzo/pseudos/Al/Al.pbe-nl-kjpaw_psl.1.0.0.UPF
     MD5 check sum: 8cf6d98cc7ef3f4b729b574060f3a10f
     Pseudo is Projector augmented-wave + core cor, Zval =  3.0
     Generated using "atomic" code by A. Dal Corso v.6.3
     Shape of augmentation charge: PSQ
     Using radial grid of 1135 points,  4 beta functions with: 
                l(1) =   0
                l(2) =   0
                l(3) =   1
                l(4) =   1
     Q(r) pseudized with 0 coefficients 


     atomic species   valence    mass     pseudopotential
        Al             3.00    26.98150     Al( 1.00)

     48 Sym. Ops., with inversion, found



   Cartesian axes

     site n.     atom                  positions (alat units)
         1           Al  tau(   1) = (   0.0000000   0.0000000   0.0000000  )

     number of k points=    35  gaussian smearing, width (Ry)=  0.0100
                       cart. coord. in units 2pi/alat
        k(    1) = (   0.0000000   0.0000000   0.0000000), wk =   0.0027435
        k(    2) = (  -0.1111111   0.1111111  -0.1111111), wk =   0.0219479
        k(    3) = (  -0.2222222   0.2222222  -0.2222222), wk =   0.0219479
        k(    4) = (  -0.3333333   0.3333333  -0.3333333), wk =   0.0219479
        k(    5) = (  -0.4444444   0.4444444  -0.4444444), wk =   0.0219479
        k(    6) = (   0.0000000   0.2222222   0.0000000), wk =   0.0164609
        k(    7) = (  -0.1111111   0.3333333  -0.1111111), wk =   0.0658436
        k(    8) = (  -0.2222222   0.4444444  -0.2222222), wk =   0.0658436
        k(    9) = (  -0.3333333   0.5555556  -0.3333333), wk =   0.0658436
        k(   10) = (   0.5555556  -0.3333333   0.5555556), wk =   0.0658436
        k(   11) = (   0.4444444  -0.2222222   0.4444444), wk =   0.0658436
        k(   12) = (   0.3333333  -0.1111111   0.3333333), wk =   0.0658436
        k(   13) = (   0.2222222  -0.0000000   0.2222222), wk =   0.0329218
        k(   14) = (   0.0000000   0.4444444   0.0000000), wk =   0.0164609
        k(   15) = (  -0.1111111   0.5555556  -0.1111111), wk =   0.0658436
        k(   16) = (  -0.2222222   0.6666667  -0.2222222), wk =   0.0658436
        k(   17) = (   0.6666667  -0.2222222   0.6666667), wk =   0.0658436
        k(   18) = (   0.5555556  -0.1111111   0.5555556), wk =   0.0658436
        k(   19) = (   0.4444444   0.0000000   0.4444444), wk =   0.0329218
        k(   20) = (   0.0000000   0.6666667   0.0000000), wk =   0.0164609
        k(   21) = (  -0.1111111   0.7777778  -0.1111111), wk =   0.0658436
        k(   22) = (   0.7777778  -0.1111111   0.7777778), wk =   0.0658436
        k(   23) = (   0.6666667  -0.0000000   0.6666667), wk =   0.0329218
        k(   24) = (   0.0000000   0.8888889   0.0000000), wk =   0.0164609
        k(   25) = (   0.8888889   0.0000000   0.8888889), wk =   0.0329218
        k(   26) = (  -0.2222222   0.4444444   0.0000000), wk =   0.0658436
        k(   27) = (  -0.3333333   0.5555556  -0.1111111), wk =   0.1316872
        k(   28) = (   0.5555556  -0.3333333   0.7777778), wk =   0.1316872
        k(   29) = (  -0.2222222   0.6666667   0.0000000), wk =   0.0658436
        k(   30) = (   0.6666667  -0.2222222   0.8888889), wk =   0.1316872
        k(   31) = (   0.5555556  -0.1111111   0.7777778), wk =   0.1316872
        k(   32) = (   0.4444444   0.0000000   0.6666667), wk =   0.0658436
        k(   33) = (   0.7777778  -0.1111111   1.0000000), wk =   0.0658436
        k(   34) = (   0.6666667  -0.0000000   0.8888889), wk =   0.0658436
        k(   35) = (   0.5555556  -0.1111111   1.0000000), wk =   0.0658436

     Dense  grid:      893 G-vectors     FFT dimensions: (  15,  15,  15)

     Estimated max dynamical RAM per process >       0.55 MB

     Estimated total dynamical RAM >       2.76 MB

     Initial potential from superposition of free atoms

     starting charge    2.99771, renormalised to    3.00000
     Starting wfcs are    4 randomized atomic wfcs +    2 random wfcs
     Checking if some PAW data can be deallocated... 

     total cpu time spent up to now is        0.7 secs

     Self-consistent Calculation

     iteration #  1     ecut=    15.00 Ry     beta= 0.70
     Davidson diagonalization with overlap
     ethr =  1.00E-02,  avg # of iterations =  4.4

     Threshold (ethr) on eigenvalues was too large:
     Diagonalizing with lowered threshold

     Davidson diagonalization with overlap
     ethr =  1.91E-04,  avg # of iterations =  1.7

     total cpu time spent up to now is        1.0 secs

     total energy              =     -39.49861797 Ry
     Harris-Foulkes estimate   =     -39.50009197 Ry
     estimated scf accuracy    <       0.00564723 Ry

     iteration #  2     ecut=    15.00 Ry     beta= 0.70
     Davidson diagonalization with overlap
     ethr =  1.88E-04,  avg # of iterations =  1.0

     total cpu time spent up to now is        1.2 secs

     total energy              =     -39.49859243 Ry
     Harris-Foulkes estimate   =     -39.49869292 Ry
     estimated scf accuracy    <       0.00039549 Ry

     iteration #  3     ecut=    15.00 Ry     beta= 0.70
     Davidson diagonalization with overlap
     ethr =  1.32E-05,  avg # of iterations =  1.6

     total cpu time spent up to now is        1.3 secs

     total energy              =     -39.49860911 Ry
     Harris-Foulkes estimate   =     -39.49860951 Ry
     estimated scf accuracy    <       0.00000136 Ry

     iteration #  4     ecut=    15.00 Ry     beta= 0.70
     Davidson diagonalization with overlap
     ethr =  4.55E-08,  avg # of iterations =  3.0

     total cpu time spent up to now is        1.4 secs

     total energy              =     -39.49861091 Ry
     Harris-Foulkes estimate   =     -39.49861091 Ry
     estimated scf accuracy    <       0.00000008 Ry

     iteration #  5     ecut=    15.00 Ry     beta= 0.70
     Davidson diagonalization with overlap
     ethr =  2.75E-09,  avg # of iterations =  1.0

     total cpu time spent up to now is        1.5 secs

     total energy              =     -39.49861093 Ry
     Harris-Foulkes estimate   =     -39.49861091 Ry
     estimated scf accuracy    <       0.00000005 Ry

     iteration #  6     ecut=    15.00 Ry     beta= 0.70
     Davidson diagonalization with overlap
     ethr =  1.61E-09,  avg # of iterations =  1.0

     total cpu time spent up to now is        1.6 secs

     End of self-consistent calculation

          k = 0.0000 0.0000 0.0000 (   113 PWs)   bands (ev):

    -3.2472  20.6612  20.6612  21.8843  21.8843  21.8843

          k =-0.1111 0.1111-0.1111 (   113 PWs)   bands (ev):

    -2.9130  16.7902  19.7332  19.7332  22.6096  23.3078

          k =-0.2222 0.2222-0.2222 (   107 PWs)   bands (ev):

    -1.9145  12.3719  18.9298  18.9298  22.2968  23.2235

          k =-0.3333 0.3333-0.3333 (   111 PWs)   bands (ev):

    -0.2652   8.3709  18.6575  18.6575  21.2974  21.2974

          k =-0.4444 0.4444-0.4444 (   108 PWs)   bands (ev):

     2.0134   4.9095  18.9530  18.9530  19.8796  19.8796

          k = 0.0000 0.2222 0.0000 (   113 PWs)   bands (ev):

    -2.8017  18.1313  18.1313  18.4930  20.9487  23.3399

          k =-0.1111 0.3333-0.1111 (   112 PWs)   bands (ev):

    -2.0253  14.0157  17.0878  18.6021  20.4982  21.9907

          k =-0.2222 0.4444-0.2222 (   109 PWs)   bands (ev):

    -0.5939   9.9081  16.6183  18.2310  18.3444  24.4398

          k =-0.3333 0.5556-0.3333 (   110 PWs)   bands (ev):

     1.4736   6.2773  16.5717  16.7235  18.4701  22.8669

          k = 0.5556-0.3333 0.5556 (   112 PWs)   bands (ev):

     3.1852   4.1719  15.4697  17.4028  19.2165  21.8097

          k = 0.4444-0.2222 0.4444 (   109 PWs)   bands (ev):

     0.7155   7.4236  14.9704  18.6619  20.5398  21.3452

          k = 0.3333-0.1111 0.3333 (   106 PWs)   bands (ev):

    -1.1426  11.2096  15.0964  20.4252  21.4622  22.4065

          k = 0.2222-0.0000 0.2222 (   115 PWs)   bands (ev):

    -2.3577  15.0534  16.1859  21.5307  22.1417  23.5294

          k = 0.0000 0.4444 0.0000 (   113 PWs)   bands (ev):

    -1.4733  15.8294  15.8294  15.9707  17.5438  19.2524

          k =-0.1111 0.5556-0.1111 (   115 PWs)   bands (ev):

    -0.2663  11.9687  15.0119  15.1609  16.6595  20.2835

          k =-0.2222 0.6667-0.2222 (   111 PWs)   bands (ev):

     1.5790   8.2406  13.0893  15.0715  16.7946  23.3448

          k = 0.6667-0.2222 0.6667 (   109 PWs)   bands (ev):

     4.0234   5.0199  11.7719  15.5612  17.3883  25.2345

          k = 0.5556-0.1111 0.5556 (   109 PWs)   bands (ev):

     2.3350   7.0563  11.1082  16.6289  18.5672  24.5678

          k = 0.4444 0.0000 0.4444 (   113 PWs)   bands (ev):

     0.2800  10.1040  11.5819  18.2669  20.2923  24.1470

          k = 0.0000 0.6667 0.0000 (   113 PWs)   bands (ev):

     0.7124  12.2571  14.1998  14.2947  14.2947  17.7983

          k =-0.1111 0.7778-0.1111 (   110 PWs)   bands (ev):

     2.3248  10.0664  10.7762  14.0055  15.4047  19.1873

          k = 0.7778-0.1111 0.7778 (   108 PWs)   bands (ev):

     4.5202   7.3785   8.6330  14.2986  15.9678  22.6629

          k = 0.6667-0.0000 0.6667 (   108 PWs)   bands (ev):

     4.5668   6.7983   8.2603  15.1731  16.9928  26.6406

          k = 0.0000 0.8889 0.0000 (   112 PWs)   bands (ev):

     3.6756   7.7391  13.3209  13.5211  13.5211  17.0188

          k = 0.8889 0.0000 0.8889 (   110 PWs)   bands (ev):

     5.1472   6.4934  10.3355  13.6186  14.9777  18.8078

          k =-0.2222 0.4444 0.0000 (   112 PWs)   bands (ev):

    -1.0328  12.5879  13.9072  17.9151  19.9816  21.7007

          k =-0.3333 0.5556-0.1111 (   109 PWs)   bands (ev):

     0.6062   9.1380  13.1137  15.8274  20.4022  23.0980

          k = 0.5556-0.3333 0.7778 (   110 PWs)   bands (ev):

     2.8687   5.7424  13.3527  14.3374  20.7559  21.8189

          k =-0.2222 0.6667 0.0000 (   112 PWs)   bands (ev):

     1.1463  10.9333  12.1803  12.8306  18.3974  20.3794

          k = 0.6667-0.2222 0.8889 (   108 PWs)   bands (ev):

     3.1813   7.8822  10.8998  11.9785  19.2774  23.1051

          k = 0.5556-0.1111 0.7778 (   107 PWs)   bands (ev):

     4.8686   5.8092   9.8548  12.6105  20.0931  24.3801

          k = 0.4444 0.0000 0.6667 (   110 PWs)   bands (ev):

     2.4405   8.4522   9.9263  13.9151  21.3721  23.3179

          k = 0.7778-0.1111 1.0000 (   108 PWs)   bands (ev):

     4.0990   8.1521  10.1057  11.5519  17.5803  19.6645

          k = 0.6667-0.0000 0.8889 (   106 PWs)   bands (ev):

     5.9722   7.1834   7.6568  11.5305  18.8844  22.7957

          k = 0.5556-0.1111 1.0000 (   107 PWs)   bands (ev):

     5.3614   7.6241   8.8914   9.6846  22.5418  23.4685

     the Fermi energy is     7.8422 ev

!    total energy              =     -39.49861093 Ry
     Harris-Foulkes estimate   =     -39.49861093 Ry
     estimated scf accuracy    <          2.6E-10 Ry

     total all-electron energy =      -485.641391 Ry

     The total energy is the sum of the following terms:

     one-electron contribution =       3.15610667 Ry
     hartree contribution      =       0.00623735 Ry
     xc contribution           =      -2.58791657 Ry
     ewald contribution        =      -5.39395544 Ry
     one-center paw contrib.   =     -34.67867169 Ry
     smearing contrib. (-TS)   =      -0.00041125 Ry

     convergence has been achieved in   6 iterations

     Forces acting on atoms (cartesian axes, Ry/au):

     atom    1 type  1   force =     0.00000000    0.00000000    0.00000000

     Total force =     0.000000     Total SCF correction =     0.000000


     Computing stress (Cartesian axis) and pressure

          total   stress  (Ry/bohr**3)                   (kbar)     P=    0.72
   0.00000490   0.00000000   0.00000000          0.72      0.00      0.00
   0.00000000   0.00000490   0.00000000          0.00      0.72      0.00
   0.00000000   0.00000000   0.00000490          0.00      0.00      0.72


     Writing output data file Al.save/

     init_run     :      0.19s CPU      0.20s WALL (       1 calls)
     electrons    :      0.79s CPU      0.90s WALL (       1 calls)
     forces       :      0.01s CPU      0.01s WALL (       1 calls)
     stress       :      0.01s CPU      0.01s WALL (       1 calls)

     Called by init_run:
     wfcinit      :      0.06s CPU      0.06s WALL (       1 calls)
     potinit      :      0.05s CPU      0.06s WALL (       1 calls)
     hinit0       :      0.07s CPU      0.08s WALL (       1 calls)

     Called by electrons:
     c_bands      :      0.44s CPU      0.49s WALL (       7 calls)
     sum_band     :      0.15s CPU      0.16s WALL (       7 calls)
     v_of_rho     :      0.01s CPU      0.01s WALL (       7 calls)
     newd         :      0.00s CPU      0.00s WALL (       7 calls)
     PAW_pot      :      0.24s CPU      0.28s WALL (       7 calls)
     mix_rho      :      0.01s CPU      0.01s WALL (       7 calls)

     Called by c_bands:
     init_us_2    :      0.01s CPU      0.01s WALL (     595 calls)
     cegterg      :      0.42s CPU      0.47s WALL (     245 calls)

     Called by sum_band:
     sum_band:bec :      0.00s CPU      0.00s WALL (     245 calls)
     addusdens    :      0.00s CPU      0.00s WALL (       7 calls)

     Called by *egterg:
     h_psi        :      0.33s CPU      0.37s WALL (     763 calls)
     s_psi        :      0.00s CPU      0.00s WALL (     763 calls)
     g_psi        :      0.00s CPU      0.00s WALL (     483 calls)
     cdiaghg      :      0.06s CPU      0.07s WALL (     693 calls)

     Called by h_psi:
     h_psi:pot    :      0.33s CPU      0.37s WALL (     763 calls)
     h_psi:calbec :      0.02s CPU      0.03s WALL (     763 calls)
     vloc_psi     :      0.30s CPU      0.33s WALL (     763 calls)
     add_vuspsi   :      0.00s CPU      0.00s WALL (     763 calls)

     General routines
     calbec       :      0.06s CPU      0.07s WALL (    1183 calls)
     fft          :      0.01s CPU      0.01s WALL (     104 calls)
     ffts         :      0.00s CPU      0.00s WALL (       7 calls)
     fftw         :      0.37s CPU      0.41s WALL (    8926 calls)

     Parallel routines
     fft_scatt_xy :      0.02s CPU      0.03s WALL (    9037 calls)
     fft_scatt_yz :      0.24s CPU      0.26s WALL (    9037 calls)

     PWSCF        :     1.51s CPU         1.69s WALL


   This run was terminated on:  19:55:12  25Mar2024            

=------------------------------------------------------------------------------=
   JOB DONE.
=------------------------------------------------------------------------------=
