
     Program PWSCF v.6.3MaX starts on 25Mar2024 at 20: 7:35 

     This program is part of the open-source Quantum ESPRESSO suite
     for quantum simulation of materials; please cite
         "P. Giannozzi et al., J. Phys.:Condens. Matter 21 395502 (2009);
         "P. Giannozzi et al., J. Phys.:Condens. Matter 29 465901 (2017);
          URL http://www.quantum-espresso.org", 
     in publications or presentations arising from this work. More details at
     http://www.quantum-espresso.org/quote

     Parallel version (MPI), running on     5 processors

     MPI processes distributed on     1 nodes
     R & G space division:  proc/nbgrp/npool/nimage =       5
     Waiting for input...
     Reading input from standard input

     Current dimensions of program PWSCF are:
     Max number of different atomic species (ntypx) = 10
     Max number of k-points (npk) =  40000
     Max angular momentum in pseudopotentials (lmaxx) =  3
               file Al.pbe-n-kjpaw_psl.1.0.0.UPF: wavefunction(s)  3S 3P renormalized

     Subspace diagonalization in iterative solution of the eigenvalue problem:
     a serial algorithm will be used


     Parallelization info
     --------------------
     sticks:   dense  smooth     PW     G-vecs:    dense   smooth      PW
     Min         111     111     33                 1758     1758     294
     Max         112     112     35                 1761     1761     295
     Sum         559     559    169                 8801     8801    1471



     bravais-lattice index     =            2
     lattice parameter (alat)  =       7.6500  a.u.
     unit-cell volume          =     111.9243 (a.u.)^3
     number of atoms/cell      =            1
     number of atomic types    =            1
     number of electrons       =         3.00
     number of Kohn-Sham states=            6
     kinetic-energy cutoff     =      70.0000  Ry
     charge density cutoff     =     280.0000  Ry
     convergence threshold     =      1.0E-08
     mixing beta               =       0.7000
     number of iterations used =            8  plain     mixing
     Exchange-correlation      = SLA PW PBX PBC ( 1  4  3  4 0 0)

     celldm(1)=   7.650000  celldm(2)=   0.000000  celldm(3)=   0.000000
     celldm(4)=   0.000000  celldm(5)=   0.000000  celldm(6)=   0.000000

     crystal axes: (cart. coord. in units of alat)
               a(1) = (  -0.500000   0.000000   0.500000 )  
               a(2) = (   0.000000   0.500000   0.500000 )  
               a(3) = (  -0.500000   0.500000   0.000000 )  

     reciprocal axes: (cart. coord. in units 2 pi/alat)
               b(1) = ( -1.000000 -1.000000  1.000000 )  
               b(2) = (  1.000000  1.000000  1.000000 )  
               b(3) = ( -1.000000  1.000000 -1.000000 )  


     PseudoPot. # 1 for Al read from file:
     /home/lorenzo/pseudos/Al/Al.pbe-n-kjpaw_psl.1.0.0.UPF
     MD5 check sum: 502b6b27b9c6270cab5dd1084b96fa6d
     Pseudo is Projector augmented-wave + core cor, Zval =  3.0
     Generated using "atomic" code by A. Dal Corso v.6.3
     Shape of augmentation charge: PSQ
     Using radial grid of 1135 points,  6 beta functions with: 
                l(1) =   0
                l(2) =   0
                l(3) =   1
                l(4) =   1
                l(5) =   2
                l(6) =   2
     Q(r) pseudized with 0 coefficients 


     atomic species   valence    mass     pseudopotential
        Al             3.00    26.98150     Al( 1.00)

     48 Sym. Ops., with inversion, found



   Cartesian axes

     site n.     atom                  positions (alat units)
         1           Al  tau(   1) = (   0.0000000   0.0000000   0.0000000  )

     number of k points=    20  gaussian smearing, width (Ry)=  0.0100
                       cart. coord. in units 2pi/alat
        k(    1) = (   0.0000000   0.0000000   0.0000000), wk =   0.0058309
        k(    2) = (  -0.1428571   0.1428571  -0.1428571), wk =   0.0466472
        k(    3) = (  -0.2857143   0.2857143  -0.2857143), wk =   0.0466472
        k(    4) = (  -0.4285714   0.4285714  -0.4285714), wk =   0.0466472
        k(    5) = (   0.0000000   0.2857143   0.0000000), wk =   0.0349854
        k(    6) = (  -0.1428571   0.4285714  -0.1428571), wk =   0.1399417
        k(    7) = (  -0.2857143   0.5714286  -0.2857143), wk =   0.1399417
        k(    8) = (   0.5714286  -0.2857143   0.5714286), wk =   0.1399417
        k(    9) = (   0.4285714  -0.1428571   0.4285714), wk =   0.1399417
        k(   10) = (   0.2857143  -0.0000000   0.2857143), wk =   0.0699708
        k(   11) = (   0.0000000   0.5714286   0.0000000), wk =   0.0349854
        k(   12) = (  -0.1428571   0.7142857  -0.1428571), wk =   0.1399417
        k(   13) = (   0.7142857  -0.1428571   0.7142857), wk =   0.1399417
        k(   14) = (   0.5714286   0.0000000   0.5714286), wk =   0.0699708
        k(   15) = (   0.0000000   0.8571429   0.0000000), wk =   0.0349854
        k(   16) = (   0.8571429  -0.0000000   0.8571429), wk =   0.0699708
        k(   17) = (  -0.2857143   0.5714286   0.0000000), wk =   0.1399417
        k(   18) = (   0.5714286  -0.2857143   0.8571429), wk =   0.2798834
        k(   19) = (   0.7142857  -0.1428571   1.0000000), wk =   0.1399417
        k(   20) = (   0.5714286   0.0000000   0.8571429), wk =   0.1399417

     Dense  grid:     8801 G-vectors     FFT dimensions: (  30,  30,  30)

     Estimated max dynamical RAM per process >       8.61 MB

     Estimated total dynamical RAM >      43.07 MB

     Initial potential from superposition of free atoms

     starting charge    2.99771, renormalised to    3.00000
     Starting wfcs are    4 randomized atomic wfcs +    2 random wfcs
     Checking if some PAW data can be deallocated... 

     total cpu time spent up to now is        1.0 secs

     Self-consistent Calculation

     iteration #  1     ecut=    70.00 Ry     beta= 0.70
     Davidson diagonalization with overlap
     ethr =  1.00E-02,  avg # of iterations =  4.8

     Threshold (ethr) on eigenvalues was too large:
     Diagonalizing with lowered threshold

     Davidson diagonalization with overlap
     ethr =  1.88E-04,  avg # of iterations =  1.6

     total cpu time spent up to now is        1.5 secs

     total energy              =     -39.50636692 Ry
     Harris-Foulkes estimate   =     -39.50750739 Ry
     estimated scf accuracy    <       0.00557435 Ry

     iteration #  2     ecut=    70.00 Ry     beta= 0.70
     Davidson diagonalization with overlap
     ethr =  1.86E-04,  avg # of iterations =  1.0

     total cpu time spent up to now is        1.7 secs

     total energy              =     -39.50632220 Ry
     Harris-Foulkes estimate   =     -39.50641119 Ry
     estimated scf accuracy    <       0.00041550 Ry

     iteration #  3     ecut=    70.00 Ry     beta= 0.70
     Davidson diagonalization with overlap
     ethr =  1.38E-05,  avg # of iterations =  1.6

     total cpu time spent up to now is        2.0 secs

     total energy              =     -39.50633105 Ry
     Harris-Foulkes estimate   =     -39.50633121 Ry
     estimated scf accuracy    <       0.00000045 Ry

     iteration #  4     ecut=    70.00 Ry     beta= 0.70
     Davidson diagonalization with overlap
     ethr =  1.49E-08,  avg # of iterations =  2.9

     total cpu time spent up to now is        2.2 secs

     total energy              =     -39.50633233 Ry
     Harris-Foulkes estimate   =     -39.50633234 Ry
     estimated scf accuracy    <       0.00000001 Ry

     iteration #  5     ecut=    70.00 Ry     beta= 0.70
     Davidson diagonalization with overlap
     ethr =  4.18E-10,  avg # of iterations =  1.1

     total cpu time spent up to now is        2.4 secs

     End of self-consistent calculation

          k = 0.0000 0.0000 0.0000 (  1067 PWs)   bands (ev):

    -3.2489  20.4345  20.4345  21.8946  21.8946  21.8946

          k =-0.1429 0.1429-0.1429 (  1104 PWs)   bands (ev):

    -2.6966  15.4273  19.3407  19.3407  22.4828  23.6805

          k =-0.2857 0.2857-0.2857 (  1095 PWs)   bands (ev):

    -1.0525   9.9912  18.6254  18.6254  21.9298  22.1340

          k =-0.4286 0.4286-0.4286 (  1113 PWs)   bands (ev):

     1.6464   5.3561  18.8077  18.8077  19.9194  19.9194

          k = 0.0000 0.2857 0.0000 (  1110 PWs)   bands (ev):

    -2.5130  17.3357  17.3357  17.5635  20.4661  21.5237

          k =-0.1429 0.4286-0.1429 (  1105 PWs)   bands (ev):

    -1.2343  12.1261  16.2535  17.7954  18.1957  22.0625

          k =-0.2857 0.5714-0.2857 (  1105 PWs)   bands (ev):

     1.1100   7.2527  15.6949  16.1093  17.8467  23.8495

          k = 0.5714-0.2857 0.5714 (  1114 PWs)   bands (ev):

     3.2353   4.4837  14.2125  16.9060  18.7438  22.4688

          k = 0.4286-0.1429 0.4286 (  1110 PWs)   bands (ev):

     0.2132   8.7677  13.7425  18.6387  20.5961  21.9754

          k = 0.2857-0.0000 0.2857 (  1115 PWs)   bands (ev):

    -1.7809  13.4219  14.7406  21.2019  21.8682  23.2263

          k = 0.0000 0.5714 0.0000 (  1094 PWs)   bands (ev):

    -0.3284  14.3867  14.7427  14.8386  14.8386  18.3208

          k =-0.1429 0.7143-0.1429 (  1104 PWs)   bands (ev):

     1.6416  10.0754  11.5545  14.3721  15.8547  20.3463

          k = 0.7143-0.1429 0.7143 (  1108 PWs)   bands (ev):

     4.6025   5.8702   9.7146  14.8496  16.5546  24.8930

          k = 0.5714 0.0000 0.5714 (  1117 PWs)   bands (ev):

     2.5331   7.9890   9.4778  16.2730  18.1602  26.4385

          k = 0.0000 0.8571 0.0000 (  1110 PWs)   bands (ev):

     3.2116   8.3025  13.2924  13.5868  13.5868  17.0342

          k = 0.8571-0.0000 0.8571 (  1110 PWs)   bands (ev):

     5.2795   6.6050   9.4332  13.7456  15.1544  19.7315

          k =-0.2857 0.5714 0.0000 (  1105 PWs)   bands (ev):

     0.3925  10.7079  12.1457  15.0892  20.1885  21.8981

          k = 0.5714-0.2857 0.8571 (  1112 PWs)   bands (ev):

     3.0592   6.7032  11.7076  12.9602  21.0901  22.3525

          k = 0.7143-0.1429 1.0000 (  1103 PWs)   bands (ev):

     3.9121   8.9577   9.3482  10.9016  18.8862  20.8155

          k = 0.5714 0.0000 0.8571 (  1104 PWs)   bands (ev):

     5.9835   6.6327   8.0697  11.1262  20.5073  24.9049

     the Fermi energy is     7.9587 ev

!    total energy              =     -39.50633233 Ry
     Harris-Foulkes estimate   =     -39.50633233 Ry
     estimated scf accuracy    <          3.0E-10 Ry

     total all-electron energy =      -485.649113 Ry

     The total energy is the sum of the following terms:

     one-electron contribution =       3.14885439 Ry
     hartree contribution      =       0.00619434 Ry
     xc contribution           =      -2.58810764 Ry
     ewald contribution        =      -5.39395538 Ry
     one-center paw contrib.   =     -34.67892724 Ry
     smearing contrib. (-TS)   =      -0.00039079 Ry

     convergence has been achieved in   5 iterations

     Forces acting on atoms (cartesian axes, Ry/au):

     atom    1 type  1   force =     0.00000000    0.00000000    0.00000000

     Total force =     0.000000     Total SCF correction =     0.000000


     Computing stress (Cartesian axis) and pressure

          total   stress  (Ry/bohr**3)                   (kbar)     P=   -8.89
  -0.00006041   0.00000000   0.00000000         -8.89      0.00      0.00
   0.00000000  -0.00006041  -0.00000000          0.00     -8.89     -0.00
   0.00000000  -0.00000000  -0.00006041          0.00     -0.00     -8.89


     Writing output data file Al.save/

     init_run     :      0.32s CPU      0.34s WALL (       1 calls)
     electrons    :      1.32s CPU      1.42s WALL (       1 calls)
     forces       :      0.04s CPU      0.04s WALL (       1 calls)
     stress       :      0.12s CPU      0.13s WALL (       1 calls)

     Called by init_run:
     wfcinit      :      0.04s CPU      0.05s WALL (       1 calls)
     potinit      :      0.10s CPU      0.11s WALL (       1 calls)
     hinit0       :      0.15s CPU      0.15s WALL (       1 calls)

     Called by electrons:
     c_bands      :      0.63s CPU      0.66s WALL (       6 calls)
     sum_band     :      0.19s CPU      0.19s WALL (       6 calls)
     v_of_rho     :      0.03s CPU      0.03s WALL (       6 calls)
     newd         :      0.05s CPU      0.06s WALL (       6 calls)
     PAW_pot      :      0.51s CPU      0.58s WALL (       6 calls)
     mix_rho      :      0.00s CPU      0.00s WALL (       6 calls)

     Called by c_bands:
     init_us_2    :      0.04s CPU      0.04s WALL (     300 calls)
     cegterg      :      0.59s CPU      0.61s WALL (     120 calls)

     Called by sum_band:
     sum_band:bec :      0.00s CPU      0.00s WALL (     120 calls)
     addusdens    :      0.05s CPU      0.05s WALL (       6 calls)

     Called by *egterg:
     h_psi        :      0.51s CPU      0.53s WALL (     400 calls)
     s_psi        :      0.02s CPU      0.02s WALL (     400 calls)
     g_psi        :      0.00s CPU      0.00s WALL (     260 calls)
     cdiaghg      :      0.03s CPU      0.03s WALL (     360 calls)

     Called by h_psi:
     h_psi:pot    :      0.51s CPU      0.53s WALL (     400 calls)
     h_psi:calbec :      0.03s CPU      0.03s WALL (     400 calls)
     vloc_psi     :      0.46s CPU      0.48s WALL (     400 calls)
     add_vuspsi   :      0.02s CPU      0.02s WALL (     400 calls)

     General routines
     calbec       :      0.05s CPU      0.05s WALL (     620 calls)
     fft          :      0.02s CPU      0.02s WALL (      93 calls)
     ffts         :      0.00s CPU      0.00s WALL (       6 calls)
     fftw         :      0.52s CPU      0.54s WALL (    4564 calls)

     Parallel routines
     fft_scatt_xy :      0.05s CPU      0.05s WALL (    4663 calls)
     fft_scatt_yz :      0.13s CPU      0.14s WALL (    4663 calls)

     PWSCF        :     2.52s CPU         2.68s WALL


   This run was terminated on:  20: 7:38  25Mar2024            

=------------------------------------------------------------------------------=
   JOB DONE.
=------------------------------------------------------------------------------=
