
     Program PWSCF v.6.3MaX starts on 25Mar2024 at 19:53:11 

     This program is part of the open-source Quantum ESPRESSO suite
     for quantum simulation of materials; please cite
         "P. Giannozzi et al., J. Phys.:Condens. Matter 21 395502 (2009);
         "P. Giannozzi et al., J. Phys.:Condens. Matter 29 465901 (2017);
          URL http://www.quantum-espresso.org", 
     in publications or presentations arising from this work. More details at
     http://www.quantum-espresso.org/quote

     Parallel version (MPI), running on     5 processors

     MPI processes distributed on     1 nodes
     R & G space division:  proc/nbgrp/npool/nimage =       5
     Waiting for input...
     Reading input from standard input

     Current dimensions of program PWSCF are:
     Max number of different atomic species (ntypx) = 10
     Max number of k-points (npk) =  40000
     Max angular momentum in pseudopotentials (lmaxx) =  3

     Subspace diagonalization in iterative solution of the eigenvalue problem:
     a serial algorithm will be used


     Parallelization info
     --------------------
     sticks:   dense  smooth     PW     G-vecs:    dense   smooth      PW
     Min         161     161     50                 3017     3017     527
     Max         161     161     51                 3018     3018     528
     Sum         805     805    253                15089    15089    2637



     bravais-lattice index     =            2
     lattice parameter (alat)  =       7.6500  a.u.
     unit-cell volume          =     111.9243 (a.u.)^3
     number of atoms/cell      =            1
     number of atomic types    =            1
     number of electrons       =         3.00
     number of Kohn-Sham states=            6
     kinetic-energy cutoff     =     100.0000  Ry
     charge density cutoff     =     400.0000  Ry
     convergence threshold     =      1.0E-08
     mixing beta               =       0.7000
     number of iterations used =            8  plain     mixing
     Exchange-correlation      = PBE ( 1  4  3  4 0 0)

     celldm(1)=   7.650000  celldm(2)=   0.000000  celldm(3)=   0.000000
     celldm(4)=   0.000000  celldm(5)=   0.000000  celldm(6)=   0.000000

     crystal axes: (cart. coord. in units of alat)
               a(1) = (  -0.500000   0.000000   0.500000 )  
               a(2) = (   0.000000   0.500000   0.500000 )  
               a(3) = (  -0.500000   0.500000   0.000000 )  

     reciprocal axes: (cart. coord. in units 2 pi/alat)
               b(1) = ( -1.000000 -1.000000  1.000000 )  
               b(2) = (  1.000000  1.000000  1.000000 )  
               b(3) = ( -1.000000  1.000000 -1.000000 )  


     PseudoPot. # 1 for Al read from file:
     /home/lorenzo/pseudos/Al/Al.pbe-nl-rrkjus_psl.1.0.0.UPF
     MD5 check sum: 6db8691240a1c860ce6448702d298c4b
     Pseudo is Ultrasoft + core correction, Zval =  3.0
     Generated using "atomic" code by A. Dal Corso v.6.3
     Using radial grid of 1135 points,  4 beta functions with: 
                l(1) =   0
                l(2) =   0
                l(3) =   1
                l(4) =   1
     Q(r) pseudized with 0 coefficients 


     atomic species   valence    mass     pseudopotential
        Al             3.00    26.98150     Al( 1.00)

     48 Sym. Ops., with inversion, found



   Cartesian axes

     site n.     atom                  positions (alat units)
         1           Al  tau(   1) = (   0.0000000   0.0000000   0.0000000  )

     number of k points=    29  gaussian smearing, width (Ry)=  0.0100
                       cart. coord. in units 2pi/alat
        k(    1) = (   0.0000000   0.0000000   0.0000000), wk =   0.0039062
        k(    2) = (  -0.1250000   0.1250000  -0.1250000), wk =   0.0312500
        k(    3) = (  -0.2500000   0.2500000  -0.2500000), wk =   0.0312500
        k(    4) = (  -0.3750000   0.3750000  -0.3750000), wk =   0.0312500
        k(    5) = (   0.5000000  -0.5000000   0.5000000), wk =   0.0156250
        k(    6) = (   0.0000000   0.2500000   0.0000000), wk =   0.0234375
        k(    7) = (  -0.1250000   0.3750000  -0.1250000), wk =   0.0937500
        k(    8) = (  -0.2500000   0.5000000  -0.2500000), wk =   0.0937500
        k(    9) = (   0.6250000  -0.3750000   0.6250000), wk =   0.0937500
        k(   10) = (   0.5000000  -0.2500000   0.5000000), wk =   0.0937500
        k(   11) = (   0.3750000  -0.1250000   0.3750000), wk =   0.0937500
        k(   12) = (   0.2500000   0.0000000   0.2500000), wk =   0.0468750
        k(   13) = (   0.0000000   0.5000000   0.0000000), wk =   0.0234375
        k(   14) = (  -0.1250000   0.6250000  -0.1250000), wk =   0.0937500
        k(   15) = (   0.7500000  -0.2500000   0.7500000), wk =   0.0937500
        k(   16) = (   0.6250000  -0.1250000   0.6250000), wk =   0.0937500
        k(   17) = (   0.5000000   0.0000000   0.5000000), wk =   0.0468750
        k(   18) = (   0.0000000   0.7500000   0.0000000), wk =   0.0234375
        k(   19) = (   0.8750000  -0.1250000   0.8750000), wk =   0.0937500
        k(   20) = (   0.7500000   0.0000000   0.7500000), wk =   0.0468750
        k(   21) = (   0.0000000  -1.0000000   0.0000000), wk =   0.0117188
        k(   22) = (  -0.2500000   0.5000000   0.0000000), wk =   0.0937500
        k(   23) = (   0.6250000  -0.3750000   0.8750000), wk =   0.1875000
        k(   24) = (   0.5000000  -0.2500000   0.7500000), wk =   0.0937500
        k(   25) = (   0.7500000  -0.2500000   1.0000000), wk =   0.0937500
        k(   26) = (   0.6250000  -0.1250000   0.8750000), wk =   0.1875000
        k(   27) = (   0.5000000   0.0000000   0.7500000), wk =   0.0937500
        k(   28) = (  -0.2500000  -1.0000000   0.0000000), wk =   0.0468750
        k(   29) = (  -0.5000000  -1.0000000   0.0000000), wk =   0.0234375

     Dense  grid:    15089 G-vectors     FFT dimensions: (  36,  36,  36)

     Estimated max dynamical RAM per process >       5.91 MB

     Estimated total dynamical RAM >      29.56 MB

     Initial potential from superposition of free atoms

     starting charge    2.99771, renormalised to    3.00000
     Starting wfcs are    4 randomized atomic wfcs +    2 random wfcs

     total cpu time spent up to now is        0.6 secs

     Self-consistent Calculation

     iteration #  1     ecut=   100.00 Ry     beta= 0.70
     Davidson diagonalization with overlap
     ethr =  1.00E-02,  avg # of iterations =  5.0

     Threshold (ethr) on eigenvalues was too large:
     Diagonalizing with lowered threshold

     Davidson diagonalization with overlap
     ethr =  1.93E-04,  avg # of iterations =  1.9

     total cpu time spent up to now is        1.6 secs

     total energy              =      -5.03852821 Ry
     Harris-Foulkes estimate   =      -5.03986831 Ry
     estimated scf accuracy    <       0.00569764 Ry

     iteration #  2     ecut=   100.00 Ry     beta= 0.70
     Davidson diagonalization with overlap
     ethr =  1.90E-04,  avg # of iterations =  1.0

     total cpu time spent up to now is        1.8 secs

     total energy              =      -5.03851870 Ry
     Harris-Foulkes estimate   =      -5.03860770 Ry
     estimated scf accuracy    <       0.00040770 Ry

     iteration #  3     ecut=   100.00 Ry     beta= 0.70
     Davidson diagonalization with overlap
     ethr =  1.36E-05,  avg # of iterations =  2.0

     total cpu time spent up to now is        2.1 secs

     total energy              =      -5.03853788 Ry
     Harris-Foulkes estimate   =      -5.03853797 Ry
     estimated scf accuracy    <       0.00000138 Ry

     iteration #  4     ecut=   100.00 Ry     beta= 0.70
     Davidson diagonalization with overlap
     ethr =  4.60E-08,  avg # of iterations =  3.0

     total cpu time spent up to now is        2.4 secs

     total energy              =      -5.03853973 Ry
     Harris-Foulkes estimate   =      -5.03853972 Ry
     estimated scf accuracy    <       0.00000006 Ry

     iteration #  5     ecut=   100.00 Ry     beta= 0.70
     Davidson diagonalization with overlap
     ethr =  2.09E-09,  avg # of iterations =  1.2

     total cpu time spent up to now is        2.7 secs

     total energy              =      -5.03853974 Ry
     Harris-Foulkes estimate   =      -5.03853973 Ry
     estimated scf accuracy    <       0.00000002 Ry

     iteration #  6     ecut=   100.00 Ry     beta= 0.70
     Davidson diagonalization with overlap
     ethr =  7.17E-10,  avg # of iterations =  1.0

     total cpu time spent up to now is        2.9 secs

     End of self-consistent calculation

          k = 0.0000 0.0000 0.0000 (  1917 PWs)   bands (ev):

    -3.2491  20.4401  20.4401  21.8757  21.8758  21.8758

          k =-0.1250 0.1250-0.1250 (  1883 PWs)   bands (ev):

    -2.8262  16.1434  19.4846  19.4846  22.5078  23.4206

          k =-0.2500 0.2500-0.2500 (  1898 PWs)   bands (ev):

    -1.5650  11.2832  18.7174  18.7174  22.1545  22.5461

          k =-0.3750 0.3750-0.3750 (  1889 PWs)   bands (ev):

     0.5132   6.9892  18.6252  18.6252  20.5671  20.5671

          k = 0.5000-0.5000 0.5000 (  1892 PWs)   bands (ev):

     3.2758   3.4828  19.1954  19.1954  19.2885  19.2885

          k = 0.0000 0.2500 0.0000 (  1900 PWs)   bands (ev):

    -2.6855  17.7278  17.7278  17.9918  20.7288  22.4400

          k =-0.1250 0.3750-0.1250 (  1906 PWs)   bands (ev):

    -1.7046  13.1403  16.6645  18.1848  19.4124  21.9347

          k =-0.2500 0.5000-0.2500 (  1887 PWs)   bands (ev):

     0.0996   8.6852  16.3168  17.0440  18.0203  24.0261

          k = 0.6250-0.3750 0.6250 (  1894 PWs)   bands (ev):

     2.6943   4.8622  15.4204  16.6884  18.4578  22.5179

          k = 0.5000-0.2500 0.5000 (  1899 PWs)   bands (ev):

     1.7454   6.0544  14.5408  17.7800  19.6382  21.6779

          k = 0.3750-0.1250 0.3750 (  1890 PWs)   bands (ev):

    -0.5916  10.0838  14.4412  19.5715  21.5194  21.5267

          k = 0.2500 0.0000 0.2500 (  1907 PWs)   bands (ev):

    -2.1242  14.2862  15.5165  21.5335  21.8229  23.1606

          k = 0.0000 0.5000 0.0000 (  1876 PWs)   bands (ev):

    -1.0081  15.3280  15.3405  15.3405  16.0862  18.8019

          k =-0.1250 0.6250-0.1250 (  1900 PWs)   bands (ev):

     0.5116  11.0689  13.4199  14.7431  16.2144  20.2172

          k = 0.7500-0.2500 0.7500 (  1891 PWs)   bands (ev):

     2.8241   7.1005  11.4975  14.8695  16.5557  23.8797

          k = 0.6250-0.1250 0.6250 (  1878 PWs)   bands (ev):

     3.7708   5.8822  10.3763  15.7199  17.5437  25.4290

          k = 0.5000 0.0000 0.5000 (  1883 PWs)   bands (ev):

     1.1987   9.0929  10.5905  17.2938  19.2551  25.4027

          k = 0.0000 0.7500 0.0000 (  1896 PWs)   bands (ev):

     1.7384  10.4326  13.6738  13.8999  13.8999  17.3756

          k = 0.8750-0.1250 0.8750 (  1877 PWs)   bands (ev):

     3.7359   8.2254  10.0586  13.7817  15.1523  19.2816

          k = 0.7500 0.0000 0.7500 (  1890 PWs)   bands (ev):

     5.9748   6.5011   7.4486  14.3876  16.0317  23.4658

          k = 0.0000-1.0000 0.0000 (  1868 PWs)   bands (ev):

     4.9383   6.2558  13.1179  13.4199  13.4199  16.8667

          k =-0.2500 0.5000 0.0000 (  1895 PWs)   bands (ev):

    -0.4532  11.6958  13.0882  16.6013  19.9572  21.7090

          k = 0.6250-0.3750 0.8750 (  1888 PWs)   bands (ev):

     1.6077   7.9890  12.4159  14.4697  20.5762  22.6561

          k = 0.5000-0.2500 0.7500 (  1894 PWs)   bands (ev):

     4.3205   4.5716  12.8160  13.2738  21.0956  21.5330

          k = 0.7500-0.2500 1.0000 (  1876 PWs)   bands (ev):

     2.2824  10.1351  10.8459  11.7232  18.4683  20.4611

          k = 0.6250-0.1250 0.8750 (  1884 PWs)   bands (ev):

     4.8004   6.9277   9.3057  11.4590  19.6461  23.7645

          k = 0.5000 0.0000 0.7500 (  1883 PWs)   bands (ev):

     3.9013   7.5327   8.9963  12.5628  20.8567  24.0919

          k =-0.2500-1.0000 0.0000 (  1888 PWs)   bands (ev):

     5.4563   6.7961   9.6143  11.1114  17.9606  20.0073

          k =-0.5000-1.0000 0.0000 (  1888 PWs)   bands (ev):

     7.0131   7.0131   8.0324   8.9319  23.6201  23.6201

     the Fermi energy is     7.8843 ev

!    total energy              =      -5.03853974 Ry
     Harris-Foulkes estimate   =      -5.03853974 Ry
     estimated scf accuracy    <          1.3E-10 Ry

     The total energy is the sum of the following terms:

     one-electron contribution =       2.93762380 Ry
     hartree contribution      =       0.00648917 Ry
     xc contribution           =      -2.58838396 Ry
     ewald contribution        =      -5.39395538 Ry
     smearing contrib. (-TS)   =      -0.00031337 Ry

     convergence has been achieved in   6 iterations

     Forces acting on atoms (cartesian axes, Ry/au):

     atom    1 type  1   force =     0.00000000    0.00000000    0.00000000

     Total force =     0.000000     Total SCF correction =     0.000000


     Computing stress (Cartesian axis) and pressure

          total   stress  (Ry/bohr**3)                   (kbar)     P=   -4.17
  -0.00002836   0.00000000  -0.00000000         -4.17      0.00     -0.00
   0.00000000  -0.00002836  -0.00000000          0.00     -4.17     -0.00
  -0.00000000   0.00000000  -0.00002836         -0.00      0.00     -4.17


     Writing output data file Al.save/

     init_run     :      0.25s CPU      0.27s WALL (       1 calls)
     electrons    :      2.16s CPU      2.30s WALL (       1 calls)
     forces       :      0.07s CPU      0.07s WALL (       1 calls)
     stress       :      0.15s CPU      0.15s WALL (       1 calls)

     Called by init_run:
     wfcinit      :      0.09s CPU      0.10s WALL (       1 calls)
     potinit      :      0.02s CPU      0.02s WALL (       1 calls)
     hinit0       :      0.13s CPU      0.13s WALL (       1 calls)

     Called by electrons:
     c_bands      :      1.72s CPU      1.84s WALL (       7 calls)
     sum_band     :      0.35s CPU      0.37s WALL (       7 calls)
     v_of_rho     :      0.07s CPU      0.07s WALL (       7 calls)
     newd         :      0.02s CPU      0.02s WALL (       7 calls)
     mix_rho      :      0.00s CPU      0.01s WALL (       7 calls)

     Called by c_bands:
     init_us_2    :      0.06s CPU      0.06s WALL (     493 calls)
     cegterg      :      1.65s CPU      1.77s WALL (     203 calls)

     Called by sum_band:
     sum_band:bec :      0.00s CPU      0.00s WALL (     203 calls)
     addusdens    :      0.02s CPU      0.02s WALL (       7 calls)

     Called by *egterg:
     h_psi        :      1.46s CPU      1.57s WALL (     671 calls)
     s_psi        :      0.02s CPU      0.02s WALL (     671 calls)
     g_psi        :      0.00s CPU      0.00s WALL (     439 calls)
     cdiaghg      :      0.06s CPU      0.07s WALL (     613 calls)

     Called by h_psi:
     h_psi:pot    :      1.45s CPU      1.56s WALL (     671 calls)
     h_psi:calbec :      0.06s CPU      0.06s WALL (     671 calls)
     vloc_psi     :      1.37s CPU      1.47s WALL (     671 calls)
     add_vuspsi   :      0.02s CPU      0.02s WALL (     671 calls)

     General routines
     calbec       :      0.09s CPU      0.09s WALL (    1019 calls)
     fft          :      0.05s CPU      0.05s WALL (     104 calls)
     ffts         :      0.00s CPU      0.00s WALL (       7 calls)
     fftw         :      1.53s CPU      1.65s WALL (    7536 calls)

     Parallel routines
     fft_scatt_xy :      0.12s CPU      0.13s WALL (    7647 calls)
     fft_scatt_yz :      0.43s CPU      0.45s WALL (    7647 calls)

     PWSCF        :     3.02s CPU         3.23s WALL


   This run was terminated on:  19:53:14  25Mar2024            

=------------------------------------------------------------------------------=
   JOB DONE.
=------------------------------------------------------------------------------=
