
     Program PWSCF v.6.3MaX starts on 25Mar2024 at 19:55: 5 

     This program is part of the open-source Quantum ESPRESSO suite
     for quantum simulation of materials; please cite
         "P. Giannozzi et al., J. Phys.:Condens. Matter 21 395502 (2009);
         "P. Giannozzi et al., J. Phys.:Condens. Matter 29 465901 (2017);
          URL http://www.quantum-espresso.org", 
     in publications or presentations arising from this work. More details at
     http://www.quantum-espresso.org/quote

     Parallel version (MPI), running on     5 processors

     MPI processes distributed on     1 nodes
     R & G space division:  proc/nbgrp/npool/nimage =       5
     Waiting for input...
     Reading input from standard input

     Current dimensions of program PWSCF are:
     Max number of different atomic species (ntypx) = 10
     Max number of k-points (npk) =  40000
     Max angular momentum in pseudopotentials (lmaxx) =  3

     Subspace diagonalization in iterative solution of the eigenvalue problem:
     a serial algorithm will be used


     Parallelization info
     --------------------
     sticks:   dense  smooth     PW     G-vecs:    dense   smooth      PW
     Min          24      24     11                  178      178      45
     Max          25      25     11                  181      181      46
     Sum         121     121     55                  893      893     229



     bravais-lattice index     =            2
     lattice parameter (alat)  =       7.6500  a.u.
     unit-cell volume          =     111.9243 (a.u.)^3
     number of atoms/cell      =            1
     number of atomic types    =            1
     number of electrons       =         3.00
     number of Kohn-Sham states=            6
     kinetic-energy cutoff     =      15.0000  Ry
     charge density cutoff     =      60.0000  Ry
     convergence threshold     =      1.0E-08
     mixing beta               =       0.7000
     number of iterations used =            8  plain     mixing
     Exchange-correlation      = PBE ( 1  4  3  4 0 0)

     celldm(1)=   7.650000  celldm(2)=   0.000000  celldm(3)=   0.000000
     celldm(4)=   0.000000  celldm(5)=   0.000000  celldm(6)=   0.000000

     crystal axes: (cart. coord. in units of alat)
               a(1) = (  -0.500000   0.000000   0.500000 )  
               a(2) = (   0.000000   0.500000   0.500000 )  
               a(3) = (  -0.500000   0.500000   0.000000 )  

     reciprocal axes: (cart. coord. in units 2 pi/alat)
               b(1) = ( -1.000000 -1.000000  1.000000 )  
               b(2) = (  1.000000  1.000000  1.000000 )  
               b(3) = ( -1.000000  1.000000 -1.000000 )  


     PseudoPot. # 1 for Al read from file:
     /home/lorenzo/pseudos/Al/Al.pbe-nl-rrkjus_psl.1.0.0.UPF
     MD5 check sum: 6db8691240a1c860ce6448702d298c4b
     Pseudo is Ultrasoft + core correction, Zval =  3.0
     Generated using "atomic" code by A. Dal Corso v.6.3
     Using radial grid of 1135 points,  4 beta functions with: 
                l(1) =   0
                l(2) =   0
                l(3) =   1
                l(4) =   1
     Q(r) pseudized with 0 coefficients 


     atomic species   valence    mass     pseudopotential
        Al             3.00    26.98150     Al( 1.00)

     48 Sym. Ops., with inversion, found



   Cartesian axes

     site n.     atom                  positions (alat units)
         1           Al  tau(   1) = (   0.0000000   0.0000000   0.0000000  )

     number of k points=    29  gaussian smearing, width (Ry)=  0.0100
                       cart. coord. in units 2pi/alat
        k(    1) = (   0.0000000   0.0000000   0.0000000), wk =   0.0039062
        k(    2) = (  -0.1250000   0.1250000  -0.1250000), wk =   0.0312500
        k(    3) = (  -0.2500000   0.2500000  -0.2500000), wk =   0.0312500
        k(    4) = (  -0.3750000   0.3750000  -0.3750000), wk =   0.0312500
        k(    5) = (   0.5000000  -0.5000000   0.5000000), wk =   0.0156250
        k(    6) = (   0.0000000   0.2500000   0.0000000), wk =   0.0234375
        k(    7) = (  -0.1250000   0.3750000  -0.1250000), wk =   0.0937500
        k(    8) = (  -0.2500000   0.5000000  -0.2500000), wk =   0.0937500
        k(    9) = (   0.6250000  -0.3750000   0.6250000), wk =   0.0937500
        k(   10) = (   0.5000000  -0.2500000   0.5000000), wk =   0.0937500
        k(   11) = (   0.3750000  -0.1250000   0.3750000), wk =   0.0937500
        k(   12) = (   0.2500000   0.0000000   0.2500000), wk =   0.0468750
        k(   13) = (   0.0000000   0.5000000   0.0000000), wk =   0.0234375
        k(   14) = (  -0.1250000   0.6250000  -0.1250000), wk =   0.0937500
        k(   15) = (   0.7500000  -0.2500000   0.7500000), wk =   0.0937500
        k(   16) = (   0.6250000  -0.1250000   0.6250000), wk =   0.0937500
        k(   17) = (   0.5000000   0.0000000   0.5000000), wk =   0.0468750
        k(   18) = (   0.0000000   0.7500000   0.0000000), wk =   0.0234375
        k(   19) = (   0.8750000  -0.1250000   0.8750000), wk =   0.0937500
        k(   20) = (   0.7500000   0.0000000   0.7500000), wk =   0.0468750
        k(   21) = (   0.0000000  -1.0000000   0.0000000), wk =   0.0117188
        k(   22) = (  -0.2500000   0.5000000   0.0000000), wk =   0.0937500
        k(   23) = (   0.6250000  -0.3750000   0.8750000), wk =   0.1875000
        k(   24) = (   0.5000000  -0.2500000   0.7500000), wk =   0.0937500
        k(   25) = (   0.7500000  -0.2500000   1.0000000), wk =   0.0937500
        k(   26) = (   0.6250000  -0.1250000   0.8750000), wk =   0.1875000
        k(   27) = (   0.5000000   0.0000000   0.7500000), wk =   0.0937500
        k(   28) = (  -0.2500000  -1.0000000   0.0000000), wk =   0.0468750
        k(   29) = (  -0.5000000  -1.0000000   0.0000000), wk =   0.0234375

     Dense  grid:      893 G-vectors     FFT dimensions: (  15,  15,  15)

     Estimated max dynamical RAM per process >       0.54 MB

     Estimated total dynamical RAM >       2.70 MB

     Initial potential from superposition of free atoms

     starting charge    2.99771, renormalised to    3.00000
     Starting wfcs are    4 randomized atomic wfcs +    2 random wfcs

     total cpu time spent up to now is        0.5 secs

     Self-consistent Calculation

     iteration #  1     ecut=    15.00 Ry     beta= 0.70
     Davidson diagonalization with overlap
     ethr =  1.00E-02,  avg # of iterations =  4.4

     Threshold (ethr) on eigenvalues was too large:
     Diagonalizing with lowered threshold

     Davidson diagonalization with overlap
     ethr =  1.92E-04,  avg # of iterations =  1.9

     total cpu time spent up to now is        0.7 secs

     total energy              =      -5.03650587 Ry
     Harris-Foulkes estimate   =      -5.03785309 Ry
     estimated scf accuracy    <       0.00568620 Ry

     iteration #  2     ecut=    15.00 Ry     beta= 0.70
     Davidson diagonalization with overlap
     ethr =  1.90E-04,  avg # of iterations =  1.1

     total cpu time spent up to now is        0.7 secs

     total energy              =      -5.03647490 Ry
     Harris-Foulkes estimate   =      -5.03657007 Ry
     estimated scf accuracy    <       0.00040911 Ry

     iteration #  3     ecut=    15.00 Ry     beta= 0.70
     Davidson diagonalization with overlap
     ethr =  1.36E-05,  avg # of iterations =  1.3

     total cpu time spent up to now is        0.8 secs

     total energy              =      -5.03649035 Ry
     Harris-Foulkes estimate   =      -5.03649024 Ry
     estimated scf accuracy    <       0.00000137 Ry

     iteration #  4     ecut=    15.00 Ry     beta= 0.70
     Davidson diagonalization with overlap
     ethr =  4.58E-08,  avg # of iterations =  3.1

     total cpu time spent up to now is        0.8 secs

     total energy              =      -5.03649213 Ry
     Harris-Foulkes estimate   =      -5.03649212 Ry
     estimated scf accuracy    <       0.00000006 Ry

     iteration #  5     ecut=    15.00 Ry     beta= 0.70
     Davidson diagonalization with overlap
     ethr =  2.06E-09,  avg # of iterations =  1.0

     total cpu time spent up to now is        0.9 secs

     total energy              =      -5.03649215 Ry
     Harris-Foulkes estimate   =      -5.03649213 Ry
     estimated scf accuracy    <       0.00000003 Ry

     iteration #  6     ecut=    15.00 Ry     beta= 0.70
     Davidson diagonalization with overlap
     ethr =  8.90E-10,  avg # of iterations =  1.0

     total cpu time spent up to now is        1.0 secs

     End of self-consistent calculation

          k = 0.0000 0.0000 0.0000 (   113 PWs)   bands (ev):

    -3.2453  20.6621  20.6621  21.8816  21.8817  21.8817

          k =-0.1250 0.1250-0.1250 (   116 PWs)   bands (ev):

    -2.8228  16.2129  19.6046  19.6046  22.5633  23.5395

          k =-0.2500 0.2500-0.2500 (   113 PWs)   bands (ev):

    -1.5611  11.3234  18.8002  18.8002  22.2414  22.7076

          k =-0.3750 0.3750-0.3750 (   114 PWs)   bands (ev):

     0.5180   7.0073  18.6987  18.6987  20.6864  20.6864

          k = 0.5000-0.5000 0.5000 (   108 PWs)   bands (ev):

     3.2781   3.4980  19.2010  19.2010  19.4856  19.4856

          k = 0.0000 0.2500 0.0000 (   117 PWs)   bands (ev):

    -2.6821  17.7973  17.7973  18.1410  20.7394  22.6018

          k =-0.1250 0.3750-0.1250 (   113 PWs)   bands (ev):

    -1.7009  13.1897  16.7192  18.2840  19.5082  22.0275

          k =-0.2500 0.5000-0.2500 (   109 PWs)   bands (ev):

     0.1042   8.7101  16.3647  17.1270  18.1030  24.2261

          k = 0.6250-0.3750 0.6250 (   112 PWs)   bands (ev):

     2.7012   4.8744  15.4761  16.7376  18.5431  22.6708

          k = 0.5000-0.2500 0.5000 (   109 PWs)   bands (ev):

     1.7513   6.0699  14.5903  17.8474  19.7366  21.8279

          k = 0.3750-0.1250 0.3750 (   107 PWs)   bands (ev):

    -0.5873  10.1169  14.4883  19.6619  21.6350  21.7099

          k = 0.2500 0.0000 0.2500 (   117 PWs)   bands (ev):

    -2.1208  14.3432  15.5609  21.7626  21.8735  23.3250

          k = 0.0000 0.5000 0.0000 (   101 PWs)   bands (ev):

    -1.0039  15.3847  15.3847  15.4602  16.1699  18.8491

          k =-0.1250 0.6250-0.1250 (   114 PWs)   bands (ev):

     0.5159  11.1021  13.4635  14.7687  16.2937  20.2841

          k = 0.7500-0.2500 0.7500 (   110 PWs)   bands (ev):

     2.8310   7.1186  11.5312  14.8954  16.6391  24.0122

          k = 0.6250-0.1250 0.6250 (   107 PWs)   bands (ev):

     3.7797   5.8966  10.4061  15.7575  17.6367  25.6719

          k = 0.5000 0.0000 0.5000 (   107 PWs)   bands (ev):

     1.2040   9.1240  10.6149  17.3546  19.3540  25.0735

          k = 0.0000 0.7500 0.0000 (   112 PWs)   bands (ev):

     1.7435  10.4640  13.7686  13.9121  13.9121  17.4230

          k = 0.8750-0.1250 0.8750 (   108 PWs)   bands (ev):

     3.7429   8.2506  10.0880  13.7910  15.2328  19.3511

          k = 0.7500 0.0000 0.7500 (   110 PWs)   bands (ev):

     5.9843   6.5186   7.4676  14.4068  16.1077  23.5917

          k = 0.0000-1.0000 0.0000 (   116 PWs)   bands (ev):

     4.9405   6.2796  13.1949  13.4229  13.4229  16.9209

          k =-0.2500 0.5000 0.0000 (   110 PWs)   bands (ev):

    -0.4491  11.7450  13.1160  16.6665  20.0928  21.7713

          k = 0.6250-0.3750 0.8750 (   109 PWs)   bands (ev):

     1.6133   8.0116  12.4515  14.5136  20.6861  22.7922

          k = 0.5000-0.2500 0.7500 (   112 PWs)   bands (ev):

     4.3276   4.5854  12.8644  13.2942  21.1441  21.7178

          k = 0.7500-0.2500 1.0000 (   107 PWs)   bands (ev):

     2.2884  10.1723  10.8879  11.7310  18.5769  20.5247

          k = 0.6250-0.1250 0.8750 (   108 PWs)   bands (ev):

     4.8106   6.9453   9.3321  11.4808  19.7465  23.8821

          k = 0.5000 0.0000 0.7500 (   109 PWs)   bands (ev):

     3.9105   7.5525   9.0173  12.5932  20.9564  24.2845

          k =-0.2500-1.0000 0.0000 (   108 PWs)   bands (ev):

     5.4621   6.8207   9.6453  11.1237  18.0538  20.0722

          k =-0.5000-1.0000 0.0000 (   108 PWs)   bands (ev):

     7.0289   7.0289   8.0642   8.9383  23.7975  24.2027

     the Fermi energy is     7.9074 ev

!    total energy              =      -5.03649215 Ry
     Harris-Foulkes estimate   =      -5.03649215 Ry
     estimated scf accuracy    <          1.1E-10 Ry

     The total energy is the sum of the following terms:

     one-electron contribution =       2.93932645 Ry
     hartree contribution      =       0.00642553 Ry
     xc contribution           =      -2.58797625 Ry
     ewald contribution        =      -5.39395544 Ry
     smearing contrib. (-TS)   =      -0.00031244 Ry

     convergence has been achieved in   6 iterations

     Forces acting on atoms (cartesian axes, Ry/au):

     atom    1 type  1   force =     0.00000000    0.00000000    0.00000000

     Total force =     0.000000     Total SCF correction =     0.000000


     Computing stress (Cartesian axis) and pressure

          total   stress  (Ry/bohr**3)                   (kbar)     P=   -1.91
  -0.00001296   0.00000000   0.00000000         -1.91      0.00      0.00
   0.00000000  -0.00001296  -0.00000000          0.00     -1.91     -0.00
   0.00000000  -0.00000000  -0.00001296          0.00     -0.00     -1.91


     Writing output data file Al.save/

     init_run     :      0.07s CPU      0.08s WALL (       1 calls)
     electrons    :      0.44s CPU      0.53s WALL (       1 calls)
     forces       :      0.03s CPU      0.03s WALL (       1 calls)
     stress       :      0.02s CPU      0.02s WALL (       1 calls)

     Called by init_run:
     wfcinit      :      0.02s CPU      0.03s WALL (       1 calls)
     potinit      :      0.00s CPU      0.00s WALL (       1 calls)
     hinit0       :      0.04s CPU      0.04s WALL (       1 calls)

     Called by electrons:
     c_bands      :      0.34s CPU      0.40s WALL (       7 calls)
     sum_band     :      0.09s CPU      0.10s WALL (       7 calls)
     v_of_rho     :      0.01s CPU      0.01s WALL (       7 calls)
     newd         :      0.00s CPU      0.00s WALL (       7 calls)
     mix_rho      :      0.00s CPU      0.00s WALL (       7 calls)

     Called by c_bands:
     init_us_2    :      0.01s CPU      0.01s WALL (     493 calls)
     cegterg      :      0.32s CPU      0.38s WALL (     203 calls)

     Called by sum_band:
     sum_band:bec :      0.00s CPU      0.00s WALL (     203 calls)
     addusdens    :      0.00s CPU      0.00s WALL (       7 calls)

     Called by *egterg:
     h_psi        :      0.24s CPU      0.28s WALL (     630 calls)
     s_psi        :      0.00s CPU      0.00s WALL (     630 calls)
     g_psi        :      0.00s CPU      0.00s WALL (     398 calls)
     cdiaghg      :      0.05s CPU      0.06s WALL (     572 calls)

     Called by h_psi:
     h_psi:pot    :      0.24s CPU      0.28s WALL (     630 calls)
     h_psi:calbec :      0.01s CPU      0.02s WALL (     630 calls)
     vloc_psi     :      0.21s CPU      0.25s WALL (     630 calls)
     add_vuspsi   :      0.00s CPU      0.00s WALL (     630 calls)

     General routines
     calbec       :      0.03s CPU      0.04s WALL (     978 calls)
     fft          :      0.01s CPU      0.01s WALL (     104 calls)
     ffts         :      0.00s CPU      0.00s WALL (       7 calls)
     fftw         :      0.27s CPU      0.31s WALL (    7362 calls)

     Parallel routines
     fft_scatt_xy :      0.02s CPU      0.02s WALL (    7473 calls)
     fft_scatt_yz :      0.18s CPU      0.20s WALL (    7473 calls)

     PWSCF        :     1.04s CPU         1.20s WALL


   This run was terminated on:  19:55: 6  25Mar2024            

=------------------------------------------------------------------------------=
   JOB DONE.
=------------------------------------------------------------------------------=
