
     Program PWSCF v.6.3MaX starts on 25Mar2024 at 19:55:53 

     This program is part of the open-source Quantum ESPRESSO suite
     for quantum simulation of materials; please cite
         "P. Giannozzi et al., J. Phys.:Condens. Matter 21 395502 (2009);
         "P. Giannozzi et al., J. Phys.:Condens. Matter 29 465901 (2017);
          URL http://www.quantum-espresso.org", 
     in publications or presentations arising from this work. More details at
     http://www.quantum-espresso.org/quote

     Parallel version (MPI), running on     5 processors

     MPI processes distributed on     1 nodes
     R & G space division:  proc/nbgrp/npool/nimage =       5
     Waiting for input...
     Reading input from standard input

     Current dimensions of program PWSCF are:
     Max number of different atomic species (ntypx) = 10
     Max number of k-points (npk) =  40000
     Max angular momentum in pseudopotentials (lmaxx) =  3

     Subspace diagonalization in iterative solution of the eigenvalue problem:
     a serial algorithm will be used


     Parallelization info
     --------------------
     sticks:   dense  smooth     PW     G-vecs:    dense   smooth      PW
     Min          32      32     12                  272      272      66
     Max          33      33     13                  273      273      67
     Sum         163     163     61                 1363     1363     331



     bravais-lattice index     =            2
     lattice parameter (alat)  =       7.6500  a.u.
     unit-cell volume          =     111.9243 (a.u.)^3
     number of atoms/cell      =            1
     number of atomic types    =            1
     number of electrons       =         3.00
     number of Kohn-Sham states=            6
     kinetic-energy cutoff     =      20.0000  Ry
     charge density cutoff     =      80.0000  Ry
     convergence threshold     =      1.0E-08
     mixing beta               =       0.7000
     number of iterations used =            8  plain     mixing
     Exchange-correlation      = PBE ( 1  4  3  4 0 0)

     celldm(1)=   7.650000  celldm(2)=   0.000000  celldm(3)=   0.000000
     celldm(4)=   0.000000  celldm(5)=   0.000000  celldm(6)=   0.000000

     crystal axes: (cart. coord. in units of alat)
               a(1) = (  -0.500000   0.000000   0.500000 )  
               a(2) = (   0.000000   0.500000   0.500000 )  
               a(3) = (  -0.500000   0.500000   0.000000 )  

     reciprocal axes: (cart. coord. in units 2 pi/alat)
               b(1) = ( -1.000000 -1.000000  1.000000 )  
               b(2) = (  1.000000  1.000000  1.000000 )  
               b(3) = ( -1.000000  1.000000 -1.000000 )  


     PseudoPot. # 1 for Al read from file:
     /home/lorenzo/pseudos/Al/Al.pbe-nl-rrkjus_psl.1.0.0.UPF
     MD5 check sum: 6db8691240a1c860ce6448702d298c4b
     Pseudo is Ultrasoft + core correction, Zval =  3.0
     Generated using "atomic" code by A. Dal Corso v.6.3
     Using radial grid of 1135 points,  4 beta functions with: 
                l(1) =   0
                l(2) =   0
                l(3) =   1
                l(4) =   1
     Q(r) pseudized with 0 coefficients 


     atomic species   valence    mass     pseudopotential
        Al             3.00    26.98150     Al( 1.00)

     48 Sym. Ops., with inversion, found



   Cartesian axes

     site n.     atom                  positions (alat units)
         1           Al  tau(   1) = (   0.0000000   0.0000000   0.0000000  )

     number of k points=    16  gaussian smearing, width (Ry)=  0.0100
                       cart. coord. in units 2pi/alat
        k(    1) = (   0.0000000   0.0000000   0.0000000), wk =   0.0092593
        k(    2) = (  -0.1666667   0.1666667  -0.1666667), wk =   0.0740741
        k(    3) = (  -0.3333333   0.3333333  -0.3333333), wk =   0.0740741
        k(    4) = (   0.5000000  -0.5000000   0.5000000), wk =   0.0370370
        k(    5) = (   0.0000000   0.3333333   0.0000000), wk =   0.0555556
        k(    6) = (  -0.1666667   0.5000000  -0.1666667), wk =   0.2222222
        k(    7) = (   0.6666667  -0.3333333   0.6666667), wk =   0.2222222
        k(    8) = (   0.5000000  -0.1666667   0.5000000), wk =   0.2222222
        k(    9) = (   0.3333333   0.0000000   0.3333333), wk =   0.1111111
        k(   10) = (   0.0000000   0.6666667   0.0000000), wk =   0.0555556
        k(   11) = (   0.8333333  -0.1666667   0.8333333), wk =   0.2222222
        k(   12) = (   0.6666667  -0.0000000   0.6666667), wk =   0.1111111
        k(   13) = (   0.0000000  -1.0000000   0.0000000), wk =   0.0277778
        k(   14) = (   0.6666667  -0.3333333   1.0000000), wk =   0.2222222
        k(   15) = (   0.5000000  -0.1666667   0.8333333), wk =   0.2222222
        k(   16) = (  -0.3333333  -1.0000000   0.0000000), wk =   0.1111111

     Dense  grid:     1363 G-vectors     FFT dimensions: (  15,  15,  15)

     Estimated max dynamical RAM per process >       0.67 MB

     Estimated total dynamical RAM >       3.36 MB

     Initial potential from superposition of free atoms

     starting charge    2.99771, renormalised to    3.00000
     Starting wfcs are    4 randomized atomic wfcs +    2 random wfcs

     total cpu time spent up to now is        0.5 secs

     Self-consistent Calculation

     iteration #  1     ecut=    20.00 Ry     beta= 0.70
     Davidson diagonalization with overlap
     ethr =  1.00E-02,  avg # of iterations =  4.8

     Threshold (ethr) on eigenvalues was too large:
     Diagonalizing with lowered threshold

     Davidson diagonalization with overlap
     ethr =  1.79E-04,  avg # of iterations =  1.8

     total cpu time spent up to now is        0.6 secs

     total energy              =      -5.04281866 Ry
     Harris-Foulkes estimate   =      -5.04420154 Ry
     estimated scf accuracy    <       0.00532828 Ry

     iteration #  2     ecut=    20.00 Ry     beta= 0.70
     Davidson diagonalization with overlap
     ethr =  1.78E-04,  avg # of iterations =  1.0

     total cpu time spent up to now is        0.6 secs

     total energy              =      -5.04279805 Ry
     Harris-Foulkes estimate   =      -5.04288996 Ry
     estimated scf accuracy    <       0.00036977 Ry

     iteration #  3     ecut=    20.00 Ry     beta= 0.70
     Davidson diagonalization with overlap
     ethr =  1.23E-05,  avg # of iterations =  1.8

     total cpu time spent up to now is        0.6 secs

     total energy              =      -5.04281606 Ry
     Harris-Foulkes estimate   =      -5.04281595 Ry
     estimated scf accuracy    <       0.00000140 Ry

     iteration #  4     ecut=    20.00 Ry     beta= 0.70
     Davidson diagonalization with overlap
     ethr =  4.66E-08,  avg # of iterations =  2.9

     total cpu time spent up to now is        0.6 secs

     total energy              =      -5.04281814 Ry
     Harris-Foulkes estimate   =      -5.04281813 Ry
     estimated scf accuracy    <       0.00000008 Ry

     iteration #  5     ecut=    20.00 Ry     beta= 0.70
     Davidson diagonalization with overlap
     ethr =  2.63E-09,  avg # of iterations =  1.0

     total cpu time spent up to now is        0.7 secs

     total energy              =      -5.04281816 Ry
     Harris-Foulkes estimate   =      -5.04281814 Ry
     estimated scf accuracy    <       0.00000004 Ry

     iteration #  6     ecut=    20.00 Ry     beta= 0.70
     Davidson diagonalization with overlap
     ethr =  1.17E-09,  avg # of iterations =  1.0

     total cpu time spent up to now is        0.7 secs

     End of self-consistent calculation

          k = 0.0000 0.0000 0.0000 (   169 PWs)   bands (ev):

    -3.2502  20.5396  20.5396  21.8749  21.8749  21.8749

          k =-0.1667 0.1667-0.1667 (   171 PWs)   bands (ev):

    -2.4993  14.5027  19.2046  19.2046  22.4125  23.8578

          k =-0.3333 0.3333-0.3333 (   165 PWs)   bands (ev):

    -0.2684   8.3575  18.6130  18.6130  21.2265  21.2265

          k = 0.5000-0.5000 0.5000 (   168 PWs)   bands (ev):

     3.2760   3.4855  19.1938  19.1938  19.3825  19.3825

          k = 0.0000 0.3333 0.0000 (   169 PWs)   bands (ev):

    -2.2496  16.8544  16.8544  17.0699  20.0596  20.3674

          k =-0.1667 0.5000-0.1667 (   169 PWs)   bands (ev):

    -0.5153  10.8622  15.7901  16.5456  17.4581  22.3355

          k = 0.6667-0.3333 0.6667 (   168 PWs)   bands (ev):

     2.6496   5.5295  14.0722  16.0185  17.8207  23.8543

          k = 0.5000-0.1667 0.5000 (   166 PWs)   bands (ev):

     1.4426   7.1590  12.9584  17.5392  19.4802  22.7841

          k = 0.3333 0.0000 0.3333 (   164 PWs)   bands (ev):

    -1.2558  12.3533  13.7408  20.3045  22.3321  22.4824

          k = 0.0000 0.6667 0.0000 (   170 PWs)   bands (ev):

     0.7092  12.2373  14.1615  14.2790  14.2790  17.7809

          k = 0.8333-0.1667 0.8333 (   172 PWs)   bands (ev):

     3.3508   8.8999   9.3572  14.0669  15.6166  20.7634

          k = 0.6667-0.0000 0.6667 (   172 PWs)   bands (ev):

     4.5596   6.7857   8.2487  15.1510  16.9481  26.5360

          k = 0.0000-1.0000 0.0000 (   174 PWs)   bands (ev):

     4.9367   6.2643  13.1693  13.4197  13.4197  16.8905

          k = 0.6667-0.3333 1.0000 (   171 PWs)   bands (ev):

     1.6828   9.5703  11.0163  13.2188  20.6938  22.2730

          k = 0.5000-0.1667 0.8333 (   172 PWs)   bands (ev):

     5.1305   5.3912  10.8716  11.4108  21.8525  22.3942

          k =-0.3333-1.0000 0.0000 (   172 PWs)   bands (ev):

     5.8606   7.2140   8.6423  10.1907  19.8042  21.5941

     the Fermi energy is     8.2165 ev

!    total energy              =      -5.04281816 Ry
     Harris-Foulkes estimate   =      -5.04281816 Ry
     estimated scf accuracy    <          3.9E-10 Ry

     The total energy is the sum of the following terms:

     one-electron contribution =       2.93400911 Ry
     hartree contribution      =       0.00560346 Ry
     xc contribution           =      -2.58810741 Ry
     ewald contribution        =      -5.39395546 Ry
     smearing contrib. (-TS)   =      -0.00036786 Ry

     convergence has been achieved in   6 iterations

     Forces acting on atoms (cartesian axes, Ry/au):

     atom    1 type  1   force =     0.00000000    0.00000000    0.00000000

     Total force =     0.000000     Total SCF correction =     0.000000


     Computing stress (Cartesian axis) and pressure

          total   stress  (Ry/bohr**3)                   (kbar)     P=   -0.40
  -0.00000274  -0.00000000  -0.00000000         -0.40     -0.00     -0.00
  -0.00000000  -0.00000274   0.00000000         -0.00     -0.40      0.00
  -0.00000000   0.00000000  -0.00000274         -0.00      0.00     -0.40


     Writing output data file Al.save/

     init_run     :      0.05s CPU      0.05s WALL (       1 calls)
     electrons    :      0.16s CPU      0.20s WALL (       1 calls)
     forces       :      0.01s CPU      0.01s WALL (       1 calls)
     stress       :      0.01s CPU      0.01s WALL (       1 calls)

     Called by init_run:
     wfcinit      :      0.01s CPU      0.01s WALL (       1 calls)
     potinit      :      0.00s CPU      0.00s WALL (       1 calls)
     hinit0       :      0.04s CPU      0.04s WALL (       1 calls)

     Called by electrons:
     c_bands      :      0.13s CPU      0.16s WALL (       7 calls)
     sum_band     :      0.02s CPU      0.03s WALL (       7 calls)
     v_of_rho     :      0.00s CPU      0.01s WALL (       7 calls)
     newd         :      0.00s CPU      0.00s WALL (       7 calls)
     mix_rho      :      0.00s CPU      0.00s WALL (       7 calls)

     Called by c_bands:
     init_us_2    :      0.00s CPU      0.00s WALL (     272 calls)
     cegterg      :      0.12s CPU      0.15s WALL (     112 calls)

     Called by sum_band:
     sum_band:bec :      0.00s CPU      0.00s WALL (     112 calls)
     addusdens    :      0.00s CPU      0.00s WALL (       7 calls)

     Called by *egterg:
     h_psi        :      0.09s CPU      0.10s WALL (     358 calls)
     s_psi        :      0.00s CPU      0.00s WALL (     358 calls)
     g_psi        :      0.00s CPU      0.00s WALL (     230 calls)
     cdiaghg      :      0.02s CPU      0.02s WALL (     326 calls)

     Called by h_psi:
     h_psi:pot    :      0.09s CPU      0.10s WALL (     358 calls)
     h_psi:calbec :      0.01s CPU      0.01s WALL (     358 calls)
     vloc_psi     :      0.07s CPU      0.09s WALL (     358 calls)
     add_vuspsi   :      0.00s CPU      0.00s WALL (     358 calls)

     General routines
     calbec       :      0.01s CPU      0.01s WALL (     550 calls)
     fft          :      0.00s CPU      0.00s WALL (     104 calls)
     ffts         :      0.00s CPU      0.00s WALL (       7 calls)
     fftw         :      0.08s CPU      0.10s WALL (    4096 calls)

     Parallel routines
     fft_scatt_xy :      0.01s CPU      0.01s WALL (    4207 calls)
     fft_scatt_yz :      0.03s CPU      0.04s WALL (    4207 calls)

     PWSCF        :     0.70s CPU         0.78s WALL


   This run was terminated on:  19:55:54  25Mar2024            

=------------------------------------------------------------------------------=
   JOB DONE.
=------------------------------------------------------------------------------=
