
     Program PWSCF v.6.3MaX starts on 25Mar2024 at 19:58:18 

     This program is part of the open-source Quantum ESPRESSO suite
     for quantum simulation of materials; please cite
         "P. Giannozzi et al., J. Phys.:Condens. Matter 21 395502 (2009);
         "P. Giannozzi et al., J. Phys.:Condens. Matter 29 465901 (2017);
          URL http://www.quantum-espresso.org", 
     in publications or presentations arising from this work. More details at
     http://www.quantum-espresso.org/quote

     Parallel version (MPI), running on     5 processors

     MPI processes distributed on     1 nodes
     R & G space division:  proc/nbgrp/npool/nimage =       5
     Waiting for input...
     Reading input from standard input

     Current dimensions of program PWSCF are:
     Max number of different atomic species (ntypx) = 10
     Max number of k-points (npk) =  40000
     Max angular momentum in pseudopotentials (lmaxx) =  3
               file Al.pbe-nl-kjpaw_psl.1.0.0.UPF: wavefunction(s)  3S 3P renormalized

     Subspace diagonalization in iterative solution of the eigenvalue problem:
     a serial algorithm will be used


     Parallelization info
     --------------------
     sticks:   dense  smooth     PW     G-vecs:    dense   smooth      PW
     Min          56      56     19                  623      623     128
     Max          57      57     20                  625      625     130
     Sum         283     283     97                 3119     3119     645



     bravais-lattice index     =            2
     lattice parameter (alat)  =       7.6500  a.u.
     unit-cell volume          =     111.9243 (a.u.)^3
     number of atoms/cell      =            1
     number of atomic types    =            1
     number of electrons       =         3.00
     number of Kohn-Sham states=            6
     kinetic-energy cutoff     =      35.0000  Ry
     charge density cutoff     =     140.0000  Ry
     convergence threshold     =      1.0E-08
     mixing beta               =       0.7000
     number of iterations used =            8  plain     mixing
     Exchange-correlation      = SLA PW PBX PBC ( 1  4  3  4 0 0)

     celldm(1)=   7.650000  celldm(2)=   0.000000  celldm(3)=   0.000000
     celldm(4)=   0.000000  celldm(5)=   0.000000  celldm(6)=   0.000000

     crystal axes: (cart. coord. in units of alat)
               a(1) = (  -0.500000   0.000000   0.500000 )  
               a(2) = (   0.000000   0.500000   0.500000 )  
               a(3) = (  -0.500000   0.500000   0.000000 )  

     reciprocal axes: (cart. coord. in units 2 pi/alat)
               b(1) = ( -1.000000 -1.000000  1.000000 )  
               b(2) = (  1.000000  1.000000  1.000000 )  
               b(3) = ( -1.000000  1.000000 -1.000000 )  


     PseudoPot. # 1 for Al read from file:
     /home/lorenzo/pseudos/Al/Al.pbe-nl-kjpaw_psl.1.0.0.UPF
     MD5 check sum: 8cf6d98cc7ef3f4b729b574060f3a10f
     Pseudo is Projector augmented-wave + core cor, Zval =  3.0
     Generated using "atomic" code by A. Dal Corso v.6.3
     Shape of augmentation charge: PSQ
     Using radial grid of 1135 points,  4 beta functions with: 
                l(1) =   0
                l(2) =   0
                l(3) =   1
                l(4) =   1
     Q(r) pseudized with 0 coefficients 


     atomic species   valence    mass     pseudopotential
        Al             3.00    26.98150     Al( 1.00)

     48 Sym. Ops., with inversion, found



   Cartesian axes

     site n.     atom                  positions (alat units)
         1           Al  tau(   1) = (   0.0000000   0.0000000   0.0000000  )

     number of k points=    56  gaussian smearing, width (Ry)=  0.0100
                       cart. coord. in units 2pi/alat
        k(    1) = (   0.0000000   0.0000000   0.0000000), wk =   0.0015026
        k(    2) = (  -0.0909091   0.0909091  -0.0909091), wk =   0.0120210
        k(    3) = (  -0.1818182   0.1818182  -0.1818182), wk =   0.0120210
        k(    4) = (  -0.2727273   0.2727273  -0.2727273), wk =   0.0120210
        k(    5) = (  -0.3636364   0.3636364  -0.3636364), wk =   0.0120210
        k(    6) = (  -0.4545455   0.4545455  -0.4545455), wk =   0.0120210
        k(    7) = (   0.0000000   0.1818182   0.0000000), wk =   0.0090158
        k(    8) = (  -0.0909091   0.2727273  -0.0909091), wk =   0.0360631
        k(    9) = (  -0.1818182   0.3636364  -0.1818182), wk =   0.0360631
        k(   10) = (  -0.2727273   0.4545455  -0.2727273), wk =   0.0360631
        k(   11) = (  -0.3636364   0.5454545  -0.3636364), wk =   0.0360631
        k(   12) = (   0.5454545  -0.3636364   0.5454545), wk =   0.0360631
        k(   13) = (   0.4545455  -0.2727273   0.4545455), wk =   0.0360631
        k(   14) = (   0.3636364  -0.1818182   0.3636364), wk =   0.0360631
        k(   15) = (   0.2727273  -0.0909091   0.2727273), wk =   0.0360631
        k(   16) = (   0.1818182  -0.0000000   0.1818182), wk =   0.0180316
        k(   17) = (   0.0000000   0.3636364   0.0000000), wk =   0.0090158
        k(   18) = (  -0.0909091   0.4545455  -0.0909091), wk =   0.0360631
        k(   19) = (  -0.1818182   0.5454545  -0.1818182), wk =   0.0360631
        k(   20) = (  -0.2727273   0.6363636  -0.2727273), wk =   0.0360631
        k(   21) = (   0.6363636  -0.2727273   0.6363636), wk =   0.0360631
        k(   22) = (   0.5454545  -0.1818182   0.5454545), wk =   0.0360631
        k(   23) = (   0.4545455  -0.0909091   0.4545455), wk =   0.0360631
        k(   24) = (   0.3636364   0.0000000   0.3636364), wk =   0.0180316
        k(   25) = (   0.0000000   0.5454545   0.0000000), wk =   0.0090158
        k(   26) = (  -0.0909091   0.6363636  -0.0909091), wk =   0.0360631
        k(   27) = (  -0.1818182   0.7272727  -0.1818182), wk =   0.0360631
        k(   28) = (   0.7272727  -0.1818182   0.7272727), wk =   0.0360631
        k(   29) = (   0.6363636  -0.0909091   0.6363636), wk =   0.0360631
        k(   30) = (   0.5454545   0.0000000   0.5454545), wk =   0.0180316
        k(   31) = (   0.0000000   0.7272727   0.0000000), wk =   0.0090158
        k(   32) = (  -0.0909091   0.8181818  -0.0909091), wk =   0.0360631
        k(   33) = (   0.8181818  -0.0909091   0.8181818), wk =   0.0360631
        k(   34) = (   0.7272727   0.0000000   0.7272727), wk =   0.0180316
        k(   35) = (   0.0000000   0.9090909   0.0000000), wk =   0.0090158
        k(   36) = (   0.9090909  -0.0000000   0.9090909), wk =   0.0180316
        k(   37) = (  -0.1818182   0.3636364   0.0000000), wk =   0.0360631
        k(   38) = (  -0.2727273   0.4545455  -0.0909091), wk =   0.0721262
        k(   39) = (  -0.3636364   0.5454545  -0.1818182), wk =   0.0721262
        k(   40) = (   0.5454545  -0.3636364   0.7272727), wk =   0.0721262
        k(   41) = (  -0.1818182   0.5454545   0.0000000), wk =   0.0360631
        k(   42) = (  -0.2727273   0.6363636  -0.0909091), wk =   0.0721262
        k(   43) = (   0.6363636  -0.2727273   0.8181818), wk =   0.0721262
        k(   44) = (   0.5454545  -0.1818182   0.7272727), wk =   0.0721262
        k(   45) = (   0.4545455  -0.0909091   0.6363636), wk =   0.0721262
        k(   46) = (   0.3636364   0.0000000   0.5454545), wk =   0.0360631
        k(   47) = (  -0.1818182   0.7272727   0.0000000), wk =   0.0360631
        k(   48) = (   0.7272727  -0.1818182   0.9090909), wk =   0.0721262
        k(   49) = (   0.6363636  -0.0909091   0.8181818), wk =   0.0721262
        k(   50) = (   0.5454545   0.0000000   0.7272727), wk =   0.0360631
        k(   51) = (   0.8181818  -0.0909091   1.0000000), wk =   0.0360631
        k(   52) = (   0.7272727   0.0000000   0.9090909), wk =   0.0360631
        k(   53) = (   0.6363636  -0.2727273   1.0000000), wk =   0.0360631
        k(   54) = (   0.5454545  -0.1818182   0.9090909), wk =   0.0721262
        k(   55) = (   0.6363636  -0.0909091   1.0000000), wk =   0.0360631
        k(   56) = (   0.5454545   0.0000000   0.9090909), wk =   0.0360631

     Dense  grid:     3119 G-vectors     FFT dimensions: (  24,  24,  24)

     Estimated max dynamical RAM per process >       1.68 MB

     Estimated total dynamical RAM >       8.40 MB

     Initial potential from superposition of free atoms

     starting charge    2.99771, renormalised to    3.00000
     Starting wfcs are    4 randomized atomic wfcs +    2 random wfcs
     Checking if some PAW data can be deallocated... 

     total cpu time spent up to now is        0.6 secs

     Self-consistent Calculation

     iteration #  1     ecut=    35.00 Ry     beta= 0.70
     Davidson diagonalization with overlap
     ethr =  1.00E-02,  avg # of iterations =  4.8

     Threshold (ethr) on eigenvalues was too large:
     Diagonalizing with lowered threshold

     Davidson diagonalization with overlap
     ethr =  1.90E-04,  avg # of iterations =  2.1

     total cpu time spent up to now is        1.1 secs

     total energy              =     -39.50334730 Ry
     Harris-Foulkes estimate   =     -39.50484761 Ry
     estimated scf accuracy    <       0.00563127 Ry

     iteration #  2     ecut=    35.00 Ry     beta= 0.70
     Davidson diagonalization with overlap
     ethr =  1.88E-04,  avg # of iterations =  1.0

     total cpu time spent up to now is        1.3 secs

     total energy              =     -39.50334392 Ry
     Harris-Foulkes estimate   =     -39.50343975 Ry
     estimated scf accuracy    <       0.00038963 Ry

     iteration #  3     ecut=    35.00 Ry     beta= 0.70
     Davidson diagonalization with overlap
     ethr =  1.30E-05,  avg # of iterations =  2.0

     total cpu time spent up to now is        1.6 secs

     total energy              =     -39.50336563 Ry
     Harris-Foulkes estimate   =     -39.50336623 Ry
     estimated scf accuracy    <       0.00000149 Ry

     iteration #  4     ecut=    35.00 Ry     beta= 0.70
     Davidson diagonalization with overlap
     ethr =  4.98E-08,  avg # of iterations =  2.9

     total cpu time spent up to now is        1.9 secs

     total energy              =     -39.50336772 Ry
     Harris-Foulkes estimate   =     -39.50336771 Ry
     estimated scf accuracy    <       0.00000011 Ry

     iteration #  5     ecut=    35.00 Ry     beta= 0.70
     Davidson diagonalization with overlap
     ethr =  3.58E-09,  avg # of iterations =  1.1

     total cpu time spent up to now is        2.1 secs

     total energy              =     -39.50336772 Ry
     Harris-Foulkes estimate   =     -39.50336773 Ry
     estimated scf accuracy    <       0.00000002 Ry

     iteration #  6     ecut=    35.00 Ry     beta= 0.70
     Davidson diagonalization with overlap
     ethr =  7.61E-10,  avg # of iterations =  1.0

     total cpu time spent up to now is        2.3 secs

     End of self-consistent calculation

          k = 0.0000 0.0000 0.0000 (   387 PWs)   bands (ev):

    -3.2519  20.4431  20.4431  21.8759  21.8760  21.8760

          k =-0.0909 0.0909-0.0909 (   381 PWs)   bands (ev):

    -3.0281  17.5218  19.7926  19.7926  22.5604  22.8626

          k =-0.1818 0.1818-0.1818 (   386 PWs)   bands (ev):

    -2.3586  13.8787  19.0586  19.0586  22.3317  23.6840

          k =-0.2727 0.2727-0.2727 (   392 PWs)   bands (ev):

    -1.2496  10.4542  18.6496  18.6496  22.1217  22.1485

          k =-0.3636 0.3636-0.3636 (   395 PWs)   bands (ev):

     0.2891   7.3509  18.6056  18.6056  20.7233  20.7233

          k =-0.4545 0.4545-0.4545 (   392 PWs)   bands (ev):

     2.2428   4.6105  18.9336  18.9336  19.6466  19.6466

          k = 0.0000 0.1818 0.0000 (   383 PWs)   bands (ev):

    -2.9535  18.5311  18.5311  18.8390  21.2109  24.2110

          k =-0.0909 0.2727-0.0909 (   381 PWs)   bands (ev):

    -2.4328  15.2007  17.6054  18.9488  21.5463  22.1810

          k =-0.1818 0.3636-0.1818 (   384 PWs)   bands (ev):

    -1.4707  11.7265  17.0493  18.6076  19.9115  23.6801

          k =-0.2727 0.4545-0.2727 (   384 PWs)   bands (ev):

    -0.0759   8.5252  16.8702  18.2703  18.5127  23.1873

          k =-0.3636 0.5455-0.3636 (   389 PWs)   bands (ev):

     1.7389   5.6676  17.0442  17.0701  18.7322  22.0133

          k = 0.5455-0.3636 0.5455 (   391 PWs)   bands (ev):

     3.1657   3.9788  16.1861  17.6503  19.3570  21.1921

          k = 0.4545-0.2727 0.4545 (   390 PWs)   bands (ev):

     1.0884   6.5777  15.7214  18.6076  20.3662  20.7418

          k = 0.3636-0.1818 0.3636 (   388 PWs)   bands (ev):

    -0.5882   9.5501  15.6557  19.9105  20.6838  21.7350

          k = 0.2727-0.0909 0.2727 (   385 PWs)   bands (ev):

    -1.8400  12.8314  16.0038  20.8302  21.6446  23.3332

          k = 0.1818-0.0000 0.1818 (   381 PWs)   bands (ev):

    -2.6558  16.0414  17.0412  21.0222  22.1799  23.2623

          k = 0.0000 0.3636 0.0000 (   391 PWs)   bands (ev):

    -2.0620  16.5292  16.5292  16.6719  19.4857  19.8523

          k =-0.0909 0.4545-0.0909 (   390 PWs)   bands (ev):

    -1.2497  13.3161  15.8351  17.1316  17.4041  20.3792

          k =-0.1818 0.5455-0.1818 (   389 PWs)   bands (ev):

    -0.0033  10.0783  15.5231  15.5245  17.1767  22.4995

          k =-0.2727 0.6364-0.2727 (   391 PWs)   bands (ev):

     1.6652   7.1295  14.1199  15.5930  17.3283  24.7373

          k = 0.6364-0.2727 0.6364 (   393 PWs)   bands (ev):

     3.7275   4.5480  13.1121  16.0449  17.8540  23.8184

          k = 0.5455-0.1818 0.5455 (   388 PWs)   bands (ev):

     2.3141   6.2099  12.5194  16.8793  18.7740  23.2508

          k = 0.4545-0.0909 0.4545 (   393 PWs)   bands (ev):

     0.5072   8.9972  12.3815  18.0926  20.0715  23.0272

          k = 0.3636 0.0000 0.3636 (   385 PWs)   bands (ev):

    -0.8818  11.6731  13.1066  19.6693  21.6921  22.7495

          k = 0.0000 0.5455 0.0000 (   383 PWs)   bands (ev):

    -0.5886  14.9487  14.9958  15.0076  15.0076  18.4837

          k =-0.0909 0.6364-0.0909 (   392 PWs)   bands (ev):

     0.5057  11.9394  13.0480  14.5644  15.8485  19.1958

          k =-0.1818 0.7273-0.1818 (   395 PWs)   bands (ev):

     2.0217   8.9637  11.4831  14.5043  16.0854  21.5783

          k = 0.7273-0.1818 0.7273 (   393 PWs)   bands (ev):

     3.9361   6.2872  10.3308  14.8270  16.5258  24.4989

          k = 0.6364-0.0909 0.6364 (   394 PWs)   bands (ev):

     3.9521   6.2186   9.6409  15.5330  17.3400  26.1175

          k = 0.5455 0.0000 0.5455 (   395 PWs)   bands (ev):

     2.0265   8.3700   9.8622  16.6225  18.5375  26.0448

          k = 0.0000 0.7273 0.0000 (   387 PWs)   bands (ev):

     1.4448  10.9088  13.7800  13.9914  13.9914  17.4675

          k =-0.0909 0.8182-0.0909 (   400 PWs)   bands (ev):

     2.7993   9.1843  11.1447  13.8019  15.0076  18.4394

          k = 0.8182-0.0909 0.8182 (   392 PWs)   bands (ev):

     4.5236   7.8588   8.5036  13.9953  15.5225  21.0957

          k = 0.7273 0.0000 0.7273 (   391 PWs)   bands (ev):

     5.9695   6.1714   7.6198  14.5719  16.2495  24.2933

          k = 0.0000 0.9091 0.0000 (   392 PWs)   bands (ev):

     3.9614   7.3592  13.1919  13.4835  13.4835  16.9316

          k = 0.9091-0.0000 0.9091 (   392 PWs)   bands (ev):

     5.0746   6.3975  10.8648  13.5479  14.7252  18.1808

          k =-0.1818 0.3636 0.0000 (   381 PWs)   bands (ev):

    -1.7661  13.8702  15.0881  19.6944  19.8052  21.6093

          k =-0.2727 0.4545-0.0909 (   387 PWs)   bands (ev):

    -0.6617  10.9220  14.2083  17.8270  20.0412  23.0948

          k =-0.3636 0.5455-0.1818 (   392 PWs)   bands (ev):

     0.8704   7.8857  14.0952  16.3153  20.1035  22.3465

          k = 0.5455-0.3636 0.7273 (   391 PWs)   bands (ev):

     2.8143   5.1710  14.3965  15.2084  20.4545  21.2805

          k =-0.1818 0.5455 0.0000 (   389 PWs)   bands (ev):

    -0.2957  12.2259  13.5122  15.3057  18.2614  20.3301

          k =-0.2727 0.6364-0.0909 (   395 PWs)   bands (ev):

     1.0866   9.5414  12.8229  13.6680  18.8106  22.1515

          k = 0.6364-0.2727 0.8182 (   392 PWs)   bands (ev):

     2.8823   6.7666  12.2469  13.1116  19.1627  23.9624

          k = 0.5455-0.1818 0.7273 (   396 PWs)   bands (ev):

     4.2922   5.0979  11.4171  13.6655  19.8117  23.2413

          k = 0.4545-0.0909 0.6364 (   392 PWs)   bands (ev):

     2.2413   7.6093  11.0150  14.6619  20.8088  22.7150

          k = 0.3636 0.0000 0.5455 (   396 PWs)   bands (ev):

     0.5797  10.0218  11.4987  16.0574  22.0177  22.0878

          k =-0.1818 0.7273 0.0000 (   393 PWs)   bands (ev):

     1.7335  11.1252  11.1459  12.5428  17.1908  19.3812

          k = 0.7273-0.1818 0.9091 (   396 PWs)   bands (ev):

     3.3697   8.6886   9.7734  12.1172  18.0235  21.4676

          k = 0.6364-0.0909 0.8182 (   387 PWs)   bands (ev):

     5.3530   6.2083   8.7997  12.5282  18.6518  24.4244

          k = 0.5455 0.0000 0.7273 (   394 PWs)   bands (ev):

     4.0211   7.2701   8.7338  13.3909  19.5688  25.2802

          k = 0.8182-0.0909 1.0000 (   403 PWs)   bands (ev):

     4.2429   7.6374  10.5738  11.9762  16.6499  18.8819

          k = 0.7273 0.0000 0.9091 (   385 PWs)   bands (ev):

     5.6228   6.9546   8.4724  11.8362  17.7571  21.2302

          k = 0.6364-0.2727 1.0000 (   397 PWs)   bands (ev):

     2.5962   8.9208  10.3584  12.1010  21.0127  22.5347

          k = 0.5455-0.1818 0.9091 (   395 PWs)   bands (ev):

     4.5019   6.7734  10.0987  11.0077  21.9395  22.8334

          k = 0.6364-0.0909 1.0000 (   395 PWs)   bands (ev):

     5.0842   8.3704   8.4254   9.9693  20.4876  22.1886

          k = 0.5455 0.0000 0.9091 (   390 PWs)   bands (ev):

     6.4659   6.7206   8.1265  10.0042  21.7308  24.5560

     the Fermi energy is     7.8630 ev

!    total energy              =     -39.50336772 Ry
     Harris-Foulkes estimate   =     -39.50336772 Ry
     estimated scf accuracy    <          5.9E-11 Ry

     total all-electron energy =      -485.646148 Ry

     The total energy is the sum of the following terms:

     one-electron contribution =       3.15012484 Ry
     hartree contribution      =       0.00608665 Ry
     xc contribution           =      -2.58814044 Ry
     ewald contribution        =      -5.39395543 Ry
     one-center paw contrib.   =     -34.67716657 Ry
     smearing contrib. (-TS)   =      -0.00031678 Ry

     convergence has been achieved in   6 iterations

     Forces acting on atoms (cartesian axes, Ry/au):

     atom    1 type  1   force =     0.00000000    0.00000000    0.00000000

     Total force =     0.000000     Total SCF correction =     0.000000


     Computing stress (Cartesian axis) and pressure

          total   stress  (Ry/bohr**3)                   (kbar)     P=   -4.15
  -0.00002823  -0.00000000  -0.00000000         -4.15     -0.00     -0.00
  -0.00000000  -0.00002823   0.00000000         -0.00     -4.15      0.00
  -0.00000000   0.00000000  -0.00002823         -0.00      0.00     -4.15


     Writing output data file Al.save/

     init_run     :      0.15s CPU      0.16s WALL (       1 calls)
     electrons    :      1.63s CPU      1.79s WALL (       1 calls)
     forces       :      0.02s CPU      0.02s WALL (       1 calls)
     stress       :      0.05s CPU      0.05s WALL (       1 calls)

     Called by init_run:
     wfcinit      :      0.06s CPU      0.06s WALL (       1 calls)
     potinit      :      0.03s CPU      0.03s WALL (       1 calls)
     hinit0       :      0.06s CPU      0.06s WALL (       1 calls)

     Called by electrons:
     c_bands      :      1.21s CPU      1.31s WALL (       7 calls)
     sum_band     :      0.23s CPU      0.25s WALL (       7 calls)
     v_of_rho     :      0.02s CPU      0.02s WALL (       7 calls)
     newd         :      0.01s CPU      0.01s WALL (       7 calls)
     PAW_pot      :      0.18s CPU      0.22s WALL (       7 calls)
     mix_rho      :      0.00s CPU      0.00s WALL (       7 calls)

     Called by c_bands:
     init_us_2    :      0.03s CPU      0.03s WALL (     952 calls)
     cegterg      :      1.17s CPU      1.27s WALL (     392 calls)

     Called by sum_band:
     sum_band:bec :      0.00s CPU      0.00s WALL (     392 calls)
     addusdens    :      0.00s CPU      0.00s WALL (       7 calls)

     Called by *egterg:
     h_psi        :      0.95s CPU      1.03s WALL (    1278 calls)
     s_psi        :      0.01s CPU      0.01s WALL (    1278 calls)
     g_psi        :      0.00s CPU      0.00s WALL (     830 calls)
     cdiaghg      :      0.11s CPU      0.12s WALL (    1166 calls)

     Called by h_psi:
     h_psi:pot    :      0.95s CPU      1.03s WALL (    1278 calls)
     h_psi:calbec :      0.04s CPU      0.05s WALL (    1278 calls)
     vloc_psi     :      0.88s CPU      0.96s WALL (    1278 calls)
     add_vuspsi   :      0.01s CPU      0.01s WALL (    1278 calls)

     General routines
     calbec       :      0.08s CPU      0.08s WALL (    1950 calls)
     fft          :      0.02s CPU      0.02s WALL (     104 calls)
     ffts         :      0.00s CPU      0.00s WALL (       7 calls)
     fftw         :      0.99s CPU      1.07s WALL (   14514 calls)

     Parallel routines
     fft_scatt_xy :      0.08s CPU      0.09s WALL (   14625 calls)
     fft_scatt_yz :      0.37s CPU      0.40s WALL (   14625 calls)

     PWSCF        :     2.30s CPU         2.56s WALL


   This run was terminated on:  19:58:21  25Mar2024            

=------------------------------------------------------------------------------=
   JOB DONE.
=------------------------------------------------------------------------------=
