
     Program PWSCF v.6.3MaX starts on 25Mar2024 at 19:57:43 

     This program is part of the open-source Quantum ESPRESSO suite
     for quantum simulation of materials; please cite
         "P. Giannozzi et al., J. Phys.:Condens. Matter 21 395502 (2009);
         "P. Giannozzi et al., J. Phys.:Condens. Matter 29 465901 (2017);
          URL http://www.quantum-espresso.org", 
     in publications or presentations arising from this work. More details at
     http://www.quantum-espresso.org/quote

     Parallel version (MPI), running on     5 processors

     MPI processes distributed on     1 nodes
     R & G space division:  proc/nbgrp/npool/nimage =       5
     Waiting for input...
     Reading input from standard input

     Current dimensions of program PWSCF are:
     Max number of different atomic species (ntypx) = 10
     Max number of k-points (npk) =  40000
     Max angular momentum in pseudopotentials (lmaxx) =  3
               file Al.pbe-n-kjpaw_psl.1.0.0.UPF: wavefunction(s)  3S 3P renormalized

     Subspace diagonalization in iterative solution of the eigenvalue problem:
     a serial algorithm will be used


     Parallelization info
     --------------------
     sticks:   dense  smooth     PW     G-vecs:    dense   smooth      PW
     Min          48      48     17                  488      488     106
     Max          49      49     17                  491      491     107
     Sum         241     241     85                 2445     2445     531



     bravais-lattice index     =            2
     lattice parameter (alat)  =       7.6500  a.u.
     unit-cell volume          =     111.9243 (a.u.)^3
     number of atoms/cell      =            1
     number of atomic types    =            1
     number of electrons       =         3.00
     number of Kohn-Sham states=            6
     kinetic-energy cutoff     =      30.0000  Ry
     charge density cutoff     =     120.0000  Ry
     convergence threshold     =      1.0E-08
     mixing beta               =       0.7000
     number of iterations used =            8  plain     mixing
     Exchange-correlation      = SLA PW PBX PBC ( 1  4  3  4 0 0)

     celldm(1)=   7.650000  celldm(2)=   0.000000  celldm(3)=   0.000000
     celldm(4)=   0.000000  celldm(5)=   0.000000  celldm(6)=   0.000000

     crystal axes: (cart. coord. in units of alat)
               a(1) = (  -0.500000   0.000000   0.500000 )  
               a(2) = (   0.000000   0.500000   0.500000 )  
               a(3) = (  -0.500000   0.500000   0.000000 )  

     reciprocal axes: (cart. coord. in units 2 pi/alat)
               b(1) = ( -1.000000 -1.000000  1.000000 )  
               b(2) = (  1.000000  1.000000  1.000000 )  
               b(3) = ( -1.000000  1.000000 -1.000000 )  


     PseudoPot. # 1 for Al read from file:
     /home/lorenzo/pseudos/Al/Al.pbe-n-kjpaw_psl.1.0.0.UPF
     MD5 check sum: 502b6b27b9c6270cab5dd1084b96fa6d
     Pseudo is Projector augmented-wave + core cor, Zval =  3.0
     Generated using "atomic" code by A. Dal Corso v.6.3
     Shape of augmentation charge: PSQ
     Using radial grid of 1135 points,  6 beta functions with: 
                l(1) =   0
                l(2) =   0
                l(3) =   1
                l(4) =   1
                l(5) =   2
                l(6) =   2
     Q(r) pseudized with 0 coefficients 


     atomic species   valence    mass     pseudopotential
        Al             3.00    26.98150     Al( 1.00)

     48 Sym. Ops., with inversion, found



   Cartesian axes

     site n.     atom                  positions (alat units)
         1           Al  tau(   1) = (   0.0000000   0.0000000   0.0000000  )

     number of k points=    16  gaussian smearing, width (Ry)=  0.0100
                       cart. coord. in units 2pi/alat
        k(    1) = (   0.0000000   0.0000000   0.0000000), wk =   0.0092593
        k(    2) = (  -0.1666667   0.1666667  -0.1666667), wk =   0.0740741
        k(    3) = (  -0.3333333   0.3333333  -0.3333333), wk =   0.0740741
        k(    4) = (   0.5000000  -0.5000000   0.5000000), wk =   0.0370370
        k(    5) = (   0.0000000   0.3333333   0.0000000), wk =   0.0555556
        k(    6) = (  -0.1666667   0.5000000  -0.1666667), wk =   0.2222222
        k(    7) = (   0.6666667  -0.3333333   0.6666667), wk =   0.2222222
        k(    8) = (   0.5000000  -0.1666667   0.5000000), wk =   0.2222222
        k(    9) = (   0.3333333   0.0000000   0.3333333), wk =   0.1111111
        k(   10) = (   0.0000000   0.6666667   0.0000000), wk =   0.0555556
        k(   11) = (   0.8333333  -0.1666667   0.8333333), wk =   0.2222222
        k(   12) = (   0.6666667  -0.0000000   0.6666667), wk =   0.1111111
        k(   13) = (   0.0000000  -1.0000000   0.0000000), wk =   0.0277778
        k(   14) = (   0.6666667  -0.3333333   1.0000000), wk =   0.2222222
        k(   15) = (   0.5000000  -0.1666667   0.8333333), wk =   0.2222222
        k(   16) = (  -0.3333333  -1.0000000   0.0000000), wk =   0.1111111

     Dense  grid:     2445 G-vectors     FFT dimensions: (  20,  20,  20)

     Estimated max dynamical RAM per process >       3.00 MB

     Estimated total dynamical RAM >      14.99 MB

     Initial potential from superposition of free atoms

     starting charge    2.99771, renormalised to    3.00000
     Starting wfcs are    4 randomized atomic wfcs +    2 random wfcs
     Checking if some PAW data can be deallocated... 

     total cpu time spent up to now is        0.9 secs

     Self-consistent Calculation

     iteration #  1     ecut=    30.00 Ry     beta= 0.70
     Davidson diagonalization with overlap
     ethr =  1.00E-02,  avg # of iterations =  4.7

     Threshold (ethr) on eigenvalues was too large:
     Diagonalizing with lowered threshold

     Davidson diagonalization with overlap
     ethr =  1.74E-04,  avg # of iterations =  2.2

     total cpu time spent up to now is        1.1 secs

     total energy              =     -39.50775954 Ry
     Harris-Foulkes estimate   =     -39.50893399 Ry
     estimated scf accuracy    <       0.00514707 Ry

     iteration #  2     ecut=    30.00 Ry     beta= 0.70
     Davidson diagonalization with overlap
     ethr =  1.72E-04,  avg # of iterations =  1.0

     total cpu time spent up to now is        1.3 secs

     total energy              =     -39.50771693 Ry
     Harris-Foulkes estimate   =     -39.50780526 Ry
     estimated scf accuracy    <       0.00037009 Ry

     iteration #  3     ecut=    30.00 Ry     beta= 0.70
     Davidson diagonalization with overlap
     ethr =  1.23E-05,  avg # of iterations =  1.8

     total cpu time spent up to now is        1.4 secs

     total energy              =     -39.50772549 Ry
     Harris-Foulkes estimate   =     -39.50772557 Ry
     estimated scf accuracy    <       0.00000044 Ry

     iteration #  4     ecut=    30.00 Ry     beta= 0.70
     Davidson diagonalization with overlap
     ethr =  1.46E-08,  avg # of iterations =  2.6

     total cpu time spent up to now is        1.6 secs

     total energy              =     -39.50772712 Ry
     Harris-Foulkes estimate   =     -39.50772715 Ry
     estimated scf accuracy    <       0.00000004 Ry

     iteration #  5     ecut=    30.00 Ry     beta= 0.70
     Davidson diagonalization with overlap
     ethr =  1.21E-09,  avg # of iterations =  1.2

     total cpu time spent up to now is        1.7 secs

     End of self-consistent calculation

          k = 0.0000 0.0000 0.0000 (   331 PWs)   bands (ev):

    -3.2505  20.4326  20.4327  21.8936  21.8936  21.8936

          k =-0.1667 0.1667-0.1667 (   311 PWs)   bands (ev):

    -2.4992  14.4758  19.1617  19.1617  22.4042  23.7995

          k =-0.3333 0.3333-0.3333 (   308 PWs)   bands (ev):

    -0.2691   8.3461  18.5827  18.5827  21.1648  21.1648

          k = 0.5000-0.5000 0.5000 (   302 PWs)   bands (ev):

     3.2777   3.4785  19.2102  19.2102  19.2826  19.2826

          k = 0.0000 0.3333 0.0000 (   307 PWs)   bands (ev):

    -2.2497  16.8339  16.8339  17.0064  20.0704  20.3064

          k =-0.1667 0.5000-0.1667 (   313 PWs)   bands (ev):

    -0.5154  10.8450  15.7795  16.5117  17.4236  22.3046

          k = 0.6667-0.3333 0.6667 (   307 PWs)   bands (ev):

     2.6478   5.5244  14.0518  16.0059  17.7857  23.7704

          k = 0.5000-0.1667 0.5000 (   308 PWs)   bands (ev):

     1.4413   7.1509  12.9428  17.5145  19.4442  22.7077

          k = 0.3333 0.0000 0.3333 (   311 PWs)   bands (ev):

    -1.2560  12.3273  13.7304  20.2627  22.2896  22.3816

          k = 0.0000 0.6667 0.0000 (   315 PWs)   bands (ev):

     0.7086  12.2194  14.0963  14.2807  14.2807  17.7632

          k = 0.8333-0.1667 0.8333 (   311 PWs)   bands (ev):

     3.3491   8.8843   9.3484  14.0713  15.5723  20.7293

          k = 0.6667-0.0000 0.6667 (   309 PWs)   bands (ev):

     4.5559   6.7807   8.2391  15.1475  16.9079  26.4591

          k = 0.0000-1.0000 0.0000 (   302 PWs)   bands (ev):

     4.9392   6.2526  13.1064  13.4291  13.4291  16.8659

          k = 0.6667-0.3333 1.0000 (   311 PWs)   bands (ev):

     1.6817   9.5532  11.0076  13.2064  20.6391  22.2564

          k = 0.5000-0.1667 0.8333 (   312 PWs)   bands (ev):

     5.1274   5.3864  10.8509  11.4096  21.8335  22.3128

          k =-0.3333-1.0000 0.0000 (   308 PWs)   bands (ev):

     5.8591   7.2023   8.6282  10.1896  19.7528  21.5676

     the Fermi energy is     8.2066 ev

!    total energy              =     -39.50772712 Ry
     Harris-Foulkes estimate   =     -39.50772713 Ry
     estimated scf accuracy    <          1.6E-10 Ry

     total all-electron energy =      -485.650507 Ry

     The total energy is the sum of the following terms:

     one-electron contribution =       3.14893334 Ry
     hartree contribution      =       0.00531669 Ry
     xc contribution           =      -2.58791308 Ry
     ewald contribution        =      -5.39395543 Ry
     one-center paw contrib.   =     -34.67973958 Ry
     smearing contrib. (-TS)   =      -0.00036906 Ry

     convergence has been achieved in   5 iterations

     Forces acting on atoms (cartesian axes, Ry/au):

     atom    1 type  1   force =     0.00000000    0.00000000    0.00000000

     Total force =     0.000000     Total SCF correction =     0.000000


     Computing stress (Cartesian axis) and pressure

          total   stress  (Ry/bohr**3)                   (kbar)     P=   -0.13
  -0.00000087  -0.00000000  -0.00000000         -0.13     -0.00     -0.00
  -0.00000000  -0.00000087   0.00000000         -0.00     -0.13      0.00
  -0.00000000   0.00000000  -0.00000087         -0.00      0.00     -0.13


     Writing output data file Al.save/

     init_run     :      0.21s CPU      0.23s WALL (       1 calls)
     electrons    :      0.71s CPU      0.82s WALL (       1 calls)
     forces       :      0.02s CPU      0.02s WALL (       1 calls)
     stress       :      0.04s CPU      0.04s WALL (       1 calls)

     Called by init_run:
     wfcinit      :      0.01s CPU      0.01s WALL (       1 calls)
     potinit      :      0.09s CPU      0.10s WALL (       1 calls)
     hinit0       :      0.10s CPU      0.10s WALL (       1 calls)

     Called by electrons:
     c_bands      :      0.20s CPU      0.23s WALL (       6 calls)
     sum_band     :      0.06s CPU      0.06s WALL (       6 calls)
     v_of_rho     :      0.01s CPU      0.01s WALL (       6 calls)
     newd         :      0.02s CPU      0.02s WALL (       6 calls)
     PAW_pot      :      0.51s CPU      0.59s WALL (       6 calls)
     mix_rho      :      0.00s CPU      0.00s WALL (       6 calls)

     Called by c_bands:
     init_us_2    :      0.01s CPU      0.01s WALL (     240 calls)
     cegterg      :      0.19s CPU      0.21s WALL (      96 calls)

     Called by sum_band:
     sum_band:bec :      0.00s CPU      0.00s WALL (      96 calls)
     addusdens    :      0.01s CPU      0.01s WALL (       6 calls)

     Called by *egterg:
     h_psi        :      0.14s CPU      0.16s WALL (     327 calls)
     s_psi        :      0.00s CPU      0.01s WALL (     327 calls)
     g_psi        :      0.00s CPU      0.00s WALL (     215 calls)
     cdiaghg      :      0.02s CPU      0.02s WALL (     295 calls)

     Called by h_psi:
     h_psi:pot    :      0.14s CPU      0.16s WALL (     327 calls)
     h_psi:calbec :      0.01s CPU      0.01s WALL (     327 calls)
     vloc_psi     :      0.13s CPU      0.14s WALL (     327 calls)
     add_vuspsi   :      0.00s CPU      0.01s WALL (     327 calls)

     General routines
     calbec       :      0.02s CPU      0.02s WALL (     503 calls)
     fft          :      0.01s CPU      0.01s WALL (      93 calls)
     ffts         :      0.00s CPU      0.00s WALL (       6 calls)
     fftw         :      0.14s CPU      0.16s WALL (    3616 calls)

     Parallel routines
     fft_scatt_xy :      0.01s CPU      0.02s WALL (    3715 calls)
     fft_scatt_yz :      0.05s CPU      0.05s WALL (    3715 calls)

     PWSCF        :     1.67s CPU         1.86s WALL


   This run was terminated on:  19:57:45  25Mar2024            

=------------------------------------------------------------------------------=
   JOB DONE.
=------------------------------------------------------------------------------=
