
     Program PWSCF v.6.3MaX starts on 25Mar2024 at 20:15:37 

     This program is part of the open-source Quantum ESPRESSO suite
     for quantum simulation of materials; please cite
         "P. Giannozzi et al., J. Phys.:Condens. Matter 21 395502 (2009);
         "P. Giannozzi et al., J. Phys.:Condens. Matter 29 465901 (2017);
          URL http://www.quantum-espresso.org", 
     in publications or presentations arising from this work. More details at
     http://www.quantum-espresso.org/quote

     Parallel version (MPI), running on     5 processors

     MPI processes distributed on     1 nodes
     R & G space division:  proc/nbgrp/npool/nimage =       5
     Waiting for input...
     Reading input from standard input

     Current dimensions of program PWSCF are:
     Max number of different atomic species (ntypx) = 10
     Max number of k-points (npk) =  40000
     Max angular momentum in pseudopotentials (lmaxx) =  3

     Subspace diagonalization in iterative solution of the eigenvalue problem:
     a serial algorithm will be used


     Parallelization info
     --------------------
     sticks:   dense  smooth     PW     G-vecs:    dense   smooth      PW
     Min         153     153     46                 2813     2813     455
     Max         155     155     48                 2814     2814     456
     Sum         769     769    235                14067    14067    2277



     bravais-lattice index     =            2
     lattice parameter (alat)  =       7.6500  a.u.
     unit-cell volume          =     111.9243 (a.u.)^3
     number of atoms/cell      =            1
     number of atomic types    =            1
     number of electrons       =         3.00
     number of Kohn-Sham states=            6
     kinetic-energy cutoff     =      95.0000  Ry
     charge density cutoff     =     380.0000  Ry
     convergence threshold     =      1.0E-08
     mixing beta               =       0.7000
     number of iterations used =            8  plain     mixing
     Exchange-correlation      = PBE ( 1  4  3  4 0 0)

     celldm(1)=   7.650000  celldm(2)=   0.000000  celldm(3)=   0.000000
     celldm(4)=   0.000000  celldm(5)=   0.000000  celldm(6)=   0.000000

     crystal axes: (cart. coord. in units of alat)
               a(1) = (  -0.500000   0.000000   0.500000 )  
               a(2) = (   0.000000   0.500000   0.500000 )  
               a(3) = (  -0.500000   0.500000   0.000000 )  

     reciprocal axes: (cart. coord. in units 2 pi/alat)
               b(1) = ( -1.000000 -1.000000  1.000000 )  
               b(2) = (  1.000000  1.000000  1.000000 )  
               b(3) = ( -1.000000  1.000000 -1.000000 )  


     PseudoPot. # 1 for Al read from file:
     /home/lorenzo/pseudos/Al/Al.pbe-nl-rrkjus_psl.1.0.0.UPF
     MD5 check sum: 6db8691240a1c860ce6448702d298c4b
     Pseudo is Ultrasoft + core correction, Zval =  3.0
     Generated using "atomic" code by A. Dal Corso v.6.3
     Using radial grid of 1135 points,  4 beta functions with: 
                l(1) =   0
                l(2) =   0
                l(3) =   1
                l(4) =   1
     Q(r) pseudized with 0 coefficients 


     atomic species   valence    mass     pseudopotential
        Al             3.00    26.98150     Al( 1.00)

     48 Sym. Ops., with inversion, found



   Cartesian axes

     site n.     atom                  positions (alat units)
         1           Al  tau(   1) = (   0.0000000   0.0000000   0.0000000  )

     number of k points=     8  gaussian smearing, width (Ry)=  0.0100
                       cart. coord. in units 2pi/alat
        k(    1) = (   0.0000000   0.0000000   0.0000000), wk =   0.0312500
        k(    2) = (  -0.2500000   0.2500000  -0.2500000), wk =   0.2500000
        k(    3) = (   0.5000000  -0.5000000   0.5000000), wk =   0.1250000
        k(    4) = (   0.0000000   0.5000000   0.0000000), wk =   0.1875000
        k(    5) = (   0.7500000  -0.2500000   0.7500000), wk =   0.7500000
        k(    6) = (   0.5000000   0.0000000   0.5000000), wk =   0.3750000
        k(    7) = (   0.0000000  -1.0000000   0.0000000), wk =   0.0937500
        k(    8) = (  -0.5000000  -1.0000000   0.0000000), wk =   0.1875000

     Dense  grid:    14067 G-vectors     FFT dimensions: (  36,  36,  36)

     Estimated max dynamical RAM per process >       4.90 MB

     Estimated total dynamical RAM >      24.51 MB

     Initial potential from superposition of free atoms

     starting charge    2.99771, renormalised to    3.00000
     Starting wfcs are    4 randomized atomic wfcs +    2 random wfcs

     total cpu time spent up to now is        0.6 secs

     Self-consistent Calculation

     iteration #  1     ecut=    95.00 Ry     beta= 0.70
     Davidson diagonalization with overlap
     ethr =  1.00E-02,  avg # of iterations =  4.8

     Threshold (ethr) on eigenvalues was too large:
     Diagonalizing with lowered threshold

     Davidson diagonalization with overlap
     ethr =  2.15E-04,  avg # of iterations =  1.5

     total cpu time spent up to now is        0.9 secs

     total energy              =      -5.01820895 Ry
     Harris-Foulkes estimate   =      -5.01950527 Ry
     estimated scf accuracy    <       0.00621056 Ry

     iteration #  2     ecut=    95.00 Ry     beta= 0.70
     Davidson diagonalization with overlap
     ethr =  2.07E-04,  avg # of iterations =  1.0

     total cpu time spent up to now is        1.0 secs

     total energy              =      -5.01819895 Ry
     Harris-Foulkes estimate   =      -5.01828937 Ry
     estimated scf accuracy    <       0.00046195 Ry

     iteration #  3     ecut=    95.00 Ry     beta= 0.70
     Davidson diagonalization with overlap
     ethr =  1.54E-05,  avg # of iterations =  2.0

     total cpu time spent up to now is        1.1 secs

     total energy              =      -5.01821938 Ry
     Harris-Foulkes estimate   =      -5.01821955 Ry
     estimated scf accuracy    <       0.00000144 Ry

     iteration #  4     ecut=    95.00 Ry     beta= 0.70
     Davidson diagonalization with overlap
     ethr =  4.80E-08,  avg # of iterations =  3.4

     total cpu time spent up to now is        1.2 secs

     total energy              =      -5.01822162 Ry
     Harris-Foulkes estimate   =      -5.01822159 Ry
     estimated scf accuracy    <       0.00000011 Ry

     iteration #  5     ecut=    95.00 Ry     beta= 0.70
     Davidson diagonalization with overlap
     ethr =  3.55E-09,  avg # of iterations =  1.1

     total cpu time spent up to now is        1.3 secs

     total energy              =      -5.01822161 Ry
     Harris-Foulkes estimate   =      -5.01822162 Ry
     estimated scf accuracy    <       0.00000005 Ry

     iteration #  6     ecut=    95.00 Ry     beta= 0.70
     Davidson diagonalization with overlap
     ethr =  1.59E-09,  avg # of iterations =  1.0

     total cpu time spent up to now is        1.4 secs

     End of self-consistent calculation

          k = 0.0000 0.0000 0.0000 (  1807 PWs)   bands (ev):

    -3.2458  20.4437  20.4437  21.8789  21.8789  21.8789

          k =-0.2500 0.2500-0.2500 (  1760 PWs)   bands (ev):

    -1.5618  11.2867  18.7206  18.7206  22.1594  22.5496

          k = 0.5000-0.5000 0.5000 (  1772 PWs)   bands (ev):

     3.2781   3.4870  19.1997  19.1997  19.2905  19.2905

          k = 0.0000 0.5000 0.0000 (  1748 PWs)   bands (ev):

    -1.0049  15.3334  15.3435  15.3435  16.0890  18.8043

          k = 0.7500-0.2500 0.7500 (  1747 PWs)   bands (ev):

     2.8273   7.1039  11.5005  14.8724  16.5596  23.8830

          k = 0.5000 0.0000 0.5000 (  1750 PWs)   bands (ev):

     1.2019   9.0970  10.5929  17.2969  19.2588  25.4051

          k = 0.0000-1.0000 0.0000 (  1724 PWs)   bands (ev):

     4.9423   6.2578  13.1234  13.4227  13.4227  16.8691

          k =-0.5000-1.0000 0.0000 (  1744 PWs)   bands (ev):

     7.0172   7.0172   8.0329   8.9361  23.6244  23.6244

     the Fermi energy is     7.1885 ev

!    total energy              =      -5.01822161 Ry
     Harris-Foulkes estimate   =      -5.01822161 Ry
     estimated scf accuracy    <          3.8E-10 Ry

     The total energy is the sum of the following terms:

     one-electron contribution =       2.95861769 Ry
     hartree contribution      =       0.00759226 Ry
     xc contribution           =      -2.58882231 Ry
     ewald contribution        =      -5.39395538 Ry
     smearing contrib. (-TS)   =      -0.00165386 Ry

     convergence has been achieved in   6 iterations

     Forces acting on atoms (cartesian axes, Ry/au):

     atom    1 type  1   force =     0.00000000    0.00000000    0.00000000

     Total force =     0.000000     Total SCF correction =     0.000000


     Computing stress (Cartesian axis) and pressure

          total   stress  (Ry/bohr**3)                   (kbar)     P=    3.51
   0.00002386  -0.00000000   0.00000000          3.51     -0.00      0.00
  -0.00000000   0.00002386   0.00000000         -0.00      3.51      0.00
   0.00000000   0.00000000   0.00002386          0.00      0.00      3.51


     Writing output data file Al.save/

     init_run     :      0.16s CPU      0.17s WALL (       1 calls)
     electrons    :      0.68s CPU      0.73s WALL (       1 calls)
     forces       :      0.03s CPU      0.03s WALL (       1 calls)
     stress       :      0.08s CPU      0.08s WALL (       1 calls)

     Called by init_run:
     wfcinit      :      0.02s CPU      0.03s WALL (       1 calls)
     potinit      :      0.02s CPU      0.02s WALL (       1 calls)
     hinit0       :      0.11s CPU      0.11s WALL (       1 calls)

     Called by electrons:
     c_bands      :      0.47s CPU      0.51s WALL (       7 calls)
     sum_band     :      0.13s CPU      0.14s WALL (       7 calls)
     v_of_rho     :      0.06s CPU      0.06s WALL (       7 calls)
     newd         :      0.02s CPU      0.02s WALL (       7 calls)
     mix_rho      :      0.00s CPU      0.00s WALL (       7 calls)

     Called by c_bands:
     init_us_2    :      0.01s CPU      0.02s WALL (     136 calls)
     cegterg      :      0.45s CPU      0.49s WALL (      56 calls)

     Called by sum_band:
     sum_band:bec :      0.00s CPU      0.00s WALL (      56 calls)
     addusdens    :      0.02s CPU      0.02s WALL (       7 calls)

     Called by *egterg:
     h_psi        :      0.40s CPU      0.43s WALL (     182 calls)
     s_psi        :      0.00s CPU      0.01s WALL (     182 calls)
     g_psi        :      0.00s CPU      0.00s WALL (     118 calls)
     cdiaghg      :      0.02s CPU      0.02s WALL (     166 calls)

     Called by h_psi:
     h_psi:pot    :      0.39s CPU      0.43s WALL (     182 calls)
     h_psi:calbec :      0.02s CPU      0.02s WALL (     182 calls)
     vloc_psi     :      0.37s CPU      0.40s WALL (     182 calls)
     add_vuspsi   :      0.01s CPU      0.01s WALL (     182 calls)

     General routines
     calbec       :      0.03s CPU      0.03s WALL (     278 calls)
     fft          :      0.04s CPU      0.04s WALL (     104 calls)
     ffts         :      0.00s CPU      0.00s WALL (       7 calls)
     fftw         :      0.43s CPU      0.46s WALL (    2064 calls)

     Parallel routines
     fft_scatt_xy :      0.04s CPU      0.04s WALL (    2175 calls)
     fft_scatt_yz :      0.14s CPU      0.15s WALL (    2175 calls)

     PWSCF        :     1.45s CPU         1.54s WALL


   This run was terminated on:  20:15:39  25Mar2024            

=------------------------------------------------------------------------------=
   JOB DONE.
=------------------------------------------------------------------------------=
