
     Program PWSCF v.6.3MaX starts on 25Mar2024 at 19:54:23 

     This program is part of the open-source Quantum ESPRESSO suite
     for quantum simulation of materials; please cite
         "P. Giannozzi et al., J. Phys.:Condens. Matter 21 395502 (2009);
         "P. Giannozzi et al., J. Phys.:Condens. Matter 29 465901 (2017);
          URL http://www.quantum-espresso.org", 
     in publications or presentations arising from this work. More details at
     http://www.quantum-espresso.org/quote

     Parallel version (MPI), running on     5 processors

     MPI processes distributed on     1 nodes
     R & G space division:  proc/nbgrp/npool/nimage =       5
     Waiting for input...
     Reading input from standard input

     Current dimensions of program PWSCF are:
     Max number of different atomic species (ntypx) = 10
     Max number of k-points (npk) =  40000
     Max angular momentum in pseudopotentials (lmaxx) =  3
               file Al.pbe-nl-kjpaw_psl.1.0.0.UPF: wavefunction(s)  3S 3P renormalized

     Subspace diagonalization in iterative solution of the eigenvalue problem:
     a serial algorithm will be used


     Parallelization info
     --------------------
     sticks:   dense  smooth     PW     G-vecs:    dense   smooth      PW
     Min          24      24     11                  178      178      51
     Max          25      25     11                  181      181      52
     Sum         121     121     55                  893      893     259



     bravais-lattice index     =            2
     lattice parameter (alat)  =       7.6500  a.u.
     unit-cell volume          =     111.9243 (a.u.)^3
     number of atoms/cell      =            1
     number of atomic types    =            1
     number of electrons       =         3.00
     number of Kohn-Sham states=            6
     kinetic-energy cutoff     =      15.0000  Ry
     charge density cutoff     =      60.0000  Ry
     convergence threshold     =      1.0E-08
     mixing beta               =       0.7000
     number of iterations used =            8  plain     mixing
     Exchange-correlation      = SLA PW PBX PBC ( 1  4  3  4 0 0)

     celldm(1)=   7.650000  celldm(2)=   0.000000  celldm(3)=   0.000000
     celldm(4)=   0.000000  celldm(5)=   0.000000  celldm(6)=   0.000000

     crystal axes: (cart. coord. in units of alat)
               a(1) = (  -0.500000   0.000000   0.500000 )  
               a(2) = (   0.000000   0.500000   0.500000 )  
               a(3) = (  -0.500000   0.500000   0.000000 )  

     reciprocal axes: (cart. coord. in units 2 pi/alat)
               b(1) = ( -1.000000 -1.000000  1.000000 )  
               b(2) = (  1.000000  1.000000  1.000000 )  
               b(3) = ( -1.000000  1.000000 -1.000000 )  


     PseudoPot. # 1 for Al read from file:
     /home/lorenzo/pseudos/Al/Al.pbe-nl-kjpaw_psl.1.0.0.UPF
     MD5 check sum: 8cf6d98cc7ef3f4b729b574060f3a10f
     Pseudo is Projector augmented-wave + core cor, Zval =  3.0
     Generated using "atomic" code by A. Dal Corso v.6.3
     Shape of augmentation charge: PSQ
     Using radial grid of 1135 points,  4 beta functions with: 
                l(1) =   0
                l(2) =   0
                l(3) =   1
                l(4) =   1
     Q(r) pseudized with 0 coefficients 


     atomic species   valence    mass     pseudopotential
        Al             3.00    26.98150     Al( 1.00)

     48 Sym. Ops., with inversion, found



   Cartesian axes

     site n.     atom                  positions (alat units)
         1           Al  tau(   1) = (   0.0000000   0.0000000   0.0000000  )

     number of k points=    56  gaussian smearing, width (Ry)=  0.0100
                       cart. coord. in units 2pi/alat
        k(    1) = (   0.0000000   0.0000000   0.0000000), wk =   0.0015026
        k(    2) = (  -0.0909091   0.0909091  -0.0909091), wk =   0.0120210
        k(    3) = (  -0.1818182   0.1818182  -0.1818182), wk =   0.0120210
        k(    4) = (  -0.2727273   0.2727273  -0.2727273), wk =   0.0120210
        k(    5) = (  -0.3636364   0.3636364  -0.3636364), wk =   0.0120210
        k(    6) = (  -0.4545455   0.4545455  -0.4545455), wk =   0.0120210
        k(    7) = (   0.0000000   0.1818182   0.0000000), wk =   0.0090158
        k(    8) = (  -0.0909091   0.2727273  -0.0909091), wk =   0.0360631
        k(    9) = (  -0.1818182   0.3636364  -0.1818182), wk =   0.0360631
        k(   10) = (  -0.2727273   0.4545455  -0.2727273), wk =   0.0360631
        k(   11) = (  -0.3636364   0.5454545  -0.3636364), wk =   0.0360631
        k(   12) = (   0.5454545  -0.3636364   0.5454545), wk =   0.0360631
        k(   13) = (   0.4545455  -0.2727273   0.4545455), wk =   0.0360631
        k(   14) = (   0.3636364  -0.1818182   0.3636364), wk =   0.0360631
        k(   15) = (   0.2727273  -0.0909091   0.2727273), wk =   0.0360631
        k(   16) = (   0.1818182  -0.0000000   0.1818182), wk =   0.0180316
        k(   17) = (   0.0000000   0.3636364   0.0000000), wk =   0.0090158
        k(   18) = (  -0.0909091   0.4545455  -0.0909091), wk =   0.0360631
        k(   19) = (  -0.1818182   0.5454545  -0.1818182), wk =   0.0360631
        k(   20) = (  -0.2727273   0.6363636  -0.2727273), wk =   0.0360631
        k(   21) = (   0.6363636  -0.2727273   0.6363636), wk =   0.0360631
        k(   22) = (   0.5454545  -0.1818182   0.5454545), wk =   0.0360631
        k(   23) = (   0.4545455  -0.0909091   0.4545455), wk =   0.0360631
        k(   24) = (   0.3636364   0.0000000   0.3636364), wk =   0.0180316
        k(   25) = (   0.0000000   0.5454545   0.0000000), wk =   0.0090158
        k(   26) = (  -0.0909091   0.6363636  -0.0909091), wk =   0.0360631
        k(   27) = (  -0.1818182   0.7272727  -0.1818182), wk =   0.0360631
        k(   28) = (   0.7272727  -0.1818182   0.7272727), wk =   0.0360631
        k(   29) = (   0.6363636  -0.0909091   0.6363636), wk =   0.0360631
        k(   30) = (   0.5454545   0.0000000   0.5454545), wk =   0.0180316
        k(   31) = (   0.0000000   0.7272727   0.0000000), wk =   0.0090158
        k(   32) = (  -0.0909091   0.8181818  -0.0909091), wk =   0.0360631
        k(   33) = (   0.8181818  -0.0909091   0.8181818), wk =   0.0360631
        k(   34) = (   0.7272727   0.0000000   0.7272727), wk =   0.0180316
        k(   35) = (   0.0000000   0.9090909   0.0000000), wk =   0.0090158
        k(   36) = (   0.9090909  -0.0000000   0.9090909), wk =   0.0180316
        k(   37) = (  -0.1818182   0.3636364   0.0000000), wk =   0.0360631
        k(   38) = (  -0.2727273   0.4545455  -0.0909091), wk =   0.0721262
        k(   39) = (  -0.3636364   0.5454545  -0.1818182), wk =   0.0721262
        k(   40) = (   0.5454545  -0.3636364   0.7272727), wk =   0.0721262
        k(   41) = (  -0.1818182   0.5454545   0.0000000), wk =   0.0360631
        k(   42) = (  -0.2727273   0.6363636  -0.0909091), wk =   0.0721262
        k(   43) = (   0.6363636  -0.2727273   0.8181818), wk =   0.0721262
        k(   44) = (   0.5454545  -0.1818182   0.7272727), wk =   0.0721262
        k(   45) = (   0.4545455  -0.0909091   0.6363636), wk =   0.0721262
        k(   46) = (   0.3636364   0.0000000   0.5454545), wk =   0.0360631
        k(   47) = (  -0.1818182   0.7272727   0.0000000), wk =   0.0360631
        k(   48) = (   0.7272727  -0.1818182   0.9090909), wk =   0.0721262
        k(   49) = (   0.6363636  -0.0909091   0.8181818), wk =   0.0721262
        k(   50) = (   0.5454545   0.0000000   0.7272727), wk =   0.0360631
        k(   51) = (   0.8181818  -0.0909091   1.0000000), wk =   0.0360631
        k(   52) = (   0.7272727   0.0000000   0.9090909), wk =   0.0360631
        k(   53) = (   0.6363636  -0.2727273   1.0000000), wk =   0.0360631
        k(   54) = (   0.5454545  -0.1818182   0.9090909), wk =   0.0721262
        k(   55) = (   0.6363636  -0.0909091   1.0000000), wk =   0.0360631
        k(   56) = (   0.5454545   0.0000000   0.9090909), wk =   0.0360631

     Dense  grid:      893 G-vectors     FFT dimensions: (  15,  15,  15)

     Estimated max dynamical RAM per process >       0.59 MB

     Estimated total dynamical RAM >       2.97 MB

     Initial potential from superposition of free atoms

     starting charge    2.99771, renormalised to    3.00000
     Starting wfcs are    4 randomized atomic wfcs +    2 random wfcs
     Checking if some PAW data can be deallocated... 

     total cpu time spent up to now is        0.6 secs

     Self-consistent Calculation

     iteration #  1     ecut=    15.00 Ry     beta= 0.70
     Davidson diagonalization with overlap
     ethr =  1.00E-02,  avg # of iterations =  4.3

     Threshold (ethr) on eigenvalues was too large:
     Diagonalizing with lowered threshold

     Davidson diagonalization with overlap
     ethr =  1.90E-04,  avg # of iterations =  1.7

     total cpu time spent up to now is        0.9 secs

     total energy              =     -39.50137322 Ry
     Harris-Foulkes estimate   =     -39.50287552 Ry
     estimated scf accuracy    <       0.00562194 Ry

     iteration #  2     ecut=    15.00 Ry     beta= 0.70
     Davidson diagonalization with overlap
     ethr =  1.87E-04,  avg # of iterations =  1.0

     total cpu time spent up to now is        1.0 secs

     total energy              =     -39.50135033 Ry
     Harris-Foulkes estimate   =     -39.50145120 Ry
     estimated scf accuracy    <       0.00039058 Ry

     iteration #  3     ecut=    15.00 Ry     beta= 0.70
     Davidson diagonalization with overlap
     ethr =  1.30E-05,  avg # of iterations =  1.5

     total cpu time spent up to now is        1.1 secs

     total energy              =     -39.50136774 Ry
     Harris-Foulkes estimate   =     -39.50136817 Ry
     estimated scf accuracy    <       0.00000140 Ry

     iteration #  4     ecut=    15.00 Ry     beta= 0.70
     Davidson diagonalization with overlap
     ethr =  4.67E-08,  avg # of iterations =  3.2

     total cpu time spent up to now is        1.2 secs

     total energy              =     -39.50136951 Ry
     Harris-Foulkes estimate   =     -39.50136951 Ry
     estimated scf accuracy    <       0.00000008 Ry

     iteration #  5     ecut=    15.00 Ry     beta= 0.70
     Davidson diagonalization with overlap
     ethr =  2.83E-09,  avg # of iterations =  1.0

     total cpu time spent up to now is        1.3 secs

     total energy              =     -39.50136952 Ry
     Harris-Foulkes estimate   =     -39.50136951 Ry
     estimated scf accuracy    <       0.00000005 Ry

     iteration #  6     ecut=    15.00 Ry     beta= 0.70
     Davidson diagonalization with overlap
     ethr =  1.59E-09,  avg # of iterations =  1.0

     total cpu time spent up to now is        1.5 secs

     End of self-consistent calculation

          k = 0.0000 0.0000 0.0000 (   113 PWs)   bands (ev):

    -3.2479  20.6603  20.6603  21.8831  21.8831  21.8831

          k =-0.0909 0.0909-0.0909 (   113 PWs)   bands (ev):

    -3.0241  17.6173  19.9290  19.9290  22.6284  22.9579

          k =-0.1818 0.1818-0.1818 (   110 PWs)   bands (ev):

    -2.3546  13.9343  19.1636  19.1636  22.3990  23.8530

          k =-0.2727 0.2727-0.2727 (   113 PWs)   bands (ev):

    -1.2452  10.4892  18.7285  18.7285  22.2110  22.3004

          k =-0.3636 0.3636-0.3636 (   111 PWs)   bands (ev):

     0.2943   7.3706  18.6814  18.6814  20.8494  20.8494

          k =-0.4545 0.4545-0.4545 (   108 PWs)   bands (ev):

     2.2496   4.6227  19.0037  19.0037  19.7794  19.7794

          k = 0.0000 0.1818 0.0000 (   113 PWs)   bands (ev):

    -2.9496  18.6248  18.6248  19.0029  21.2233  24.3675

          k =-0.0909 0.2727-0.0909 (   116 PWs)   bands (ev):

    -2.4290  15.2612  17.6729  19.0672  21.5925  22.3433

          k =-0.1818 0.3636-0.1818 (   110 PWs)   bands (ev):

    -1.4665  11.7685  17.1089  18.7070  20.0194  23.7802

          k =-0.2727 0.4545-0.2727 (   109 PWs)   bands (ev):

    -0.0711   8.5496  16.9268  18.3783  18.5802  23.3638

          k =-0.3636 0.5455-0.3636 (   112 PWs)   bands (ev):

     1.7452   5.6821  17.1130  17.1250  18.8149  22.1539

          k = 0.5455-0.3636 0.5455 (   112 PWs)   bands (ev):

     3.1728   3.9904  16.2456  17.7113  19.4483  21.3198

          k = 0.4545-0.2727 0.4545 (   107 PWs)   bands (ev):

     1.0941   6.5953  15.7779  18.6895  20.4686  20.8878

          k = 0.3636-0.1818 0.3636 (   109 PWs)   bands (ev):

    -0.5836   9.5795  15.7092  19.9849  20.8628  21.8484

          k = 0.2727-0.0909 0.2727 (   112 PWs)   bands (ev):

    -1.8360  12.8775  16.0612  20.9433  21.8068  23.4177

          k = 0.1818-0.0000 0.1818 (   115 PWs)   bands (ev):

    -2.6519  16.1173  17.1046  21.2420  22.1869  23.3101

          k = 0.0000 0.3636 0.0000 (   113 PWs)   bands (ev):

    -2.0580  16.5795  16.5795  16.8059  19.5768  19.9108

          k =-0.0909 0.4545-0.0909 (   111 PWs)   bands (ev):

    -1.2453  13.3662  15.8789  17.2423  17.4668  20.4500

          k =-0.1818 0.5455-0.1818 (   112 PWs)   bands (ev):

     0.0013  10.1096  15.5581  15.5857  17.2582  22.5999

          k =-0.2727 0.6364-0.2727 (   110 PWs)   bands (ev):

     1.6713   7.1482  14.1689  15.6318  17.4090  24.9533

          k = 0.6364-0.2727 0.6364 (   109 PWs)   bands (ev):

     3.7358   4.5604  13.1536  16.0873  17.9418  24.0101

          k = 0.5455-0.1818 0.5455 (   109 PWs)   bands (ev):

     2.3211   6.2259  12.5557  16.9342  18.8628  23.4342

          k = 0.4545-0.0909 0.4545 (   108 PWs)   bands (ev):

     0.5124   9.0254  12.4167  18.1644  20.1721  23.2218

          k = 0.3636 0.0000 0.3636 (   111 PWs)   bands (ev):

    -0.8774  11.7157  13.1371  19.7611  21.7989  22.9994

          k = 0.0000 0.5455 0.0000 (   113 PWs)   bands (ev):

    -0.5844  15.0431  15.0431  15.0443  15.0499  18.5158

          k =-0.0909 0.6364-0.0909 (   109 PWs)   bands (ev):

     0.5105  11.9823  13.0909  14.5906  15.9313  19.2497

          k =-0.1818 0.7273-0.1818 (   108 PWs)   bands (ev):

     2.0279   8.9907  11.5193  14.5257  16.1706  21.6736

          k = 0.7273-0.1818 0.7273 (   108 PWs)   bands (ev):

     3.9451   6.3030  10.3607  14.8531  16.6103  24.6438

          k = 0.6364-0.0909 0.6364 (   107 PWs)   bands (ev):

     3.9618   6.2339   9.6679  15.5677  17.4324  26.3749

          k = 0.5455 0.0000 0.5455 (   107 PWs)   bands (ev):

     2.0331   8.3957   9.8861  16.6725  18.6341  25.8912

          k = 0.0000 0.7273 0.0000 (   112 PWs)   bands (ev):

     1.4502  10.9422  13.8720  14.0059  14.0059  17.5140

          k =-0.0909 0.8182-0.0909 (   110 PWs)   bands (ev):

     2.8058   9.2118  11.1788  13.8124  15.0810  18.4973

          k = 0.8182-0.0909 0.8182 (   108 PWs)   bands (ev):

     4.5320   7.8851   8.5224  14.0084  15.6027  21.1870

          k = 0.7273 0.0000 0.7273 (   106 PWs)   bands (ev):

     5.9842   6.1827   7.6424  14.5955  16.3369  24.4367

          k = 0.0000 0.9091 0.0000 (   112 PWs)   bands (ev):

     3.9678   7.3810  13.2833  13.4883  13.4883  16.9851

          k = 0.9091-0.0000 0.9091 (   114 PWs)   bands (ev):

     5.0782   6.4213  10.8929  13.5536  14.7877  18.2366

          k =-0.1818 0.3636 0.0000 (   114 PWs)   bands (ev):

    -1.7620  13.9259  15.1288  19.7887  19.9372  21.6818

          k =-0.2727 0.4545-0.0909 (   111 PWs)   bands (ev):

    -0.6571  10.9603  14.2478  17.9038  20.1555  23.1834

          k =-0.3636 0.5455-0.1818 (   107 PWs)   bands (ev):

     0.8758   7.9079  14.1420  16.3776  20.2087  22.4937

          k = 0.5455-0.3636 0.7273 (   109 PWs)   bands (ev):

     2.8218   5.1844  14.4488  15.2523  20.5373  21.4335

          k =-0.1818 0.5455 0.0000 (   110 PWs)   bands (ev):

    -0.2911  12.2762  13.5417  15.3591  18.3684  20.3884

          k =-0.2727 0.6364-0.0909 (   110 PWs)   bands (ev):

     1.0919   9.5718  12.8600  13.7016  18.9093  22.2395

          k = 0.6364-0.2727 0.8182 (   108 PWs)   bands (ev):

     2.8899   6.7842  12.2903  13.1378  19.2560  24.1069

          k = 0.5455-0.1818 0.7273 (   109 PWs)   bands (ev):

     4.3021   5.1109  11.4501  13.6994  19.9059  23.4031

          k = 0.4545-0.0909 0.6364 (   111 PWs)   bands (ev):

     2.2481   7.6299  11.0429  14.7039  20.9004  22.8780

          k = 0.3636 0.0000 0.5455 (   110 PWs)   bands (ev):

     0.5848  10.0577  11.5227  16.1145  22.1728  22.1816

          k =-0.1818 0.7273 0.0000 (   111 PWs)   bands (ev):

     1.7393  11.1632  11.1843  12.5546  17.2749  19.4365

          k = 0.7273-0.1818 0.9091 (   107 PWs)   bands (ev):

     3.3774   8.7156   9.8015  12.1392  18.1132  21.5575

          k = 0.6364-0.0909 0.8182 (   108 PWs)   bands (ev):

     5.3645   6.2235   8.8236  12.5552  18.7403  24.5609

          k = 0.5455 0.0000 0.7273 (   108 PWs)   bands (ev):

     4.0310   7.2882   8.7554  13.4246  19.6637  25.4964

          k = 0.8182-0.0909 1.0000 (   108 PWs)   bands (ev):

     4.2504   7.6609  10.6119  11.9881  16.7301  18.9392

          k = 0.7273 0.0000 0.9091 (   106 PWs)   bands (ev):

     5.6301   6.9800   8.4946  11.8579  17.8435  21.3191

          k = 0.6364-0.2727 1.0000 (   109 PWs)   bands (ev):

     2.6033   8.9489  10.3812  12.1290  21.1497  22.5927

          k = 0.5455-0.1818 0.9091 (   109 PWs)   bands (ev):

     4.5125   6.7902  10.1302  11.0267  22.0430  22.9882

          k = 0.6364-0.0909 1.0000 (   105 PWs)   bands (ev):

     5.0949   8.3967   8.4538   9.9816  20.6196  22.2696

          k = 0.5455 0.0000 0.9091 (   108 PWs)   bands (ev):

     6.4821   6.7347   8.1510  10.0226  21.8526  24.6750

     the Fermi energy is     7.8865 ev

!    total energy              =     -39.50136952 Ry
     Harris-Foulkes estimate   =     -39.50136952 Ry
     estimated scf accuracy    <          2.1E-10 Ry

     total all-electron energy =      -485.644150 Ry

     The total energy is the sum of the following terms:

     one-electron contribution =       3.15318792 Ry
     hartree contribution      =       0.00602393 Ry
     xc contribution           =      -2.58772188 Ry
     ewald contribution        =      -5.39395544 Ry
     one-center paw contrib.   =     -34.67858717 Ry
     smearing contrib. (-TS)   =      -0.00031688 Ry

     convergence has been achieved in   6 iterations

     Forces acting on atoms (cartesian axes, Ry/au):

     atom    1 type  1   force =     0.00000000    0.00000000    0.00000000

     Total force =     0.000000     Total SCF correction =     0.000000


     Computing stress (Cartesian axis) and pressure

          total   stress  (Ry/bohr**3)                   (kbar)     P=   -1.53
  -0.00001037   0.00000000   0.00000000         -1.53      0.00      0.00
   0.00000000  -0.00001037  -0.00000000          0.00     -1.53     -0.00
   0.00000000  -0.00000000  -0.00001037          0.00     -0.00     -1.53


     Writing output data file Al.save/

     init_run     :      0.14s CPU      0.16s WALL (       1 calls)
     electrons    :      0.74s CPU      0.87s WALL (       1 calls)
     forces       :      0.01s CPU      0.01s WALL (       1 calls)
     stress       :      0.02s CPU      0.02s WALL (       1 calls)

     Called by init_run:
     wfcinit      :      0.04s CPU      0.04s WALL (       1 calls)
     potinit      :      0.05s CPU      0.06s WALL (       1 calls)
     hinit0       :      0.05s CPU      0.05s WALL (       1 calls)

     Called by electrons:
     c_bands      :      0.53s CPU      0.60s WALL (       7 calls)
     sum_band     :      0.07s CPU      0.08s WALL (       7 calls)
     v_of_rho     :      0.01s CPU      0.01s WALL (       7 calls)
     newd         :      0.00s CPU      0.00s WALL (       7 calls)
     PAW_pot      :      0.18s CPU      0.22s WALL (       7 calls)
     mix_rho      :      0.00s CPU      0.00s WALL (       7 calls)

     Called by c_bands:
     init_us_2    :      0.01s CPU      0.01s WALL (     952 calls)
     cegterg      :      0.51s CPU      0.58s WALL (     392 calls)

     Called by sum_band:
     sum_band:bec :      0.00s CPU      0.00s WALL (     392 calls)
     addusdens    :      0.00s CPU      0.00s WALL (       7 calls)

     Called by *egterg:
     h_psi        :      0.37s CPU      0.43s WALL (    1217 calls)
     s_psi        :      0.01s CPU      0.01s WALL (    1217 calls)
     g_psi        :      0.00s CPU      0.00s WALL (     769 calls)
     cdiaghg      :      0.08s CPU      0.09s WALL (    1105 calls)

     Called by h_psi:
     h_psi:pot    :      0.37s CPU      0.42s WALL (    1217 calls)
     h_psi:calbec :      0.02s CPU      0.03s WALL (    1217 calls)
     vloc_psi     :      0.33s CPU      0.38s WALL (    1217 calls)
     add_vuspsi   :      0.01s CPU      0.01s WALL (    1217 calls)

     General routines
     calbec       :      0.03s CPU      0.03s WALL (    1889 calls)
     fft          :      0.01s CPU      0.01s WALL (     104 calls)
     ffts         :      0.00s CPU      0.00s WALL (       7 calls)
     fftw         :      0.35s CPU      0.40s WALL (   14258 calls)

     Parallel routines
     fft_scatt_xy :      0.03s CPU      0.04s WALL (   14369 calls)
     fft_scatt_yz :      0.17s CPU      0.19s WALL (   14369 calls)

     PWSCF        :     1.36s CPU         1.58s WALL


   This run was terminated on:  19:54:24  25Mar2024            

=------------------------------------------------------------------------------=
   JOB DONE.
=------------------------------------------------------------------------------=
