
     Program PWSCF v.6.3MaX starts on 25Mar2024 at 20: 6:28 

     This program is part of the open-source Quantum ESPRESSO suite
     for quantum simulation of materials; please cite
         "P. Giannozzi et al., J. Phys.:Condens. Matter 21 395502 (2009);
         "P. Giannozzi et al., J. Phys.:Condens. Matter 29 465901 (2017);
          URL http://www.quantum-espresso.org", 
     in publications or presentations arising from this work. More details at
     http://www.quantum-espresso.org/quote

     Parallel version (MPI), running on     5 processors

     MPI processes distributed on     1 nodes
     R & G space division:  proc/nbgrp/npool/nimage =       5
     Waiting for input...
     Reading input from standard input

     Current dimensions of program PWSCF are:
     Max number of different atomic species (ntypx) = 10
     Max number of k-points (npk) =  40000
     Max angular momentum in pseudopotentials (lmaxx) =  3

     Subspace diagonalization in iterative solution of the eigenvalue problem:
     a serial algorithm will be used


     Parallelization info
     --------------------
     sticks:   dense  smooth     PW     G-vecs:    dense   smooth      PW
     Min         103     103     32                 1564     1564     290
     Max         104     104     33                 1565     1565     293
     Sum         517     517    163                 7823     7823    1459



     bravais-lattice index     =            2
     lattice parameter (alat)  =       7.6500  a.u.
     unit-cell volume          =     111.9243 (a.u.)^3
     number of atoms/cell      =            1
     number of atomic types    =            1
     number of electrons       =         3.00
     number of Kohn-Sham states=            6
     kinetic-energy cutoff     =      65.0000  Ry
     charge density cutoff     =     260.0000  Ry
     convergence threshold     =      1.0E-08
     mixing beta               =       0.7000
     number of iterations used =            8  plain     mixing
     Exchange-correlation      = PBE ( 1  4  3  4 0 0)

     celldm(1)=   7.650000  celldm(2)=   0.000000  celldm(3)=   0.000000
     celldm(4)=   0.000000  celldm(5)=   0.000000  celldm(6)=   0.000000

     crystal axes: (cart. coord. in units of alat)
               a(1) = (  -0.500000   0.000000   0.500000 )  
               a(2) = (   0.000000   0.500000   0.500000 )  
               a(3) = (  -0.500000   0.500000   0.000000 )  

     reciprocal axes: (cart. coord. in units 2 pi/alat)
               b(1) = ( -1.000000 -1.000000  1.000000 )  
               b(2) = (  1.000000  1.000000  1.000000 )  
               b(3) = ( -1.000000  1.000000 -1.000000 )  


     PseudoPot. # 1 for Al read from file:
     /home/lorenzo/pseudos/Al/Al.pbe-nl-rrkjus_psl.1.0.0.UPF
     MD5 check sum: 6db8691240a1c860ce6448702d298c4b
     Pseudo is Ultrasoft + core correction, Zval =  3.0
     Generated using "atomic" code by A. Dal Corso v.6.3
     Using radial grid of 1135 points,  4 beta functions with: 
                l(1) =   0
                l(2) =   0
                l(3) =   1
                l(4) =   1
     Q(r) pseudized with 0 coefficients 


     atomic species   valence    mass     pseudopotential
        Al             3.00    26.98150     Al( 1.00)

     48 Sym. Ops., with inversion, found



   Cartesian axes

     site n.     atom                  positions (alat units)
         1           Al  tau(   1) = (   0.0000000   0.0000000   0.0000000  )

     number of k points=    29  gaussian smearing, width (Ry)=  0.0100
                       cart. coord. in units 2pi/alat
        k(    1) = (   0.0000000   0.0000000   0.0000000), wk =   0.0039062
        k(    2) = (  -0.1250000   0.1250000  -0.1250000), wk =   0.0312500
        k(    3) = (  -0.2500000   0.2500000  -0.2500000), wk =   0.0312500
        k(    4) = (  -0.3750000   0.3750000  -0.3750000), wk =   0.0312500
        k(    5) = (   0.5000000  -0.5000000   0.5000000), wk =   0.0156250
        k(    6) = (   0.0000000   0.2500000   0.0000000), wk =   0.0234375
        k(    7) = (  -0.1250000   0.3750000  -0.1250000), wk =   0.0937500
        k(    8) = (  -0.2500000   0.5000000  -0.2500000), wk =   0.0937500
        k(    9) = (   0.6250000  -0.3750000   0.6250000), wk =   0.0937500
        k(   10) = (   0.5000000  -0.2500000   0.5000000), wk =   0.0937500
        k(   11) = (   0.3750000  -0.1250000   0.3750000), wk =   0.0937500
        k(   12) = (   0.2500000   0.0000000   0.2500000), wk =   0.0468750
        k(   13) = (   0.0000000   0.5000000   0.0000000), wk =   0.0234375
        k(   14) = (  -0.1250000   0.6250000  -0.1250000), wk =   0.0937500
        k(   15) = (   0.7500000  -0.2500000   0.7500000), wk =   0.0937500
        k(   16) = (   0.6250000  -0.1250000   0.6250000), wk =   0.0937500
        k(   17) = (   0.5000000   0.0000000   0.5000000), wk =   0.0468750
        k(   18) = (   0.0000000   0.7500000   0.0000000), wk =   0.0234375
        k(   19) = (   0.8750000  -0.1250000   0.8750000), wk =   0.0937500
        k(   20) = (   0.7500000   0.0000000   0.7500000), wk =   0.0468750
        k(   21) = (   0.0000000  -1.0000000   0.0000000), wk =   0.0117188
        k(   22) = (  -0.2500000   0.5000000   0.0000000), wk =   0.0937500
        k(   23) = (   0.6250000  -0.3750000   0.8750000), wk =   0.1875000
        k(   24) = (   0.5000000  -0.2500000   0.7500000), wk =   0.0937500
        k(   25) = (   0.7500000  -0.2500000   1.0000000), wk =   0.0937500
        k(   26) = (   0.6250000  -0.1250000   0.8750000), wk =   0.1875000
        k(   27) = (   0.5000000   0.0000000   0.7500000), wk =   0.0937500
        k(   28) = (  -0.2500000  -1.0000000   0.0000000), wk =   0.0468750
        k(   29) = (  -0.5000000  -1.0000000   0.0000000), wk =   0.0234375

     Dense  grid:     7823 G-vectors     FFT dimensions: (  27,  27,  27)

     Estimated max dynamical RAM per process >       3.16 MB

     Estimated total dynamical RAM >      15.82 MB

     Initial potential from superposition of free atoms

     starting charge    2.99771, renormalised to    3.00000
     Starting wfcs are    4 randomized atomic wfcs +    2 random wfcs

     total cpu time spent up to now is        0.6 secs

     Self-consistent Calculation

     iteration #  1     ecut=    65.00 Ry     beta= 0.70
     Davidson diagonalization with overlap
     ethr =  1.00E-02,  avg # of iterations =  5.1

     Threshold (ethr) on eigenvalues was too large:
     Diagonalizing with lowered threshold

     Davidson diagonalization with overlap
     ethr =  1.93E-04,  avg # of iterations =  2.0

     total cpu time spent up to now is        1.0 secs

     total energy              =      -5.03852239 Ry
     Harris-Foulkes estimate   =      -5.03986372 Ry
     estimated scf accuracy    <       0.00569935 Ry

     iteration #  2     ecut=    65.00 Ry     beta= 0.70
     Davidson diagonalization with overlap
     ethr =  1.90E-04,  avg # of iterations =  1.2

     total cpu time spent up to now is        1.1 secs

     total energy              =      -5.03851324 Ry
     Harris-Foulkes estimate   =      -5.03860242 Ry
     estimated scf accuracy    <       0.00040768 Ry

     iteration #  3     ecut=    65.00 Ry     beta= 0.70
     Davidson diagonalization with overlap
     ethr =  1.36E-05,  avg # of iterations =  2.0

     total cpu time spent up to now is        1.2 secs

     total energy              =      -5.03853231 Ry
     Harris-Foulkes estimate   =      -5.03853237 Ry
     estimated scf accuracy    <       0.00000139 Ry

     iteration #  4     ecut=    65.00 Ry     beta= 0.70
     Davidson diagonalization with overlap
     ethr =  4.63E-08,  avg # of iterations =  3.0

     total cpu time spent up to now is        1.4 secs

     total energy              =      -5.03853429 Ry
     Harris-Foulkes estimate   =      -5.03853428 Ry
     estimated scf accuracy    <       0.00000007 Ry

     iteration #  5     ecut=    65.00 Ry     beta= 0.70
     Davidson diagonalization with overlap
     ethr =  2.31E-09,  avg # of iterations =  1.1

     total cpu time spent up to now is        1.6 secs

     total energy              =      -5.03853430 Ry
     Harris-Foulkes estimate   =      -5.03853429 Ry
     estimated scf accuracy    <       0.00000004 Ry

     iteration #  6     ecut=    65.00 Ry     beta= 0.70
     Davidson diagonalization with overlap
     ethr =  1.41E-09,  avg # of iterations =  1.0

     total cpu time spent up to now is        1.7 secs

     End of self-consistent calculation

          k = 0.0000 0.0000 0.0000 (   965 PWs)   bands (ev):

    -3.2491  20.4402  20.4402  21.8758  21.8758  21.8758

          k =-0.1250 0.1250-0.1250 (   968 PWs)   bands (ev):

    -2.8262  16.1435  19.4846  19.4847  22.5079  23.4206

          k =-0.2500 0.2500-0.2500 (   983 PWs)   bands (ev):

    -1.5650  11.2832  18.7174  18.7174  22.1547  22.5462

          k =-0.3750 0.3750-0.3750 (   990 PWs)   bands (ev):

     0.5132   6.9892  18.6253  18.6253  20.5671  20.5672

          k = 0.5000-0.5000 0.5000 (   978 PWs)   bands (ev):

     3.2758   3.4828  19.1954  19.1954  19.2886  19.2886

          k = 0.0000 0.2500 0.0000 (   974 PWs)   bands (ev):

    -2.6855  17.7278  17.7278  17.9919  20.7288  22.4400

          k =-0.1250 0.3750-0.1250 (   984 PWs)   bands (ev):

    -1.7046  13.1403  16.6646  18.1848  19.4124  21.9348

          k =-0.2500 0.5000-0.2500 (   988 PWs)   bands (ev):

     0.0996   8.6852  16.3168  17.0441  18.0204  24.0262

          k = 0.6250-0.3750 0.6250 (   994 PWs)   bands (ev):

     2.6944   4.8622  15.4204  16.6884  18.4578  22.5180

          k = 0.5000-0.2500 0.5000 (   992 PWs)   bands (ev):

     1.7454   6.0544  14.5408  17.7800  19.6383  21.6779

          k = 0.3750-0.1250 0.3750 (   982 PWs)   bands (ev):

    -0.5916  10.0838  14.4413  19.5716  21.5195  21.5268

          k = 0.2500 0.0000 0.2500 (   985 PWs)   bands (ev):

    -2.1242  14.2862  15.5165  21.5336  21.8229  23.1607

          k = 0.0000 0.5000 0.0000 (   998 PWs)   bands (ev):

    -1.0081  15.3281  15.3405  15.3405  16.0862  18.8019

          k =-0.1250 0.6250-0.1250 (   997 PWs)   bands (ev):

     0.5116  11.0689  13.4199  14.7432  16.2144  20.2172

          k = 0.7500-0.2500 0.7500 (   998 PWs)   bands (ev):

     2.8241   7.1005  11.4975  14.8695  16.5557  23.8797

          k = 0.6250-0.1250 0.6250 (   989 PWs)   bands (ev):

     3.7708   5.8822  10.3764  15.7199  17.5437  25.4291

          k = 0.5000 0.0000 0.5000 (   983 PWs)   bands (ev):

     1.1987   9.0929  10.5906  17.2938  19.2551  24.7738

          k = 0.0000 0.7500 0.0000 (   998 PWs)   bands (ev):

     1.7384  10.4326  13.6739  13.8999  13.8999  17.3755

          k = 0.8750-0.1250 0.8750 (   989 PWs)   bands (ev):

     3.7360   8.2254  10.0586  13.7818  15.1524  19.2816

          k = 0.7500 0.0000 0.7500 (   999 PWs)   bands (ev):

     5.9748   6.5011   7.4486  14.3876  16.0318  23.4658

          k = 0.0000-1.0000 0.0000 (   982 PWs)   bands (ev):

     4.9383   6.2558  13.1180  13.4199  13.4199  16.8667

          k =-0.2500 0.5000 0.0000 (   990 PWs)   bands (ev):

    -0.4532  11.6958  13.0882  16.6014  19.9573  21.7091

          k = 0.6250-0.3750 0.8750 (   994 PWs)   bands (ev):

     1.6077   7.9891  12.4159  14.4697  20.5762  22.6561

          k = 0.5000-0.2500 0.7500 (   982 PWs)   bands (ev):

     4.3205   4.5716  12.8160  13.2738  21.0957  21.5331

          k = 0.7500-0.2500 1.0000 (   995 PWs)   bands (ev):

     2.2824  10.1351  10.8459  11.7232  18.4683  20.4611

          k = 0.6250-0.1250 0.8750 (   993 PWs)   bands (ev):

     4.8005   6.9278   9.3057  11.4590  19.6462  23.7646

          k = 0.5000 0.0000 0.7500 (  1002 PWs)   bands (ev):

     3.9013   7.5327   8.9963  12.5629  20.8567  24.0920

          k =-0.2500-1.0000 0.0000 (   988 PWs)   bands (ev):

     5.4563   6.7961   9.6144  11.1114  17.9606  20.0073

          k =-0.5000-1.0000 0.0000 (   992 PWs)   bands (ev):

     7.0131   7.0131   8.0324   8.9318  23.6202  23.6202

     the Fermi energy is     7.8843 ev

!    total energy              =      -5.03853430 Ry
     Harris-Foulkes estimate   =      -5.03853430 Ry
     estimated scf accuracy    <          1.1E-10 Ry

     The total energy is the sum of the following terms:

     one-electron contribution =       2.93762826 Ry
     hartree contribution      =       0.00648914 Ry
     xc contribution           =      -2.58838296 Ry
     ewald contribution        =      -5.39395538 Ry
     smearing contrib. (-TS)   =      -0.00031337 Ry

     convergence has been achieved in   6 iterations

     Forces acting on atoms (cartesian axes, Ry/au):

     atom    1 type  1   force =     0.00000000    0.00000000    0.00000000

     Total force =     0.000000     Total SCF correction =     0.000000


     Computing stress (Cartesian axis) and pressure

          total   stress  (Ry/bohr**3)                   (kbar)     P=   -4.20
  -0.00002853  -0.00000000  -0.00000000         -4.20     -0.00     -0.00
  -0.00000000  -0.00002853   0.00000000         -0.00     -4.20      0.00
  -0.00000000   0.00000000  -0.00002853         -0.00      0.00     -4.20


     Writing output data file Al.save/

     init_run     :      0.17s CPU      0.17s WALL (       1 calls)
     electrons    :      1.11s CPU      1.17s WALL (       1 calls)
     forces       :      0.03s CPU      0.03s WALL (       1 calls)
     stress       :      0.10s CPU      0.10s WALL (       1 calls)

     Called by init_run:
     wfcinit      :      0.07s CPU      0.07s WALL (       1 calls)
     potinit      :      0.01s CPU      0.01s WALL (       1 calls)
     hinit0       :      0.08s CPU      0.08s WALL (       1 calls)

     Called by electrons:
     c_bands      :      0.90s CPU      0.94s WALL (       7 calls)
     sum_band     :      0.17s CPU      0.18s WALL (       7 calls)
     v_of_rho     :      0.03s CPU      0.03s WALL (       7 calls)
     newd         :      0.01s CPU      0.01s WALL (       7 calls)
     mix_rho      :      0.00s CPU      0.00s WALL (       7 calls)

     Called by c_bands:
     init_us_2    :      0.03s CPU      0.03s WALL (     493 calls)
     cegterg      :      0.86s CPU      0.90s WALL (     203 calls)

     Called by sum_band:
     sum_band:bec :      0.00s CPU      0.00s WALL (     203 calls)
     addusdens    :      0.01s CPU      0.01s WALL (       7 calls)

     Called by *egterg:
     h_psi        :      0.75s CPU      0.78s WALL (     680 calls)
     s_psi        :      0.01s CPU      0.01s WALL (     680 calls)
     g_psi        :      0.00s CPU      0.00s WALL (     448 calls)
     cdiaghg      :      0.06s CPU      0.06s WALL (     622 calls)

     Called by h_psi:
     h_psi:pot    :      0.74s CPU      0.78s WALL (     680 calls)
     h_psi:calbec :      0.03s CPU      0.03s WALL (     680 calls)
     vloc_psi     :      0.70s CPU      0.73s WALL (     680 calls)
     add_vuspsi   :      0.01s CPU      0.01s WALL (     680 calls)

     General routines
     calbec       :      0.05s CPU      0.05s WALL (    1028 calls)
     fft          :      0.02s CPU      0.02s WALL (     104 calls)
     ffts         :      0.00s CPU      0.00s WALL (       7 calls)
     fftw         :      0.78s CPU      0.82s WALL (    7542 calls)

     Parallel routines
     fft_scatt_xy :      0.06s CPU      0.07s WALL (    7653 calls)
     fft_scatt_yz :      0.22s CPU      0.23s WALL (    7653 calls)

     PWSCF        :     1.84s CPU         1.94s WALL


   This run was terminated on:  20: 6:30  25Mar2024            

=------------------------------------------------------------------------------=
   JOB DONE.
=------------------------------------------------------------------------------=
