
     Program PWSCF v.6.3MaX starts on 25Mar2024 at 19:58:21 

     This program is part of the open-source Quantum ESPRESSO suite
     for quantum simulation of materials; please cite
         "P. Giannozzi et al., J. Phys.:Condens. Matter 21 395502 (2009);
         "P. Giannozzi et al., J. Phys.:Condens. Matter 29 465901 (2017);
          URL http://www.quantum-espresso.org", 
     in publications or presentations arising from this work. More details at
     http://www.quantum-espresso.org/quote

     Parallel version (MPI), running on     5 processors

     MPI processes distributed on     1 nodes
     R & G space division:  proc/nbgrp/npool/nimage =       5
     Waiting for input...
     Reading input from standard input

     Current dimensions of program PWSCF are:
     Max number of different atomic species (ntypx) = 10
     Max number of k-points (npk) =  40000
     Max angular momentum in pseudopotentials (lmaxx) =  3

     Subspace diagonalization in iterative solution of the eigenvalue problem:
     a serial algorithm will be used


     Parallelization info
     --------------------
     sticks:   dense  smooth     PW     G-vecs:    dense   smooth      PW
     Min          56      56     19                  623      623     128
     Max          57      57     20                  625      625     130
     Sum         283     283     97                 3119     3119     645



     bravais-lattice index     =            2
     lattice parameter (alat)  =       7.6500  a.u.
     unit-cell volume          =     111.9243 (a.u.)^3
     number of atoms/cell      =            1
     number of atomic types    =            1
     number of electrons       =         3.00
     number of Kohn-Sham states=            6
     kinetic-energy cutoff     =      35.0000  Ry
     charge density cutoff     =     140.0000  Ry
     convergence threshold     =      1.0E-08
     mixing beta               =       0.7000
     number of iterations used =            8  plain     mixing
     Exchange-correlation      = PBE ( 1  4  3  4 0 0)

     celldm(1)=   7.650000  celldm(2)=   0.000000  celldm(3)=   0.000000
     celldm(4)=   0.000000  celldm(5)=   0.000000  celldm(6)=   0.000000

     crystal axes: (cart. coord. in units of alat)
               a(1) = (  -0.500000   0.000000   0.500000 )  
               a(2) = (   0.000000   0.500000   0.500000 )  
               a(3) = (  -0.500000   0.500000   0.000000 )  

     reciprocal axes: (cart. coord. in units 2 pi/alat)
               b(1) = ( -1.000000 -1.000000  1.000000 )  
               b(2) = (  1.000000  1.000000  1.000000 )  
               b(3) = ( -1.000000  1.000000 -1.000000 )  


     PseudoPot. # 1 for Al read from file:
     /home/lorenzo/pseudos/Al/Al.pbe-nl-rrkjus_psl.1.0.0.UPF
     MD5 check sum: 6db8691240a1c860ce6448702d298c4b
     Pseudo is Ultrasoft + core correction, Zval =  3.0
     Generated using "atomic" code by A. Dal Corso v.6.3
     Using radial grid of 1135 points,  4 beta functions with: 
                l(1) =   0
                l(2) =   0
                l(3) =   1
                l(4) =   1
     Q(r) pseudized with 0 coefficients 


     atomic species   valence    mass     pseudopotential
        Al             3.00    26.98150     Al( 1.00)

     48 Sym. Ops., with inversion, found



   Cartesian axes

     site n.     atom                  positions (alat units)
         1           Al  tau(   1) = (   0.0000000   0.0000000   0.0000000  )

     number of k points=    56  gaussian smearing, width (Ry)=  0.0100
                       cart. coord. in units 2pi/alat
        k(    1) = (   0.0000000   0.0000000   0.0000000), wk =   0.0015026
        k(    2) = (  -0.0909091   0.0909091  -0.0909091), wk =   0.0120210
        k(    3) = (  -0.1818182   0.1818182  -0.1818182), wk =   0.0120210
        k(    4) = (  -0.2727273   0.2727273  -0.2727273), wk =   0.0120210
        k(    5) = (  -0.3636364   0.3636364  -0.3636364), wk =   0.0120210
        k(    6) = (  -0.4545455   0.4545455  -0.4545455), wk =   0.0120210
        k(    7) = (   0.0000000   0.1818182   0.0000000), wk =   0.0090158
        k(    8) = (  -0.0909091   0.2727273  -0.0909091), wk =   0.0360631
        k(    9) = (  -0.1818182   0.3636364  -0.1818182), wk =   0.0360631
        k(   10) = (  -0.2727273   0.4545455  -0.2727273), wk =   0.0360631
        k(   11) = (  -0.3636364   0.5454545  -0.3636364), wk =   0.0360631
        k(   12) = (   0.5454545  -0.3636364   0.5454545), wk =   0.0360631
        k(   13) = (   0.4545455  -0.2727273   0.4545455), wk =   0.0360631
        k(   14) = (   0.3636364  -0.1818182   0.3636364), wk =   0.0360631
        k(   15) = (   0.2727273  -0.0909091   0.2727273), wk =   0.0360631
        k(   16) = (   0.1818182  -0.0000000   0.1818182), wk =   0.0180316
        k(   17) = (   0.0000000   0.3636364   0.0000000), wk =   0.0090158
        k(   18) = (  -0.0909091   0.4545455  -0.0909091), wk =   0.0360631
        k(   19) = (  -0.1818182   0.5454545  -0.1818182), wk =   0.0360631
        k(   20) = (  -0.2727273   0.6363636  -0.2727273), wk =   0.0360631
        k(   21) = (   0.6363636  -0.2727273   0.6363636), wk =   0.0360631
        k(   22) = (   0.5454545  -0.1818182   0.5454545), wk =   0.0360631
        k(   23) = (   0.4545455  -0.0909091   0.4545455), wk =   0.0360631
        k(   24) = (   0.3636364   0.0000000   0.3636364), wk =   0.0180316
        k(   25) = (   0.0000000   0.5454545   0.0000000), wk =   0.0090158
        k(   26) = (  -0.0909091   0.6363636  -0.0909091), wk =   0.0360631
        k(   27) = (  -0.1818182   0.7272727  -0.1818182), wk =   0.0360631
        k(   28) = (   0.7272727  -0.1818182   0.7272727), wk =   0.0360631
        k(   29) = (   0.6363636  -0.0909091   0.6363636), wk =   0.0360631
        k(   30) = (   0.5454545   0.0000000   0.5454545), wk =   0.0180316
        k(   31) = (   0.0000000   0.7272727   0.0000000), wk =   0.0090158
        k(   32) = (  -0.0909091   0.8181818  -0.0909091), wk =   0.0360631
        k(   33) = (   0.8181818  -0.0909091   0.8181818), wk =   0.0360631
        k(   34) = (   0.7272727   0.0000000   0.7272727), wk =   0.0180316
        k(   35) = (   0.0000000   0.9090909   0.0000000), wk =   0.0090158
        k(   36) = (   0.9090909  -0.0000000   0.9090909), wk =   0.0180316
        k(   37) = (  -0.1818182   0.3636364   0.0000000), wk =   0.0360631
        k(   38) = (  -0.2727273   0.4545455  -0.0909091), wk =   0.0721262
        k(   39) = (  -0.3636364   0.5454545  -0.1818182), wk =   0.0721262
        k(   40) = (   0.5454545  -0.3636364   0.7272727), wk =   0.0721262
        k(   41) = (  -0.1818182   0.5454545   0.0000000), wk =   0.0360631
        k(   42) = (  -0.2727273   0.6363636  -0.0909091), wk =   0.0721262
        k(   43) = (   0.6363636  -0.2727273   0.8181818), wk =   0.0721262
        k(   44) = (   0.5454545  -0.1818182   0.7272727), wk =   0.0721262
        k(   45) = (   0.4545455  -0.0909091   0.6363636), wk =   0.0721262
        k(   46) = (   0.3636364   0.0000000   0.5454545), wk =   0.0360631
        k(   47) = (  -0.1818182   0.7272727   0.0000000), wk =   0.0360631
        k(   48) = (   0.7272727  -0.1818182   0.9090909), wk =   0.0721262
        k(   49) = (   0.6363636  -0.0909091   0.8181818), wk =   0.0721262
        k(   50) = (   0.5454545   0.0000000   0.7272727), wk =   0.0360631
        k(   51) = (   0.8181818  -0.0909091   1.0000000), wk =   0.0360631
        k(   52) = (   0.7272727   0.0000000   0.9090909), wk =   0.0360631
        k(   53) = (   0.6363636  -0.2727273   1.0000000), wk =   0.0360631
        k(   54) = (   0.5454545  -0.1818182   0.9090909), wk =   0.0721262
        k(   55) = (   0.6363636  -0.0909091   1.0000000), wk =   0.0360631
        k(   56) = (   0.5454545   0.0000000   0.9090909), wk =   0.0360631

     Dense  grid:     3119 G-vectors     FFT dimensions: (  24,  24,  24)

     Estimated max dynamical RAM per process >       1.68 MB

     Estimated total dynamical RAM >       8.40 MB

     Initial potential from superposition of free atoms

     starting charge    2.99771, renormalised to    3.00000
     Starting wfcs are    4 randomized atomic wfcs +    2 random wfcs

     total cpu time spent up to now is        0.5 secs

     Self-consistent Calculation

     iteration #  1     ecut=    35.00 Ry     beta= 0.70
     Davidson diagonalization with overlap
     ethr =  1.00E-02,  avg # of iterations =  4.8

     Threshold (ethr) on eigenvalues was too large:
     Diagonalizing with lowered threshold

     Davidson diagonalization with overlap
     ethr =  1.89E-04,  avg # of iterations =  1.9

     total cpu time spent up to now is        1.0 secs

     total energy              =      -5.03944721 Ry
     Harris-Foulkes estimate   =      -5.04083336 Ry
     estimated scf accuracy    <       0.00561137 Ry

     iteration #  2     ecut=    35.00 Ry     beta= 0.70
     Davidson diagonalization with overlap
     ethr =  1.87E-04,  avg # of iterations =  1.0

     total cpu time spent up to now is        1.2 secs

     total energy              =      -5.03943419 Ry
     Harris-Foulkes estimate   =      -5.03952560 Ry
     estimated scf accuracy    <       0.00039474 Ry

     iteration #  3     ecut=    35.00 Ry     beta= 0.70
     Davidson diagonalization with overlap
     ethr =  1.32E-05,  avg # of iterations =  1.9

     total cpu time spent up to now is        1.4 secs

     total energy              =      -5.03945375 Ry
     Harris-Foulkes estimate   =      -5.03945376 Ry
     estimated scf accuracy    <       0.00000146 Ry

     iteration #  4     ecut=    35.00 Ry     beta= 0.70
     Davidson diagonalization with overlap
     ethr =  4.86E-08,  avg # of iterations =  3.1

     total cpu time spent up to now is        1.6 secs

     total energy              =      -5.03945585 Ry
     Harris-Foulkes estimate   =      -5.03945584 Ry
     estimated scf accuracy    <       0.00000008 Ry

     iteration #  5     ecut=    35.00 Ry     beta= 0.70
     Davidson diagonalization with overlap
     ethr =  2.74E-09,  avg # of iterations =  1.0

     total cpu time spent up to now is        1.8 secs

     total energy              =      -5.03945587 Ry
     Harris-Foulkes estimate   =      -5.03945585 Ry
     estimated scf accuracy    <       0.00000004 Ry

     iteration #  6     ecut=    35.00 Ry     beta= 0.70
     Davidson diagonalization with overlap
     ethr =  1.42E-09,  avg # of iterations =  1.0

     total cpu time spent up to now is        2.0 secs

     End of self-consistent calculation

          k = 0.0000 0.0000 0.0000 (   387 PWs)   bands (ev):

    -3.2500  20.4431  20.4431  21.8743  21.8745  21.8745

          k =-0.0909 0.0909-0.0909 (   381 PWs)   bands (ev):

    -3.0262  17.5215  19.7921  19.7921  22.5601  22.8615

          k =-0.1818 0.1818-0.1818 (   386 PWs)   bands (ev):

    -2.3568  13.8785  19.0580  19.0580  22.3323  23.6831

          k =-0.2727 0.2727-0.2727 (   392 PWs)   bands (ev):

    -1.2480  10.4543  18.6489  18.6489  22.1245  22.1480

          k =-0.3636 0.3636-0.3636 (   395 PWs)   bands (ev):

     0.2903   7.3513  18.6048  18.6048  20.7227  20.7227

          k =-0.4545 0.4545-0.4545 (   392 PWs)   bands (ev):

     2.2437   4.6113  18.9328  18.9328  19.6460  19.6460

          k = 0.0000 0.1818 0.0000 (   383 PWs)   bands (ev):

    -2.9516  18.5304  18.5304  18.8391  21.2102  24.1824

          k =-0.0909 0.2727-0.0909 (   381 PWs)   bands (ev):

    -2.4310  15.2003  17.6046  18.9489  21.5455  22.1810

          k =-0.1818 0.3636-0.1818 (   384 PWs)   bands (ev):

    -1.4691  11.7264  17.0485  18.6079  19.9111  23.6792

          k =-0.2727 0.4545-0.2727 (   384 PWs)   bands (ev):

    -0.0746   8.5254  16.8694  18.2701  18.5130  23.1868

          k =-0.3636 0.5455-0.3636 (   389 PWs)   bands (ev):

     1.7399   5.6682  17.0439  17.0692  18.7325  22.0127

          k = 0.5455-0.3636 0.5455 (   391 PWs)   bands (ev):

     3.1662   3.9800  16.1858  17.6494  19.3573  21.1915

          k = 0.4545-0.2727 0.4545 (   390 PWs)   bands (ev):

     1.0895   6.5782  15.7212  18.6068  20.3663  20.7413

          k = 0.3636-0.1818 0.3636 (   388 PWs)   bands (ev):

    -0.5868   9.5503  15.6555  19.9095  20.6835  21.7350

          k = 0.2727-0.0909 0.2727 (   385 PWs)   bands (ev):

    -1.8383  12.8312  16.0036  20.8295  21.6441  23.3326

          k = 0.1818-0.0000 0.1818 (   381 PWs)   bands (ev):

    -2.6539  16.0410  17.0409  21.0223  22.1782  23.2615

          k = 0.0000 0.3636 0.0000 (   391 PWs)   bands (ev):

    -2.0603  16.5283  16.5283  16.6720  19.4854  19.8532

          k =-0.0909 0.4545-0.0909 (   390 PWs)   bands (ev):

    -1.2481  13.3158  15.8342  17.1317  17.4042  20.3797

          k =-0.1818 0.5455-0.1818 (   389 PWs)   bands (ev):

    -0.0020  10.0783  15.5222  15.5244  17.1777  22.4994

          k =-0.2727 0.6364-0.2727 (   391 PWs)   bands (ev):

     1.6663   7.1298  14.1199  15.5920  17.3294  24.7370

          k = 0.6364-0.2727 0.6364 (   393 PWs)   bands (ev):

     3.7278   4.5490  13.1123  16.0440  17.8550  23.8179

          k = 0.5455-0.1818 0.5455 (   388 PWs)   bands (ev):

     2.3150   6.2103  12.5196  16.8784  18.7749  23.2503

          k = 0.4545-0.0909 0.4545 (   393 PWs)   bands (ev):

     0.5085   8.9972  12.3819  18.0917  20.0721  23.0268

          k = 0.3636 0.0000 0.3636 (   385 PWs)   bands (ev):

    -0.8803  11.6725  13.1072  19.6685  21.6924  22.7496

          k = 0.0000 0.5455 0.0000 (   383 PWs)   bands (ev):

    -0.5872  14.9488  14.9958  15.0066  15.0066  18.4857

          k =-0.0909 0.6364-0.0909 (   392 PWs)   bands (ev):

     0.5069  11.9390  13.0482  14.5634  15.8490  19.1969

          k =-0.1818 0.7273-0.1818 (   395 PWs)   bands (ev):

     2.0226   8.9637  11.4835  14.5033  16.0867  21.5785

          k = 0.7273-0.1818 0.7273 (   393 PWs)   bands (ev):

     3.9366   6.2876  10.3314  14.8260  16.5272  24.4986

          k = 0.6364-0.0909 0.6364 (   394 PWs)   bands (ev):

     3.9526   6.2188   9.6418  15.5320  17.3413  26.1171

          k = 0.5455 0.0000 0.5455 (   395 PWs)   bands (ev):

     2.0274   8.3693   9.8635  16.6216  18.5385  25.5858

          k = 0.0000 0.7273 0.0000 (   387 PWs)   bands (ev):

     1.4459  10.9092  13.7801  13.9903  13.9903  17.4702

          k =-0.0909 0.8182-0.0909 (   400 PWs)   bands (ev):

     2.8000   9.1848  11.1445  13.8008  15.0082  18.4410

          k = 0.8182-0.0909 0.8182 (   392 PWs)   bands (ev):

     4.5238   7.8591   8.5045  13.9942  15.5240  21.0961

          k = 0.7273 0.0000 0.7273 (   391 PWs)   bands (ev):

     5.9695   6.1707   7.6221  14.5709  16.2510  24.2931

          k = 0.0000 0.9091 0.0000 (   392 PWs)   bands (ev):

     3.9617   7.3602  13.1920  13.4824  13.4824  16.9347

          k = 0.9091-0.0000 0.9091 (   392 PWs)   bands (ev):

     5.0738   6.3996  10.8646  13.5468  14.7259  18.1825

          k =-0.1818 0.3636 0.0000 (   381 PWs)   bands (ev):

    -1.7644  13.8697  15.0880  19.6940  19.8050  21.6091

          k =-0.2727 0.4545-0.0909 (   387 PWs)   bands (ev):

    -0.6602  10.9219  14.2083  17.8268  20.0411  23.0940

          k =-0.3636 0.5455-0.1818 (   392 PWs)   bands (ev):

     0.8716   7.8859  14.0951  16.3152  20.1033  22.3465

          k = 0.5455-0.3636 0.7273 (   391 PWs)   bands (ev):

     2.8150   5.1717  14.3963  15.2084  20.4541  21.2808

          k =-0.1818 0.5455 0.0000 (   389 PWs)   bands (ev):

    -0.2943  12.2254  13.5123  15.3058  18.2611  20.3308

          k =-0.2727 0.6364-0.0909 (   395 PWs)   bands (ev):

     1.0877   9.5413  12.8228  13.6684  18.8106  22.1514

          k = 0.6364-0.2727 0.8182 (   392 PWs)   bands (ev):

     2.8831   6.7669  12.2468  13.1121  19.1629  23.9619

          k = 0.5455-0.1818 0.7273 (   396 PWs)   bands (ev):

     4.2924   5.0987  11.4174  13.6657  19.8119  23.2413

          k = 0.4545-0.0909 0.6364 (   392 PWs)   bands (ev):

     2.2422   7.6094  11.0155  14.6619  20.8088  22.7150

          k = 0.3636 0.0000 0.5455 (   396 PWs)   bands (ev):

     0.5809  10.0212  11.4996  16.0573  22.0175  22.0873

          k =-0.1818 0.7273 0.0000 (   393 PWs)   bands (ev):

     1.7345  11.1246  11.1460  12.5434  17.1903  19.3824

          k = 0.7273-0.1818 0.9091 (   396 PWs)   bands (ev):

     3.3703   8.6883   9.7740  12.1177  18.0236  21.4679

          k = 0.6364-0.0909 0.8182 (   387 PWs)   bands (ev):

     5.3529   6.2087   8.8008  12.5286  18.6520  24.4240

          k = 0.5455 0.0000 0.7273 (   394 PWs)   bands (ev):

     4.0216   7.2693   8.7355  13.3911  19.5691  25.2801

          k = 0.8182-0.0909 1.0000 (   403 PWs)   bands (ev):

     4.2431   7.6383  10.5732  11.9768  16.6495  18.8834

          k = 0.7273 0.0000 0.9091 (   385 PWs)   bands (ev):

     5.6220   6.9561   8.4727  11.8367  17.7572  21.2306

          k = 0.6364-0.2727 1.0000 (   397 PWs)   bands (ev):

     2.5970   8.9202  10.3592  12.1017  21.0124  22.5344

          k = 0.5455-0.1818 0.9091 (   395 PWs)   bands (ev):

     4.5023   6.7735  10.0988  11.0090  21.9391  22.8334

          k = 0.6364-0.0909 1.0000 (   395 PWs)   bands (ev):

     5.0843   8.3698   8.4257   9.9715  20.4873  22.1888

          k = 0.5455 0.0000 0.9091 (   390 PWs)   bands (ev):

     6.4657   6.7199   8.1279  10.0057  21.7307  24.5553

     the Fermi energy is     7.8632 ev

!    total energy              =      -5.03945587 Ry
     Harris-Foulkes estimate   =      -5.03945587 Ry
     estimated scf accuracy    <          4.6E-10 Ry

     The total energy is the sum of the following terms:

     one-electron contribution =       2.93682308 Ry
     hartree contribution      =       0.00608797 Ry
     xc contribution           =      -2.58809459 Ry
     ewald contribution        =      -5.39395543 Ry
     smearing contrib. (-TS)   =      -0.00031689 Ry

     convergence has been achieved in   6 iterations

     Forces acting on atoms (cartesian axes, Ry/au):

     atom    1 type  1   force =     0.00000000    0.00000000    0.00000000

     Total force =     0.000000     Total SCF correction =     0.000000


     Computing stress (Cartesian axis) and pressure

          total   stress  (Ry/bohr**3)                   (kbar)     P=   -4.32
  -0.00002934   0.00000000   0.00000000         -4.32      0.00      0.00
   0.00000000  -0.00002934  -0.00000000          0.00     -4.32     -0.00
   0.00000000  -0.00000000  -0.00002934          0.00     -0.00     -4.32


     Writing output data file Al.save/

     init_run     :      0.13s CPU      0.13s WALL (       1 calls)
     electrons    :      1.37s CPU      1.48s WALL (       1 calls)
     forces       :      0.02s CPU      0.03s WALL (       1 calls)
     stress       :      0.07s CPU      0.08s WALL (       1 calls)

     Called by init_run:
     wfcinit      :      0.06s CPU      0.06s WALL (       1 calls)
     potinit      :      0.01s CPU      0.01s WALL (       1 calls)
     hinit0       :      0.06s CPU      0.06s WALL (       1 calls)

     Called by electrons:
     c_bands      :      1.12s CPU      1.20s WALL (       7 calls)
     sum_band     :      0.23s CPU      0.25s WALL (       7 calls)
     v_of_rho     :      0.02s CPU      0.02s WALL (       7 calls)
     newd         :      0.01s CPU      0.01s WALL (       7 calls)
     mix_rho      :      0.00s CPU      0.00s WALL (       7 calls)

     Called by c_bands:
     init_us_2    :      0.03s CPU      0.03s WALL (     952 calls)
     cegterg      :      1.08s CPU      1.16s WALL (     392 calls)

     Called by sum_band:
     sum_band:bec :      0.00s CPU      0.00s WALL (     392 calls)
     addusdens    :      0.00s CPU      0.00s WALL (       7 calls)

     Called by *egterg:
     h_psi        :      0.90s CPU      0.97s WALL (    1273 calls)
     s_psi        :      0.01s CPU      0.01s WALL (    1273 calls)
     g_psi        :      0.00s CPU      0.00s WALL (     825 calls)
     cdiaghg      :      0.10s CPU      0.11s WALL (    1161 calls)

     Called by h_psi:
     h_psi:pot    :      0.90s CPU      0.96s WALL (    1273 calls)
     h_psi:calbec :      0.03s CPU      0.04s WALL (    1273 calls)
     vloc_psi     :      0.85s CPU      0.90s WALL (    1273 calls)
     add_vuspsi   :      0.01s CPU      0.01s WALL (    1273 calls)

     General routines
     calbec       :      0.06s CPU      0.06s WALL (    1945 calls)
     fft          :      0.01s CPU      0.02s WALL (     104 calls)
     ffts         :      0.00s CPU      0.00s WALL (       7 calls)
     fftw         :      0.96s CPU      1.02s WALL (   14508 calls)

     Parallel routines
     fft_scatt_xy :      0.08s CPU      0.09s WALL (   14619 calls)
     fft_scatt_yz :      0.34s CPU      0.37s WALL (   14619 calls)

     PWSCF        :     2.06s CPU         2.25s WALL


   This run was terminated on:  19:58:23  25Mar2024            

=------------------------------------------------------------------------------=
   JOB DONE.
=------------------------------------------------------------------------------=
