
     Program PWSCF v.6.3MaX starts on 25Mar2024 at 20: 8:49 

     This program is part of the open-source Quantum ESPRESSO suite
     for quantum simulation of materials; please cite
         "P. Giannozzi et al., J. Phys.:Condens. Matter 21 395502 (2009);
         "P. Giannozzi et al., J. Phys.:Condens. Matter 29 465901 (2017);
          URL http://www.quantum-espresso.org", 
     in publications or presentations arising from this work. More details at
     http://www.quantum-espresso.org/quote

     Parallel version (MPI), running on     5 processors

     MPI processes distributed on     1 nodes
     R & G space division:  proc/nbgrp/npool/nimage =       5
     Waiting for input...
     Reading input from standard input

     Current dimensions of program PWSCF are:
     Max number of different atomic species (ntypx) = 10
     Max number of k-points (npk) =  40000
     Max angular momentum in pseudopotentials (lmaxx) =  3
               file Al.pbe-n-kjpaw_psl.1.0.0.UPF: wavefunction(s)  3S 3P renormalized

     Subspace diagonalization in iterative solution of the eigenvalue problem:
     a serial algorithm will be used


     Parallelization info
     --------------------
     sticks:   dense  smooth     PW     G-vecs:    dense   smooth      PW
     Min         119     119     37                 1967     1967     337
     Max         119     119     38                 1969     1969     338
     Sum         595     595    187                 9841     9841    1687



     bravais-lattice index     =            2
     lattice parameter (alat)  =       7.6500  a.u.
     unit-cell volume          =     111.9243 (a.u.)^3
     number of atoms/cell      =            1
     number of atomic types    =            1
     number of electrons       =         3.00
     number of Kohn-Sham states=            6
     kinetic-energy cutoff     =      75.0000  Ry
     charge density cutoff     =     300.0000  Ry
     convergence threshold     =      1.0E-08
     mixing beta               =       0.7000
     number of iterations used =            8  plain     mixing
     Exchange-correlation      = SLA PW PBX PBC ( 1  4  3  4 0 0)

     celldm(1)=   7.650000  celldm(2)=   0.000000  celldm(3)=   0.000000
     celldm(4)=   0.000000  celldm(5)=   0.000000  celldm(6)=   0.000000

     crystal axes: (cart. coord. in units of alat)
               a(1) = (  -0.500000   0.000000   0.500000 )  
               a(2) = (   0.000000   0.500000   0.500000 )  
               a(3) = (  -0.500000   0.500000   0.000000 )  

     reciprocal axes: (cart. coord. in units 2 pi/alat)
               b(1) = ( -1.000000 -1.000000  1.000000 )  
               b(2) = (  1.000000  1.000000  1.000000 )  
               b(3) = ( -1.000000  1.000000 -1.000000 )  


     PseudoPot. # 1 for Al read from file:
     /home/lorenzo/pseudos/Al/Al.pbe-n-kjpaw_psl.1.0.0.UPF
     MD5 check sum: 502b6b27b9c6270cab5dd1084b96fa6d
     Pseudo is Projector augmented-wave + core cor, Zval =  3.0
     Generated using "atomic" code by A. Dal Corso v.6.3
     Shape of augmentation charge: PSQ
     Using radial grid of 1135 points,  6 beta functions with: 
                l(1) =   0
                l(2) =   0
                l(3) =   1
                l(4) =   1
                l(5) =   2
                l(6) =   2
     Q(r) pseudized with 0 coefficients 


     atomic species   valence    mass     pseudopotential
        Al             3.00    26.98150     Al( 1.00)

     48 Sym. Ops., with inversion, found



   Cartesian axes

     site n.     atom                  positions (alat units)
         1           Al  tau(   1) = (   0.0000000   0.0000000   0.0000000  )

     number of k points=    10  gaussian smearing, width (Ry)=  0.0100
                       cart. coord. in units 2pi/alat
        k(    1) = (   0.0000000   0.0000000   0.0000000), wk =   0.0160000
        k(    2) = (  -0.2000000   0.2000000  -0.2000000), wk =   0.1280000
        k(    3) = (  -0.4000000   0.4000000  -0.4000000), wk =   0.1280000
        k(    4) = (   0.0000000   0.4000000   0.0000000), wk =   0.0960000
        k(    5) = (  -0.2000000   0.6000000  -0.2000000), wk =   0.3840000
        k(    6) = (   0.6000000  -0.2000000   0.6000000), wk =   0.3840000
        k(    7) = (   0.4000000   0.0000000   0.4000000), wk =   0.1920000
        k(    8) = (   0.0000000   0.8000000   0.0000000), wk =   0.0960000
        k(    9) = (   0.8000000   0.0000000   0.8000000), wk =   0.1920000
        k(   10) = (   0.6000000  -0.2000000   1.0000000), wk =   0.3840000

     Dense  grid:     9841 G-vectors     FFT dimensions: (  30,  30,  30)

     Estimated max dynamical RAM per process >       9.23 MB

     Estimated total dynamical RAM >      46.17 MB

     Initial potential from superposition of free atoms

     starting charge    2.99771, renormalised to    3.00000
     Starting wfcs are    4 randomized atomic wfcs +    2 random wfcs
     Checking if some PAW data can be deallocated... 

     total cpu time spent up to now is        1.1 secs

     Self-consistent Calculation

     iteration #  1     ecut=    75.00 Ry     beta= 0.70
     Davidson diagonalization with overlap
     ethr =  1.00E-02,  avg # of iterations =  4.9

     Threshold (ethr) on eigenvalues was too large:
     Diagonalizing with lowered threshold

     Davidson diagonalization with overlap
     ethr =  1.64E-04,  avg # of iterations =  1.3

     total cpu time spent up to now is        1.5 secs

     total energy              =     -39.49896153 Ry
     Harris-Foulkes estimate   =     -39.50004111 Ry
     estimated scf accuracy    <       0.00490087 Ry

     iteration #  2     ecut=    75.00 Ry     beta= 0.70
     Davidson diagonalization with overlap
     ethr =  1.63E-04,  avg # of iterations =  1.0

     total cpu time spent up to now is        1.7 secs

     total energy              =     -39.49891730 Ry
     Harris-Foulkes estimate   =     -39.49900002 Ry
     estimated scf accuracy    <       0.00035930 Ry

     iteration #  3     ecut=    75.00 Ry     beta= 0.70
     Davidson diagonalization with overlap
     ethr =  1.20E-05,  avg # of iterations =  2.7

     total cpu time spent up to now is        1.8 secs

     total energy              =     -39.49892458 Ry
     Harris-Foulkes estimate   =     -39.49892467 Ry
     estimated scf accuracy    <       0.00000035 Ry

     iteration #  4     ecut=    75.00 Ry     beta= 0.70
     Davidson diagonalization with overlap
     ethr =  1.18E-08,  avg # of iterations =  2.4

     total cpu time spent up to now is        2.0 secs

     End of self-consistent calculation

          k = 0.0000 0.0000 0.0000 (  1243 PWs)   bands (ev):

    -3.2494  20.4345  20.4345  21.8970  21.8970  21.8970

          k =-0.2000 0.2000-0.2000 (  1239 PWs)   bands (ev):

    -2.1689  13.1729  18.9527  18.9527  22.3001  23.4301

          k =-0.4000 0.4000-0.4000 (  1221 PWs)   bands (ev):

     1.0245   6.2105  18.6984  18.6984  20.2525  20.2525

          k = 0.0000 0.4000 0.0000 (  1243 PWs)   bands (ev):

    -1.8105  16.1908  16.1908  16.2835  18.5725  19.5702

          k =-0.2000 0.6000-0.2000 (  1244 PWs)   bands (ev):

     0.6720   9.2078  14.3827  15.2795  16.9399  22.8070

          k = 0.6000-0.2000 0.6000 (  1224 PWs)   bands (ev):

     3.4539   5.1755  12.1081  16.2166  18.0646  23.9985

          k = 0.4000 0.0000 0.4000 (  1235 PWs)   bands (ev):

    -0.3862  10.9237  12.3951  18.9931  21.0183  23.2342

          k = 0.0000 0.8000 0.0000 (  1238 PWs)   bands (ev):

     2.4073   9.4130  13.4651  13.7375  13.7375  17.1965

          k = 0.8000 0.0000 0.8000 (  1230 PWs)   bands (ev):

     5.6030   6.9079   7.9350  14.0490  15.5966  21.6797

          k = 0.6000-0.2000 1.0000 (  1219 PWs)   bands (ev):

     3.7876   8.2599   9.6590  10.8996  21.5775  22.9348

     the Fermi energy is     8.2016 ev

!    total energy              =     -39.49892549 Ry
     Harris-Foulkes estimate   =     -39.49892551 Ry
     estimated scf accuracy    <          9.5E-09 Ry

     total all-electron energy =      -485.641706 Ry

     The total energy is the sum of the following terms:

     one-electron contribution =       3.15923841 Ry
     hartree contribution      =       0.00553384 Ry
     xc contribution           =      -2.58855168 Ry
     ewald contribution        =      -5.39395538 Ry
     one-center paw contrib.   =     -34.68027758 Ry
     smearing contrib. (-TS)   =      -0.00091311 Ry

     convergence has been achieved in   4 iterations

     Forces acting on atoms (cartesian axes, Ry/au):

     atom    1 type  1   force =     0.00000000    0.00000000    0.00000000

     Total force =     0.000000     Total SCF correction =     0.000000


     Computing stress (Cartesian axis) and pressure

          total   stress  (Ry/bohr**3)                   (kbar)     P=   14.23
   0.00009675   0.00000000  -0.00000000         14.23      0.00     -0.00
   0.00000000   0.00009675   0.00000000          0.00     14.23      0.00
  -0.00000000   0.00000000   0.00009675         -0.00      0.00     14.23


     Writing output data file Al.save/

     init_run     :      0.32s CPU      0.34s WALL (       1 calls)
     electrons    :      0.89s CPU      0.92s WALL (       1 calls)
     forces       :      0.03s CPU      0.04s WALL (       1 calls)
     stress       :      0.12s CPU      0.12s WALL (       1 calls)

     Called by init_run:
     wfcinit      :      0.02s CPU      0.02s WALL (       1 calls)
     potinit      :      0.10s CPU      0.12s WALL (       1 calls)
     hinit0       :      0.17s CPU      0.17s WALL (       1 calls)

     Called by electrons:
     c_bands      :      0.33s CPU      0.35s WALL (       5 calls)
     sum_band     :      0.13s CPU      0.13s WALL (       5 calls)
     v_of_rho     :      0.04s CPU      0.04s WALL (       5 calls)
     newd         :      0.04s CPU      0.05s WALL (       5 calls)
     PAW_pot      :      0.44s CPU      0.46s WALL (       5 calls)
     mix_rho      :      0.00s CPU      0.00s WALL (       5 calls)

     Called by c_bands:
     init_us_2    :      0.02s CPU      0.02s WALL (     130 calls)
     cegterg      :      0.30s CPU      0.32s WALL (      50 calls)

     Called by sum_band:
     sum_band:bec :      0.00s CPU      0.00s WALL (      50 calls)
     addusdens    :      0.05s CPU      0.05s WALL (       5 calls)

     Called by *egterg:
     h_psi        :      0.26s CPU      0.27s WALL (     183 calls)
     s_psi        :      0.01s CPU      0.01s WALL (     183 calls)
     g_psi        :      0.00s CPU      0.00s WALL (     123 calls)
     cdiaghg      :      0.02s CPU      0.02s WALL (     163 calls)

     Called by h_psi:
     h_psi:pot    :      0.26s CPU      0.27s WALL (     183 calls)
     h_psi:calbec :      0.02s CPU      0.02s WALL (     183 calls)
     vloc_psi     :      0.23s CPU      0.24s WALL (     183 calls)
     add_vuspsi   :      0.01s CPU      0.01s WALL (     183 calls)

     General routines
     calbec       :      0.03s CPU      0.03s WALL (     283 calls)
     fft          :      0.03s CPU      0.03s WALL (      82 calls)
     ffts         :      0.00s CPU      0.00s WALL (       5 calls)
     fftw         :      0.26s CPU      0.27s WALL (    1986 calls)

     Parallel routines
     fft_scatt_xy :      0.02s CPU      0.02s WALL (    2073 calls)
     fft_scatt_yz :      0.09s CPU      0.09s WALL (    2073 calls)

     PWSCF        :     2.15s CPU         2.25s WALL


   This run was terminated on:  20: 8:51  25Mar2024            

=------------------------------------------------------------------------------=
   JOB DONE.
=------------------------------------------------------------------------------=
