
     Program PWSCF v.6.3MaX starts on 25Mar2024 at 20:10:36 

     This program is part of the open-source Quantum ESPRESSO suite
     for quantum simulation of materials; please cite
         "P. Giannozzi et al., J. Phys.:Condens. Matter 21 395502 (2009);
         "P. Giannozzi et al., J. Phys.:Condens. Matter 29 465901 (2017);
          URL http://www.quantum-espresso.org", 
     in publications or presentations arising from this work. More details at
     http://www.quantum-espresso.org/quote

     Parallel version (MPI), running on     5 processors

     MPI processes distributed on     1 nodes
     R & G space division:  proc/nbgrp/npool/nimage =       5
     Waiting for input...
     Reading input from standard input

     Current dimensions of program PWSCF are:
     Max number of different atomic species (ntypx) = 10
     Max number of k-points (npk) =  40000
     Max angular momentum in pseudopotentials (lmaxx) =  3
               file Al.pbe-nl-kjpaw_psl.1.0.0.UPF: wavefunction(s)  3S 3P renormalized

     Subspace diagonalization in iterative solution of the eigenvalue problem:
     a serial algorithm will be used


     Parallelization info
     --------------------
     sticks:   dense  smooth     PW     G-vecs:    dense   smooth      PW
     Min         129     129     39                 2168     2168     376
     Max         130     130     40                 2171     2171     380
     Sum         649     649    199                10849    10849    1893



     bravais-lattice index     =            2
     lattice parameter (alat)  =       7.6500  a.u.
     unit-cell volume          =     111.9243 (a.u.)^3
     number of atoms/cell      =            1
     number of atomic types    =            1
     number of electrons       =         3.00
     number of Kohn-Sham states=            6
     kinetic-energy cutoff     =      80.0000  Ry
     charge density cutoff     =     320.0000  Ry
     convergence threshold     =      1.0E-08
     mixing beta               =       0.7000
     number of iterations used =            8  plain     mixing
     Exchange-correlation      = SLA PW PBX PBC ( 1  4  3  4 0 0)

     celldm(1)=   7.650000  celldm(2)=   0.000000  celldm(3)=   0.000000
     celldm(4)=   0.000000  celldm(5)=   0.000000  celldm(6)=   0.000000

     crystal axes: (cart. coord. in units of alat)
               a(1) = (  -0.500000   0.000000   0.500000 )  
               a(2) = (   0.000000   0.500000   0.500000 )  
               a(3) = (  -0.500000   0.500000   0.000000 )  

     reciprocal axes: (cart. coord. in units 2 pi/alat)
               b(1) = ( -1.000000 -1.000000  1.000000 )  
               b(2) = (  1.000000  1.000000  1.000000 )  
               b(3) = ( -1.000000  1.000000 -1.000000 )  


     PseudoPot. # 1 for Al read from file:
     /home/lorenzo/pseudos/Al/Al.pbe-nl-kjpaw_psl.1.0.0.UPF
     MD5 check sum: 8cf6d98cc7ef3f4b729b574060f3a10f
     Pseudo is Projector augmented-wave + core cor, Zval =  3.0
     Generated using "atomic" code by A. Dal Corso v.6.3
     Shape of augmentation charge: PSQ
     Using radial grid of 1135 points,  4 beta functions with: 
                l(1) =   0
                l(2) =   0
                l(3) =   1
                l(4) =   1
     Q(r) pseudized with 0 coefficients 


     atomic species   valence    mass     pseudopotential
        Al             3.00    26.98150     Al( 1.00)

     48 Sym. Ops., with inversion, found



   Cartesian axes

     site n.     atom                  positions (alat units)
         1           Al  tau(   1) = (   0.0000000   0.0000000   0.0000000  )

     number of k points=    16  gaussian smearing, width (Ry)=  0.0100
                       cart. coord. in units 2pi/alat
        k(    1) = (   0.0000000   0.0000000   0.0000000), wk =   0.0092593
        k(    2) = (  -0.1666667   0.1666667  -0.1666667), wk =   0.0740741
        k(    3) = (  -0.3333333   0.3333333  -0.3333333), wk =   0.0740741
        k(    4) = (   0.5000000  -0.5000000   0.5000000), wk =   0.0370370
        k(    5) = (   0.0000000   0.3333333   0.0000000), wk =   0.0555556
        k(    6) = (  -0.1666667   0.5000000  -0.1666667), wk =   0.2222222
        k(    7) = (   0.6666667  -0.3333333   0.6666667), wk =   0.2222222
        k(    8) = (   0.5000000  -0.1666667   0.5000000), wk =   0.2222222
        k(    9) = (   0.3333333   0.0000000   0.3333333), wk =   0.1111111
        k(   10) = (   0.0000000   0.6666667   0.0000000), wk =   0.0555556
        k(   11) = (   0.8333333  -0.1666667   0.8333333), wk =   0.2222222
        k(   12) = (   0.6666667  -0.0000000   0.6666667), wk =   0.1111111
        k(   13) = (   0.0000000  -1.0000000   0.0000000), wk =   0.0277778
        k(   14) = (   0.6666667  -0.3333333   1.0000000), wk =   0.2222222
        k(   15) = (   0.5000000  -0.1666667   0.8333333), wk =   0.2222222
        k(   16) = (  -0.3333333  -1.0000000   0.0000000), wk =   0.1111111

     Dense  grid:    10849 G-vectors     FFT dimensions: (  32,  32,  32)

     Estimated max dynamical RAM per process >       4.00 MB

     Estimated total dynamical RAM >      20.02 MB

     Initial potential from superposition of free atoms

     starting charge    2.99771, renormalised to    3.00000
     Starting wfcs are    4 randomized atomic wfcs +    2 random wfcs
     Checking if some PAW data can be deallocated... 

     total cpu time spent up to now is        0.6 secs

     Self-consistent Calculation

     iteration #  1     ecut=    80.00 Ry     beta= 0.70
     Davidson diagonalization with overlap
     ethr =  1.00E-02,  avg # of iterations =  4.9

     Threshold (ethr) on eigenvalues was too large:
     Diagonalizing with lowered threshold

     Davidson diagonalization with overlap
     ethr =  1.81E-04,  avg # of iterations =  2.0

     total cpu time spent up to now is        0.9 secs

     total energy              =     -39.50767271 Ry
     Harris-Foulkes estimate   =     -39.50915494 Ry
     estimated scf accuracy    <       0.00535531 Ry

     iteration #  2     ecut=    80.00 Ry     beta= 0.70
     Davidson diagonalization with overlap
     ethr =  1.79E-04,  avg # of iterations =  1.1

     total cpu time spent up to now is        1.1 secs

     total energy              =     -39.50766893 Ry
     Harris-Foulkes estimate   =     -39.50776183 Ry
     estimated scf accuracy    <       0.00036498 Ry

     iteration #  3     ecut=    80.00 Ry     beta= 0.70
     Davidson diagonalization with overlap
     ethr =  1.22E-05,  avg # of iterations =  2.1

     total cpu time spent up to now is        1.2 secs

     total energy              =     -39.50769065 Ry
     Harris-Foulkes estimate   =     -39.50769126 Ry
     estimated scf accuracy    <       0.00000137 Ry

     iteration #  4     ecut=    80.00 Ry     beta= 0.70
     Davidson diagonalization with overlap
     ethr =  4.58E-08,  avg # of iterations =  2.9

     total cpu time spent up to now is        1.4 secs

     total energy              =     -39.50769252 Ry
     Harris-Foulkes estimate   =     -39.50769252 Ry
     estimated scf accuracy    <       0.00000010 Ry

     iteration #  5     ecut=    80.00 Ry     beta= 0.70
     Davidson diagonalization with overlap
     ethr =  3.50E-09,  avg # of iterations =  1.2

     total cpu time spent up to now is        1.5 secs

     total energy              =     -39.50769252 Ry
     Harris-Foulkes estimate   =     -39.50769253 Ry
     estimated scf accuracy    <       0.00000003 Ry

     iteration #  6     ecut=    80.00 Ry     beta= 0.70
     Davidson diagonalization with overlap
     ethr =  1.09E-09,  avg # of iterations =  1.0

     total cpu time spent up to now is        1.7 secs

     End of self-consistent calculation

          k = 0.0000 0.0000 0.0000 (  1363 PWs)   bands (ev):

    -3.2530  20.4370  20.4370  21.8758  21.8758  21.8758

          k =-0.1667 0.1667-0.1667 (  1354 PWs)   bands (ev):

    -2.5019  14.4733  19.1577  19.1577  22.3783  23.7935

          k =-0.3333 0.3333-0.3333 (  1356 PWs)   bands (ev):

    -0.2718   8.3453  18.5768  18.5768  21.1591  21.1591

          k = 0.5000-0.5000 0.5000 (  1350 PWs)   bands (ev):

     3.2752   3.4775  19.1943  19.1943  19.2869  19.2869

          k = 0.0000 0.3333 0.0000 (  1351 PWs)   bands (ev):

    -2.2524  16.8292  16.8292  17.0032  20.0592  20.2966

          k =-0.1667 0.5000-0.1667 (  1353 PWs)   bands (ev):

    -0.5182  10.8440  15.7734  16.5073  17.4171  22.2926

          k = 0.6667-0.3333 0.6667 (  1356 PWs)   bands (ev):

     2.6457   5.5232  14.0485  15.9996  17.7782  23.7607

          k = 0.5000-0.1667 0.5000 (  1355 PWs)   bands (ev):

     1.4389   7.1501  12.9394  17.5087  19.4333  22.6987

          k = 0.3333 0.0000 0.3333 (  1354 PWs)   bands (ev):

    -1.2588  12.3271  13.7254  20.2561  22.2752  22.3767

          k = 0.0000 0.6667 0.0000 (  1347 PWs)   bands (ev):

     0.7059  12.2177  14.1003  14.2727  14.2727  17.7574

          k = 0.8333-0.1667 0.8333 (  1343 PWs)   bands (ev):

     3.3471   8.8849   9.3457  14.0628  15.5704  20.7209

          k = 0.6667-0.0000 0.6667 (  1360 PWs)   bands (ev):

     4.5546   6.7799   8.2367  15.1404  16.9027  26.4491

          k = 0.0000-1.0000 0.0000 (  1362 PWs)   bands (ev):

     4.9362   6.2530  13.1133  13.4193  13.4193  16.8631

          k = 0.6667-0.3333 1.0000 (  1348 PWs)   bands (ev):

     1.6793   9.5537  11.0038  13.2024  20.6277  22.2447

          k = 0.5000-0.1667 0.8333 (  1358 PWs)   bands (ev):

     5.1268   5.3844  10.8512  11.4035  21.8165  22.3050

          k =-0.3333-1.0000 0.0000 (  1348 PWs)   bands (ev):

     5.8574   7.2021   8.6286  10.1836  19.7423  21.5597

     the Fermi energy is     8.2045 ev

!    total energy              =     -39.50769252 Ry
     Harris-Foulkes estimate   =     -39.50769252 Ry
     estimated scf accuracy    <          5.2E-11 Ry

     total all-electron energy =      -485.650473 Ry

     The total energy is the sum of the following terms:

     one-electron contribution =       3.14700974 Ry
     hartree contribution      =       0.00562434 Ry
     xc contribution           =      -2.58817829 Ry
     ewald contribution        =      -5.39395538 Ry
     one-center paw contrib.   =     -34.67782493 Ry
     smearing contrib. (-TS)   =      -0.00036799 Ry

     convergence has been achieved in   6 iterations

     Forces acting on atoms (cartesian axes, Ry/au):

     atom    1 type  1   force =     0.00000000    0.00000000    0.00000000

     Total force =     0.000000     Total SCF correction =     0.000000


     Computing stress (Cartesian axis) and pressure

          total   stress  (Ry/bohr**3)                   (kbar)     P=   -0.06
  -0.00000044  -0.00000000  -0.00000000         -0.06     -0.00     -0.00
  -0.00000000  -0.00000044   0.00000000         -0.00     -0.06      0.00
  -0.00000000   0.00000000  -0.00000044         -0.00      0.00     -0.06


     Writing output data file Al.save/

     init_run     :      0.17s CPU      0.19s WALL (       1 calls)
     electrons    :      0.96s CPU      1.08s WALL (       1 calls)
     forces       :      0.02s CPU      0.02s WALL (       1 calls)
     stress       :      0.07s CPU      0.07s WALL (       1 calls)

     Called by init_run:
     wfcinit      :      0.04s CPU      0.04s WALL (       1 calls)
     potinit      :      0.04s CPU      0.04s WALL (       1 calls)
     hinit0       :      0.09s CPU      0.09s WALL (       1 calls)

     Called by electrons:
     c_bands      :      0.62s CPU      0.69s WALL (       7 calls)
     sum_band     :      0.14s CPU      0.16s WALL (       7 calls)
     v_of_rho     :      0.04s CPU      0.04s WALL (       7 calls)
     newd         :      0.02s CPU      0.02s WALL (       7 calls)
     PAW_pot      :      0.16s CPU      0.19s WALL (       7 calls)
     mix_rho      :      0.00s CPU      0.00s WALL (       7 calls)

     Called by c_bands:
     init_us_2    :      0.02s CPU      0.03s WALL (     272 calls)
     cegterg      :      0.59s CPU      0.66s WALL (     112 calls)

     Called by sum_band:
     sum_band:bec :      0.00s CPU      0.00s WALL (     112 calls)
     addusdens    :      0.01s CPU      0.02s WALL (       7 calls)

     Called by *egterg:
     h_psi        :      0.51s CPU      0.56s WALL (     371 calls)
     s_psi        :      0.01s CPU      0.02s WALL (     371 calls)
     g_psi        :      0.00s CPU      0.00s WALL (     243 calls)
     cdiaghg      :      0.03s CPU      0.04s WALL (     339 calls)

     Called by h_psi:
     h_psi:pot    :      0.51s CPU      0.56s WALL (     371 calls)
     h_psi:calbec :      0.02s CPU      0.02s WALL (     371 calls)
     vloc_psi     :      0.48s CPU      0.52s WALL (     371 calls)
     add_vuspsi   :      0.01s CPU      0.01s WALL (     371 calls)

     General routines
     calbec       :      0.03s CPU      0.04s WALL (     563 calls)
     fft          :      0.03s CPU      0.03s WALL (     104 calls)
     ffts         :      0.00s CPU      0.00s WALL (       7 calls)
     fftw         :      0.53s CPU      0.59s WALL (    4170 calls)

     Parallel routines
     fft_scatt_xy :      0.05s CPU      0.06s WALL (    4281 calls)
     fft_scatt_yz :      0.20s CPU      0.22s WALL (    4281 calls)

     PWSCF        :     1.66s CPU         1.83s WALL


   This run was terminated on:  20:10:37  25Mar2024            

=------------------------------------------------------------------------------=
   JOB DONE.
=------------------------------------------------------------------------------=
