
     Program PWSCF v.6.3MaX starts on 25Mar2024 at 19:55:58 

     This program is part of the open-source Quantum ESPRESSO suite
     for quantum simulation of materials; please cite
         "P. Giannozzi et al., J. Phys.:Condens. Matter 21 395502 (2009);
         "P. Giannozzi et al., J. Phys.:Condens. Matter 29 465901 (2017);
          URL http://www.quantum-espresso.org", 
     in publications or presentations arising from this work. More details at
     http://www.quantum-espresso.org/quote

     Parallel version (MPI), running on     5 processors

     MPI processes distributed on     1 nodes
     R & G space division:  proc/nbgrp/npool/nimage =       5
     Waiting for input...
     Reading input from standard input

     Current dimensions of program PWSCF are:
     Max number of different atomic species (ntypx) = 10
     Max number of k-points (npk) =  40000
     Max angular momentum in pseudopotentials (lmaxx) =  3

     Subspace diagonalization in iterative solution of the eigenvalue problem:
     a serial algorithm will be used


     Parallelization info
     --------------------
     sticks:   dense  smooth     PW     G-vecs:    dense   smooth      PW
     Min          32      32     12                  272      272      66
     Max          33      33     13                  273      273      67
     Sum         163     163     61                 1363     1363     331



     bravais-lattice index     =            2
     lattice parameter (alat)  =       7.6500  a.u.
     unit-cell volume          =     111.9243 (a.u.)^3
     number of atoms/cell      =            1
     number of atomic types    =            1
     number of electrons       =         3.00
     number of Kohn-Sham states=            6
     kinetic-energy cutoff     =      20.0000  Ry
     charge density cutoff     =      80.0000  Ry
     convergence threshold     =      1.0E-08
     mixing beta               =       0.7000
     number of iterations used =            8  plain     mixing
     Exchange-correlation      = PBE ( 1  4  3  4 0 0)

     celldm(1)=   7.650000  celldm(2)=   0.000000  celldm(3)=   0.000000
     celldm(4)=   0.000000  celldm(5)=   0.000000  celldm(6)=   0.000000

     crystal axes: (cart. coord. in units of alat)
               a(1) = (  -0.500000   0.000000   0.500000 )  
               a(2) = (   0.000000   0.500000   0.500000 )  
               a(3) = (  -0.500000   0.500000   0.000000 )  

     reciprocal axes: (cart. coord. in units 2 pi/alat)
               b(1) = ( -1.000000 -1.000000  1.000000 )  
               b(2) = (  1.000000  1.000000  1.000000 )  
               b(3) = ( -1.000000  1.000000 -1.000000 )  


     PseudoPot. # 1 for Al read from file:
     /home/lorenzo/pseudos/Al/Al.pbe-nl-rrkjus_psl.1.0.0.UPF
     MD5 check sum: 6db8691240a1c860ce6448702d298c4b
     Pseudo is Ultrasoft + core correction, Zval =  3.0
     Generated using "atomic" code by A. Dal Corso v.6.3
     Using radial grid of 1135 points,  4 beta functions with: 
                l(1) =   0
                l(2) =   0
                l(3) =   1
                l(4) =   1
     Q(r) pseudized with 0 coefficients 


     atomic species   valence    mass     pseudopotential
        Al             3.00    26.98150     Al( 1.00)

     48 Sym. Ops., with inversion, found



   Cartesian axes

     site n.     atom                  positions (alat units)
         1           Al  tau(   1) = (   0.0000000   0.0000000   0.0000000  )

     number of k points=    20  gaussian smearing, width (Ry)=  0.0100
                       cart. coord. in units 2pi/alat
        k(    1) = (   0.0000000   0.0000000   0.0000000), wk =   0.0058309
        k(    2) = (  -0.1428571   0.1428571  -0.1428571), wk =   0.0466472
        k(    3) = (  -0.2857143   0.2857143  -0.2857143), wk =   0.0466472
        k(    4) = (  -0.4285714   0.4285714  -0.4285714), wk =   0.0466472
        k(    5) = (   0.0000000   0.2857143   0.0000000), wk =   0.0349854
        k(    6) = (  -0.1428571   0.4285714  -0.1428571), wk =   0.1399417
        k(    7) = (  -0.2857143   0.5714286  -0.2857143), wk =   0.1399417
        k(    8) = (   0.5714286  -0.2857143   0.5714286), wk =   0.1399417
        k(    9) = (   0.4285714  -0.1428571   0.4285714), wk =   0.1399417
        k(   10) = (   0.2857143  -0.0000000   0.2857143), wk =   0.0699708
        k(   11) = (   0.0000000   0.5714286   0.0000000), wk =   0.0349854
        k(   12) = (  -0.1428571   0.7142857  -0.1428571), wk =   0.1399417
        k(   13) = (   0.7142857  -0.1428571   0.7142857), wk =   0.1399417
        k(   14) = (   0.5714286   0.0000000   0.5714286), wk =   0.0699708
        k(   15) = (   0.0000000   0.8571429   0.0000000), wk =   0.0349854
        k(   16) = (   0.8571429  -0.0000000   0.8571429), wk =   0.0699708
        k(   17) = (  -0.2857143   0.5714286   0.0000000), wk =   0.1399417
        k(   18) = (   0.5714286  -0.2857143   0.8571429), wk =   0.2798834
        k(   19) = (   0.7142857  -0.1428571   1.0000000), wk =   0.1399417
        k(   20) = (   0.5714286   0.0000000   0.8571429), wk =   0.1399417

     Dense  grid:     1363 G-vectors     FFT dimensions: (  15,  15,  15)

     Estimated max dynamical RAM per process >       0.68 MB

     Estimated total dynamical RAM >       3.42 MB

     Initial potential from superposition of free atoms

     starting charge    2.99771, renormalised to    3.00000
     Starting wfcs are    4 randomized atomic wfcs +    2 random wfcs

     total cpu time spent up to now is        0.5 secs

     Self-consistent Calculation

     iteration #  1     ecut=    20.00 Ry     beta= 0.70
     Davidson diagonalization with overlap
     ethr =  1.00E-02,  avg # of iterations =  4.8

     Threshold (ethr) on eigenvalues was too large:
     Diagonalizing with lowered threshold

     Davidson diagonalization with overlap
     ethr =  1.95E-04,  avg # of iterations =  1.8

     total cpu time spent up to now is        0.6 secs

     total energy              =      -5.04138118 Ry
     Harris-Foulkes estimate   =      -5.04274225 Ry
     estimated scf accuracy    <       0.00576942 Ry

     iteration #  2     ecut=    20.00 Ry     beta= 0.70
     Davidson diagonalization with overlap
     ethr =  1.92E-04,  avg # of iterations =  1.0

     total cpu time spent up to now is        0.6 secs

     total energy              =      -5.04135878 Ry
     Harris-Foulkes estimate   =      -5.04145274 Ry
     estimated scf accuracy    <       0.00041448 Ry

     iteration #  3     ecut=    20.00 Ry     beta= 0.70
     Davidson diagonalization with overlap
     ethr =  1.38E-05,  avg # of iterations =  1.6

     total cpu time spent up to now is        0.6 secs

     total energy              =      -5.04137727 Ry
     Harris-Foulkes estimate   =      -5.04137725 Ry
     estimated scf accuracy    <       0.00000146 Ry

     iteration #  4     ecut=    20.00 Ry     beta= 0.70
     Davidson diagonalization with overlap
     ethr =  4.85E-08,  avg # of iterations =  3.1

     total cpu time spent up to now is        0.7 secs

     total energy              =      -5.04137917 Ry
     Harris-Foulkes estimate   =      -5.04137916 Ry
     estimated scf accuracy    <       0.00000008 Ry

     iteration #  5     ecut=    20.00 Ry     beta= 0.70
     Davidson diagonalization with overlap
     ethr =  2.65E-09,  avg # of iterations =  1.0

     total cpu time spent up to now is        0.7 secs

     total energy              =      -5.04137918 Ry
     Harris-Foulkes estimate   =      -5.04137917 Ry
     estimated scf accuracy    <       0.00000004 Ry

     iteration #  6     ecut=    20.00 Ry     beta= 0.70
     Davidson diagonalization with overlap
     ethr =  1.34E-09,  avg # of iterations =  1.0

     total cpu time spent up to now is        0.7 secs

     End of self-consistent calculation

          k = 0.0000 0.0000 0.0000 (   169 PWs)   bands (ev):

    -3.2479  20.5425  20.5425  21.8768  21.8768  21.8768

          k =-0.1429 0.1429-0.1429 (   169 PWs)   bands (ev):

    -2.6959  15.4581  19.3903  19.3903  22.4898  23.7292

          k =-0.2857 0.2857-0.2857 (   162 PWs)   bands (ev):

    -1.0516  10.0075  18.6588  18.6588  22.0014  22.0014

          k =-0.4286 0.4286-0.4286 (   168 PWs)   bands (ev):

     1.6484   5.3616  18.8392  18.8392  19.9761  19.9761

          k = 0.0000 0.2857 0.0000 (   165 PWs)   bands (ev):

    -2.5120  17.3642  17.3642  17.6295  20.4573  21.5918

          k =-0.1429 0.4286-0.1429 (   162 PWs)   bands (ev):

    -1.2334  12.1486  16.2715  17.8484  18.2227  22.0953

          k =-0.2857 0.5714-0.2857 (   166 PWs)   bands (ev):

     1.1117   7.2617  15.7221  16.1238  17.8824  23.9369

          k = 0.5714-0.2857 0.5714 (   168 PWs)   bands (ev):

     3.2380   4.4887  14.2329  16.9276  18.7797  22.5436

          k = 0.4286-0.1429 0.4286 (   166 PWs)   bands (ev):

     0.2145   8.7806  13.7596  18.6712  20.6350  22.0486

          k = 0.2857-0.0000 0.2857 (   164 PWs)   bands (ev):

    -1.7800  13.4538  14.7541  21.2352  21.9774  23.2968

          k = 0.0000 0.5714 0.0000 (   174 PWs)   bands (ev):

    -0.3277  14.4081  14.8075  14.8417  14.8417  18.3325

          k =-0.1429 0.7143-0.1429 (   171 PWs)   bands (ev):

     1.6432  10.0912  11.5698  14.3713  15.8989  20.3768

          k = 0.7143-0.1429 0.7143 (   180 PWs)   bands (ev):

     4.6057   5.8759   9.7249  14.8512  16.5935  24.9440

          k = 0.5714 0.0000 0.5714 (   168 PWs)   bands (ev):

     2.5357   8.0000   9.4880  16.2875  18.2006  26.5384

          k = 0.0000 0.8571 0.0000 (   170 PWs)   bands (ev):

     3.2134   8.3152  13.3595  13.5793  13.5793  17.0611

          k = 0.8571-0.0000 0.8571 (   178 PWs)   bands (ev):

     5.2789   6.6168   9.4464  13.7390  15.1982  19.7591

          k =-0.2857 0.5714 0.0000 (   171 PWs)   bands (ev):

     0.3937  10.7286  12.1542  15.1086  20.2431  21.9156

          k = 0.5714-0.2857 0.8571 (   169 PWs)   bands (ev):

     3.0620   6.7106  11.7242  12.9714  21.1284  22.4165

          k = 0.7143-0.1429 1.0000 (   171 PWs)   bands (ev):

     3.9146   8.9717   9.3652  10.9024  18.9341  20.8411

          k = 0.5714 0.0000 0.8571 (   171 PWs)   bands (ev):

     5.9899   6.6376   8.0807  11.1348  20.5511  24.9581

     the Fermi energy is     7.9697 ev

!    total energy              =      -5.04137918 Ry
     Harris-Foulkes estimate   =      -5.04137918 Ry
     estimated scf accuracy    <          3.5E-10 Ry

     The total energy is the sum of the following terms:

     one-electron contribution =       2.93470563 Ry
     hartree contribution      =       0.00647616 Ry
     xc contribution           =      -2.58821467 Ry
     ewald contribution        =      -5.39395546 Ry
     smearing contrib. (-TS)   =      -0.00039085 Ry

     convergence has been achieved in   6 iterations

     Forces acting on atoms (cartesian axes, Ry/au):

     atom    1 type  1   force =     0.00000000    0.00000000    0.00000000

     Total force =     0.000000     Total SCF correction =     0.000000


     Computing stress (Cartesian axis) and pressure

          total   stress  (Ry/bohr**3)                   (kbar)     P=   -9.21
  -0.00006262  -0.00000000   0.00000000         -9.21     -0.00      0.00
  -0.00000000  -0.00006262   0.00000000         -0.00     -9.21      0.00
  -0.00000000   0.00000000  -0.00006262         -0.00      0.00     -9.21


     Writing output data file Al.save/

     init_run     :      0.05s CPU      0.05s WALL (       1 calls)
     electrons    :      0.23s CPU      0.28s WALL (       1 calls)
     forces       :      0.01s CPU      0.01s WALL (       1 calls)
     stress       :      0.01s CPU      0.01s WALL (       1 calls)

     Called by init_run:
     wfcinit      :      0.01s CPU      0.01s WALL (       1 calls)
     potinit      :      0.00s CPU      0.00s WALL (       1 calls)
     hinit0       :      0.04s CPU      0.04s WALL (       1 calls)

     Called by electrons:
     c_bands      :      0.18s CPU      0.21s WALL (       7 calls)
     sum_band     :      0.03s CPU      0.04s WALL (       7 calls)
     v_of_rho     :      0.01s CPU      0.01s WALL (       7 calls)
     newd         :      0.00s CPU      0.00s WALL (       7 calls)
     mix_rho      :      0.00s CPU      0.00s WALL (       7 calls)

     Called by c_bands:
     init_us_2    :      0.00s CPU      0.01s WALL (     340 calls)
     cegterg      :      0.17s CPU      0.20s WALL (     140 calls)

     Called by sum_band:
     sum_band:bec :      0.00s CPU      0.00s WALL (     140 calls)
     addusdens    :      0.00s CPU      0.00s WALL (       7 calls)

     Called by *egterg:
     h_psi        :      0.12s CPU      0.14s WALL (     446 calls)
     s_psi        :      0.00s CPU      0.00s WALL (     446 calls)
     g_psi        :      0.00s CPU      0.00s WALL (     286 calls)
     cdiaghg      :      0.03s CPU      0.03s WALL (     406 calls)

     Called by h_psi:
     h_psi:pot    :      0.12s CPU      0.14s WALL (     446 calls)
     h_psi:calbec :      0.01s CPU      0.01s WALL (     446 calls)
     vloc_psi     :      0.11s CPU      0.13s WALL (     446 calls)
     add_vuspsi   :      0.00s CPU      0.00s WALL (     446 calls)

     General routines
     calbec       :      0.01s CPU      0.01s WALL (     686 calls)
     fft          :      0.00s CPU      0.00s WALL (     104 calls)
     ffts         :      0.00s CPU      0.00s WALL (       7 calls)
     fftw         :      0.12s CPU      0.14s WALL (    5132 calls)

     Parallel routines
     fft_scatt_xy :      0.01s CPU      0.01s WALL (    5243 calls)
     fft_scatt_yz :      0.06s CPU      0.07s WALL (    5243 calls)

     PWSCF        :     0.73s CPU         0.83s WALL


   This run was terminated on:  19:55:59  25Mar2024            

=------------------------------------------------------------------------------=
   JOB DONE.
=------------------------------------------------------------------------------=
