
     Program PWSCF v.6.3MaX starts on 25Mar2024 at 20: 2: 7 

     This program is part of the open-source Quantum ESPRESSO suite
     for quantum simulation of materials; please cite
         "P. Giannozzi et al., J. Phys.:Condens. Matter 21 395502 (2009);
         "P. Giannozzi et al., J. Phys.:Condens. Matter 29 465901 (2017);
          URL http://www.quantum-espresso.org", 
     in publications or presentations arising from this work. More details at
     http://www.quantum-espresso.org/quote

     Parallel version (MPI), running on     5 processors

     MPI processes distributed on     1 nodes
     R & G space division:  proc/nbgrp/npool/nimage =       5
     Waiting for input...
     Reading input from standard input

     Current dimensions of program PWSCF are:
     Max number of different atomic species (ntypx) = 10
     Max number of k-points (npk) =  40000
     Max angular momentum in pseudopotentials (lmaxx) =  3
               file Al.pbe-nl-kjpaw_psl.1.0.0.UPF: wavefunction(s)  3S 3P renormalized

     Subspace diagonalization in iterative solution of the eigenvalue problem:
     a serial algorithm will be used


     Parallelization info
     --------------------
     sticks:   dense  smooth     PW     G-vecs:    dense   smooth      PW
     Min          81      81     24                 1065     1065     187
     Max          82      82     25                 1066     1066     191
     Sum         409     409    121                 5329     5329     941



     bravais-lattice index     =            2
     lattice parameter (alat)  =       7.6500  a.u.
     unit-cell volume          =     111.9243 (a.u.)^3
     number of atoms/cell      =            1
     number of atomic types    =            1
     number of electrons       =         3.00
     number of Kohn-Sham states=            6
     kinetic-energy cutoff     =      50.0000  Ry
     charge density cutoff     =     200.0000  Ry
     convergence threshold     =      1.0E-08
     mixing beta               =       0.7000
     number of iterations used =            8  plain     mixing
     Exchange-correlation      = SLA PW PBX PBC ( 1  4  3  4 0 0)

     celldm(1)=   7.650000  celldm(2)=   0.000000  celldm(3)=   0.000000
     celldm(4)=   0.000000  celldm(5)=   0.000000  celldm(6)=   0.000000

     crystal axes: (cart. coord. in units of alat)
               a(1) = (  -0.500000   0.000000   0.500000 )  
               a(2) = (   0.000000   0.500000   0.500000 )  
               a(3) = (  -0.500000   0.500000   0.000000 )  

     reciprocal axes: (cart. coord. in units 2 pi/alat)
               b(1) = ( -1.000000 -1.000000  1.000000 )  
               b(2) = (  1.000000  1.000000  1.000000 )  
               b(3) = ( -1.000000  1.000000 -1.000000 )  


     PseudoPot. # 1 for Al read from file:
     /home/lorenzo/pseudos/Al/Al.pbe-nl-kjpaw_psl.1.0.0.UPF
     MD5 check sum: 8cf6d98cc7ef3f4b729b574060f3a10f
     Pseudo is Projector augmented-wave + core cor, Zval =  3.0
     Generated using "atomic" code by A. Dal Corso v.6.3
     Shape of augmentation charge: PSQ
     Using radial grid of 1135 points,  4 beta functions with: 
                l(1) =   0
                l(2) =   0
                l(3) =   1
                l(4) =   1
     Q(r) pseudized with 0 coefficients 


     atomic species   valence    mass     pseudopotential
        Al             3.00    26.98150     Al( 1.00)

     48 Sym. Ops., with inversion, found



   Cartesian axes

     site n.     atom                  positions (alat units)
         1           Al  tau(   1) = (   0.0000000   0.0000000   0.0000000  )

     number of k points=     8  gaussian smearing, width (Ry)=  0.0100
                       cart. coord. in units 2pi/alat
        k(    1) = (   0.0000000   0.0000000   0.0000000), wk =   0.0312500
        k(    2) = (  -0.2500000   0.2500000  -0.2500000), wk =   0.2500000
        k(    3) = (   0.5000000  -0.5000000   0.5000000), wk =   0.1250000
        k(    4) = (   0.0000000   0.5000000   0.0000000), wk =   0.1875000
        k(    5) = (   0.7500000  -0.2500000   0.7500000), wk =   0.7500000
        k(    6) = (   0.5000000   0.0000000   0.5000000), wk =   0.3750000
        k(    7) = (   0.0000000  -1.0000000   0.0000000), wk =   0.0937500
        k(    8) = (  -0.5000000  -1.0000000   0.0000000), wk =   0.1875000

     Dense  grid:     5329 G-vectors     FFT dimensions: (  25,  25,  25)

     Estimated max dynamical RAM per process >       1.99 MB

     Estimated total dynamical RAM >       9.96 MB

     Initial potential from superposition of free atoms

     starting charge    2.99771, renormalised to    3.00000
     Starting wfcs are    4 randomized atomic wfcs +    2 random wfcs
     Checking if some PAW data can be deallocated... 

     total cpu time spent up to now is        0.6 secs

     Self-consistent Calculation

     iteration #  1     ecut=    50.00 Ry     beta= 0.70
     Davidson diagonalization with overlap
     ethr =  1.00E-02,  avg # of iterations =  5.1

     Threshold (ethr) on eigenvalues was too large:
     Diagonalizing with lowered threshold

     Davidson diagonalization with overlap
     ethr =  2.16E-04,  avg # of iterations =  2.2

     total cpu time spent up to now is        0.7 secs

     total energy              =     -39.48208375 Ry
     Harris-Foulkes estimate   =     -39.48351025 Ry
     estimated scf accuracy    <       0.00622867 Ry

     iteration #  2     ecut=    50.00 Ry     beta= 0.70
     Davidson diagonalization with overlap
     ethr =  2.08E-04,  avg # of iterations =  1.0

     total cpu time spent up to now is        0.8 secs

     total energy              =     -39.48207687 Ry
     Harris-Foulkes estimate   =     -39.48217460 Ry
     estimated scf accuracy    <       0.00045734 Ry

     iteration #  3     ecut=    50.00 Ry     beta= 0.70
     Davidson diagonalization with overlap
     ethr =  1.52E-05,  avg # of iterations =  1.2

     total cpu time spent up to now is        0.9 secs

     total energy              =     -39.48209912 Ry
     Harris-Foulkes estimate   =     -39.48209986 Ry
     estimated scf accuracy    <       0.00000165 Ry

     iteration #  4     ecut=    50.00 Ry     beta= 0.70
     Davidson diagonalization with overlap
     ethr =  5.49E-08,  avg # of iterations =  3.5

     total cpu time spent up to now is        0.9 secs

     total energy              =     -39.48210170 Ry
     Harris-Foulkes estimate   =     -39.48210168 Ry
     estimated scf accuracy    <       0.00000017 Ry

     iteration #  5     ecut=    50.00 Ry     beta= 0.70
     Davidson diagonalization with overlap
     ethr =  5.83E-09,  avg # of iterations =  1.0

     total cpu time spent up to now is        1.0 secs

     total energy              =     -39.48210168 Ry
     Harris-Foulkes estimate   =     -39.48210171 Ry
     estimated scf accuracy    <       0.00000007 Ry

     iteration #  6     ecut=    50.00 Ry     beta= 0.70
     Davidson diagonalization with overlap
     ethr =  2.32E-09,  avg # of iterations =  1.0

     total cpu time spent up to now is        1.1 secs

     End of self-consistent calculation

          k = 0.0000 0.0000 0.0000 (   645 PWs)   bands (ev):

    -3.2485  20.4442  20.4442  21.8791  21.8791  21.8791

          k =-0.2500 0.2500-0.2500 (   655 PWs)   bands (ev):

    -1.5641  11.2862  18.7209  18.7209  22.1579  22.5500

          k = 0.5000-0.5000 0.5000 (   652 PWs)   bands (ev):

     3.2783   3.4838  19.2000  19.2000  19.2908  19.2908

          k = 0.0000 0.5000 0.0000 (   649 PWs)   bands (ev):

    -1.0071  15.3336  15.3438  15.3438  16.0888  18.8014

          k = 0.7500-0.2500 0.7500 (   672 PWs)   bands (ev):

     2.8260   7.1031  11.4996  14.8728  16.5579  23.8828

          k = 0.5000 0.0000 0.5000 (   670 PWs)   bands (ev):

     1.2002   9.0973  10.5910  17.2972  19.2575  25.4058

          k = 0.0000-1.0000 0.0000 (   692 PWs)   bands (ev):

     4.9427   6.2550  13.1236  13.4231  13.4231  16.8647

          k =-0.5000-1.0000 0.0000 (   684 PWs)   bands (ev):

     7.0175   7.0175   8.0330   8.9308  23.6248  23.6248

     the Fermi energy is     7.1878 ev

!    total energy              =     -39.48210168 Ry
     Harris-Foulkes estimate   =     -39.48210168 Ry
     estimated scf accuracy    <          3.8E-10 Ry

     total all-electron energy =      -485.624882 Ry

     The total energy is the sum of the following terms:

     one-electron contribution =       3.17116779 Ry
     hartree contribution      =       0.00758879 Ry
     xc contribution           =      -2.58888322 Ry
     ewald contribution        =      -5.39395542 Ry
     one-center paw contrib.   =     -34.67636369 Ry
     smearing contrib. (-TS)   =      -0.00165591 Ry

     convergence has been achieved in   6 iterations

     Forces acting on atoms (cartesian axes, Ry/au):

     atom    1 type  1   force =     0.00000000    0.00000000    0.00000000

     Total force =     0.000000     Total SCF correction =     0.000000


     Computing stress (Cartesian axis) and pressure

          total   stress  (Ry/bohr**3)                   (kbar)     P=    3.60
   0.00002444   0.00000000   0.00000000          3.60      0.00      0.00
   0.00000000   0.00002444  -0.00000000          0.00      3.60     -0.00
   0.00000000  -0.00000000   0.00002444          0.00     -0.00      3.60


     Writing output data file Al.save/

     init_run     :      0.13s CPU      0.14s WALL (       1 calls)
     electrons    :      0.48s CPU      0.54s WALL (       1 calls)
     forces       :      0.01s CPU      0.01s WALL (       1 calls)
     stress       :      0.03s CPU      0.03s WALL (       1 calls)

     Called by init_run:
     wfcinit      :      0.02s CPU      0.02s WALL (       1 calls)
     potinit      :      0.03s CPU      0.04s WALL (       1 calls)
     hinit0       :      0.08s CPU      0.08s WALL (       1 calls)

     Called by electrons:
     c_bands      :      0.21s CPU      0.23s WALL (       7 calls)
     sum_band     :      0.06s CPU      0.07s WALL (       7 calls)
     v_of_rho     :      0.03s CPU      0.03s WALL (       7 calls)
     newd         :      0.01s CPU      0.01s WALL (       7 calls)
     PAW_pot      :      0.18s CPU      0.22s WALL (       7 calls)
     mix_rho      :      0.00s CPU      0.00s WALL (       7 calls)

     Called by c_bands:
     init_us_2    :      0.01s CPU      0.01s WALL (     136 calls)
     cegterg      :      0.20s CPU      0.22s WALL (      56 calls)

     Called by sum_band:
     sum_band:bec :      0.00s CPU      0.00s WALL (      56 calls)
     addusdens    :      0.01s CPU      0.01s WALL (       7 calls)

     Called by *egterg:
     h_psi        :      0.17s CPU      0.19s WALL (     185 calls)
     s_psi        :      0.00s CPU      0.00s WALL (     185 calls)
     g_psi        :      0.00s CPU      0.00s WALL (     121 calls)
     cdiaghg      :      0.02s CPU      0.02s WALL (     169 calls)

     Called by h_psi:
     h_psi:pot    :      0.17s CPU      0.18s WALL (     185 calls)
     h_psi:calbec :      0.01s CPU      0.01s WALL (     185 calls)
     vloc_psi     :      0.16s CPU      0.17s WALL (     185 calls)
     add_vuspsi   :      0.00s CPU      0.00s WALL (     185 calls)

     General routines
     calbec       :      0.01s CPU      0.02s WALL (     281 calls)
     fft          :      0.02s CPU      0.02s WALL (     104 calls)
     ffts         :      0.00s CPU      0.00s WALL (       7 calls)
     fftw         :      0.19s CPU      0.20s WALL (    2070 calls)

     Parallel routines
     fft_scatt_xy :      0.02s CPU      0.02s WALL (    2181 calls)
     fft_scatt_yz :      0.07s CPU      0.07s WALL (    2181 calls)

     PWSCF        :     1.10s CPU         1.20s WALL


   This run was terminated on:  20: 2: 8  25Mar2024            

=------------------------------------------------------------------------------=
   JOB DONE.
=------------------------------------------------------------------------------=
