
     Program PWSCF v.6.3MaX starts on 25Mar2024 at 19:54: 0 

     This program is part of the open-source Quantum ESPRESSO suite
     for quantum simulation of materials; please cite
         "P. Giannozzi et al., J. Phys.:Condens. Matter 21 395502 (2009);
         "P. Giannozzi et al., J. Phys.:Condens. Matter 29 465901 (2017);
          URL http://www.quantum-espresso.org", 
     in publications or presentations arising from this work. More details at
     http://www.quantum-espresso.org/quote

     Parallel version (MPI), running on     5 processors

     MPI processes distributed on     1 nodes
     R & G space division:  proc/nbgrp/npool/nimage =       5
     Waiting for input...
     Reading input from standard input

     Current dimensions of program PWSCF are:
     Max number of different atomic species (ntypx) = 10
     Max number of k-points (npk) =  40000
     Max angular momentum in pseudopotentials (lmaxx) =  3

     Subspace diagonalization in iterative solution of the eigenvalue problem:
     a serial algorithm will be used


     Parallelization info
     --------------------
     sticks:   dense  smooth     PW     G-vecs:    dense   smooth      PW
     Min          17      17      7                  106      106      27
     Max          17      17      8                  107      107      28
     Sum          85      85     37                  531      531     137



     bravais-lattice index     =            2
     lattice parameter (alat)  =       7.6500  a.u.
     unit-cell volume          =     111.9243 (a.u.)^3
     number of atoms/cell      =            1
     number of atomic types    =            1
     number of electrons       =         3.00
     number of Kohn-Sham states=            6
     kinetic-energy cutoff     =      10.0000  Ry
     charge density cutoff     =      40.0000  Ry
     convergence threshold     =      1.0E-08
     mixing beta               =       0.7000
     number of iterations used =            8  plain     mixing
     Exchange-correlation      = PBE ( 1  4  3  4 0 0)

     celldm(1)=   7.650000  celldm(2)=   0.000000  celldm(3)=   0.000000
     celldm(4)=   0.000000  celldm(5)=   0.000000  celldm(6)=   0.000000

     crystal axes: (cart. coord. in units of alat)
               a(1) = (  -0.500000   0.000000   0.500000 )  
               a(2) = (   0.000000   0.500000   0.500000 )  
               a(3) = (  -0.500000   0.500000   0.000000 )  

     reciprocal axes: (cart. coord. in units 2 pi/alat)
               b(1) = ( -1.000000 -1.000000  1.000000 )  
               b(2) = (  1.000000  1.000000  1.000000 )  
               b(3) = ( -1.000000  1.000000 -1.000000 )  


     PseudoPot. # 1 for Al read from file:
     /home/lorenzo/pseudos/Al/Al.pbe-nl-rrkjus_psl.1.0.0.UPF
     MD5 check sum: 6db8691240a1c860ce6448702d298c4b
     Pseudo is Ultrasoft + core correction, Zval =  3.0
     Generated using "atomic" code by A. Dal Corso v.6.3
     Using radial grid of 1135 points,  4 beta functions with: 
                l(1) =   0
                l(2) =   0
                l(3) =   1
                l(4) =   1
     Q(r) pseudized with 0 coefficients 


     atomic species   valence    mass     pseudopotential
        Al             3.00    26.98150     Al( 1.00)

     48 Sym. Ops., with inversion, found



   Cartesian axes

     site n.     atom                  positions (alat units)
         1           Al  tau(   1) = (   0.0000000   0.0000000   0.0000000  )

     number of k points=    16  gaussian smearing, width (Ry)=  0.0100
                       cart. coord. in units 2pi/alat
        k(    1) = (   0.0000000   0.0000000   0.0000000), wk =   0.0092593
        k(    2) = (  -0.1666667   0.1666667  -0.1666667), wk =   0.0740741
        k(    3) = (  -0.3333333   0.3333333  -0.3333333), wk =   0.0740741
        k(    4) = (   0.5000000  -0.5000000   0.5000000), wk =   0.0370370
        k(    5) = (   0.0000000   0.3333333   0.0000000), wk =   0.0555556
        k(    6) = (  -0.1666667   0.5000000  -0.1666667), wk =   0.2222222
        k(    7) = (   0.6666667  -0.3333333   0.6666667), wk =   0.2222222
        k(    8) = (   0.5000000  -0.1666667   0.5000000), wk =   0.2222222
        k(    9) = (   0.3333333   0.0000000   0.3333333), wk =   0.1111111
        k(   10) = (   0.0000000   0.6666667   0.0000000), wk =   0.0555556
        k(   11) = (   0.8333333  -0.1666667   0.8333333), wk =   0.2222222
        k(   12) = (   0.6666667  -0.0000000   0.6666667), wk =   0.1111111
        k(   13) = (   0.0000000  -1.0000000   0.0000000), wk =   0.0277778
        k(   14) = (   0.6666667  -0.3333333   1.0000000), wk =   0.2222222
        k(   15) = (   0.5000000  -0.1666667   0.8333333), wk =   0.2222222
        k(   16) = (  -0.3333333  -1.0000000   0.0000000), wk =   0.1111111

     Dense  grid:      531 G-vectors     FFT dimensions: (  12,  12,  12)

     Estimated max dynamical RAM per process >       0.35 MB

     Estimated total dynamical RAM >       1.77 MB

     Initial potential from superposition of free atoms

     starting charge    2.99771, renormalised to    3.00000
     Starting wfcs are    4 randomized atomic wfcs +    2 random wfcs

     total cpu time spent up to now is        0.4 secs

     Self-consistent Calculation

     iteration #  1     ecut=    10.00 Ry     beta= 0.70
     Davidson diagonalization with overlap
     ethr =  1.00E-02,  avg # of iterations =  4.2

     Threshold (ethr) on eigenvalues was too large:
     Diagonalizing with lowered threshold

     Davidson diagonalization with overlap
     ethr =  1.83E-04,  avg # of iterations =  1.4

     total cpu time spent up to now is        0.5 secs

     total energy              =      -5.04007739 Ry
     Harris-Foulkes estimate   =      -5.04142633 Ry
     estimated scf accuracy    <       0.00540219 Ry

     iteration #  2     ecut=    10.00 Ry     beta= 0.70
     Davidson diagonalization with overlap
     ethr =  1.80E-04,  avg # of iterations =  1.0

     total cpu time spent up to now is        0.5 secs

     total energy              =      -5.04004628 Ry
     Harris-Foulkes estimate   =      -5.04013798 Ry
     estimated scf accuracy    <       0.00037771 Ry

     iteration #  3     ecut=    10.00 Ry     beta= 0.70
     Davidson diagonalization with overlap
     ethr =  1.26E-05,  avg # of iterations =  1.4

     total cpu time spent up to now is        0.6 secs

     total energy              =      -5.04006062 Ry
     Harris-Foulkes estimate   =      -5.04006022 Ry
     estimated scf accuracy    <       0.00000127 Ry

     iteration #  4     ecut=    10.00 Ry     beta= 0.70
     Davidson diagonalization with overlap
     ethr =  4.23E-08,  avg # of iterations =  2.7

     total cpu time spent up to now is        0.6 secs

     total energy              =      -5.04006183 Ry
     Harris-Foulkes estimate   =      -5.04006183 Ry
     estimated scf accuracy    <       0.00000002 Ry

     iteration #  5     ecut=    10.00 Ry     beta= 0.70
     Davidson diagonalization with overlap
     ethr =  7.84E-10,  avg # of iterations =  1.2

     total cpu time spent up to now is        0.6 secs

     End of self-consistent calculation

          k = 0.0000 0.0000 0.0000 (    59 PWs)   bands (ev):

    -3.2501  20.8608  20.8608  21.8902  21.8902  21.8902

          k =-0.1667 0.1667-0.1667 (    62 PWs)   bands (ev):

    -2.4999  14.5821  19.3472  19.3472  22.5391  24.0912

          k =-0.3333 0.3333-0.3333 (    64 PWs)   bands (ev):

    -0.2700   8.3854  18.7140  18.7140  21.4226  21.4226

          k = 0.5000-0.5000 0.5000 (    70 PWs)   bands (ev):

     3.2738   3.4984  19.1943  19.1943  19.6209  19.6209

          k = 0.0000 0.3333 0.0000 (    60 PWs)   bands (ev):

    -2.2504  16.9316  16.9316  17.2745  20.1007  20.5603

          k =-0.1667 0.5000-0.1667 (    58 PWs)   bands (ev):

    -0.5158  10.9140  15.8406  16.6617  17.6135  22.5122

          k = 0.6667-0.3333 0.6667 (    61 PWs)   bands (ev):

     2.6533   5.5451  14.1443  16.0783  17.9714  24.1267

          k = 0.5000-0.1667 0.5000 (    61 PWs)   bands (ev):

     1.4437   7.1817  13.0124  17.6162  19.6363  23.0332

          k = 0.3333 0.0000 0.3333 (    59 PWs)   bands (ev):

    -1.2567  12.4326  13.7864  20.4078  22.5529  22.8369

          k = 0.0000 0.6667 0.0000 (    52 PWs)   bands (ev):

     0.7107  12.3174  14.3050  14.3050  14.3537  17.9783

          k = 0.8333-0.1667 0.8333 (    61 PWs)   bands (ev):

     3.3559   8.9403   9.3938  14.0869  15.7653  20.9243

          k = 0.6667-0.0000 0.6667 (    63 PWs)   bands (ev):

     4.5688   6.7978   8.2797  15.1790  17.0948  26.8612

          k = 0.0000-1.0000 0.0000 (    64 PWs)   bands (ev):

     4.9347   6.3021  13.3381  13.4209  13.4209  17.0161

          k = 0.6667-0.3333 1.0000 (    56 PWs)   bands (ev):

     1.6851   9.6156  11.0593  13.2885  20.9076  22.4222

          k = 0.5000-0.1667 0.8333 (    58 PWs)   bands (ev):

     5.1423   5.4086  10.9413  11.4352  21.9778  22.7101

          k =-0.3333-1.0000 0.0000 (    62 PWs)   bands (ev):

     5.8682   7.2510   8.6741  10.2113  19.9957  21.7442

     the Fermi energy is     8.2469 ev

!    total energy              =      -5.04006184 Ry
     Harris-Foulkes estimate   =      -5.04006184 Ry
     estimated scf accuracy    <          5.6E-09 Ry

     The total energy is the sum of the following terms:

     one-electron contribution =       2.93711406 Ry
     hartree contribution      =       0.00573894 Ry
     xc contribution           =      -2.58858943 Ry
     ewald contribution        =      -5.39395546 Ry
     smearing contrib. (-TS)   =      -0.00036995 Ry

     convergence has been achieved in   5 iterations

     Forces acting on atoms (cartesian axes, Ry/au):

     atom    1 type  1   force =     0.00000000    0.00000000    0.00000000

     Total force =     0.000000     Total SCF correction =     0.000000


     Computing stress (Cartesian axis) and pressure

          total   stress  (Ry/bohr**3)                   (kbar)     P=    8.83
   0.00006002   0.00000000   0.00000000          8.83      0.00      0.00
   0.00000000   0.00006002   0.00000000          0.00      8.83      0.00
   0.00000000   0.00000000   0.00006002          0.00      0.00      8.83


     Writing output data file Al.save/

     init_run     :      0.04s CPU      0.05s WALL (       1 calls)
     electrons    :      0.12s CPU      0.16s WALL (       1 calls)
     forces       :      0.00s CPU      0.01s WALL (       1 calls)
     stress       :      0.01s CPU      0.01s WALL (       1 calls)

     Called by init_run:
     wfcinit      :      0.00s CPU      0.01s WALL (       1 calls)
     potinit      :      0.00s CPU      0.00s WALL (       1 calls)
     hinit0       :      0.04s CPU      0.04s WALL (       1 calls)

     Called by electrons:
     c_bands      :      0.10s CPU      0.12s WALL (       6 calls)
     sum_band     :      0.01s CPU      0.02s WALL (       6 calls)
     v_of_rho     :      0.00s CPU      0.00s WALL (       6 calls)
     newd         :      0.00s CPU      0.00s WALL (       6 calls)
     mix_rho      :      0.00s CPU      0.00s WALL (       6 calls)

     Called by c_bands:
     init_us_2    :      0.00s CPU      0.00s WALL (     240 calls)
     cegterg      :      0.09s CPU      0.12s WALL (      96 calls)

     Called by sum_band:
     sum_band:bec :      0.00s CPU      0.00s WALL (      96 calls)
     addusdens    :      0.00s CPU      0.00s WALL (       6 calls)

     Called by *egterg:
     h_psi        :      0.06s CPU      0.08s WALL (     303 calls)
     s_psi        :      0.00s CPU      0.00s WALL (     303 calls)
     g_psi        :      0.00s CPU      0.00s WALL (     191 calls)
     cdiaghg      :      0.02s CPU      0.02s WALL (     271 calls)

     Called by h_psi:
     h_psi:pot    :      0.06s CPU      0.08s WALL (     303 calls)
     h_psi:calbec :      0.00s CPU      0.01s WALL (     303 calls)
     vloc_psi     :      0.05s CPU      0.07s WALL (     303 calls)
     add_vuspsi   :      0.00s CPU      0.00s WALL (     303 calls)

     General routines
     calbec       :      0.01s CPU      0.01s WALL (     479 calls)
     fft          :      0.00s CPU      0.00s WALL (      93 calls)
     ffts         :      0.00s CPU      0.00s WALL (       6 calls)
     fftw         :      0.06s CPU      0.08s WALL (    3512 calls)

     Parallel routines
     fft_scatt_xy :      0.01s CPU      0.01s WALL (    3611 calls)
     fft_scatt_yz :      0.03s CPU      0.04s WALL (    3611 calls)

     PWSCF        :     0.58s CPU         0.67s WALL


   This run was terminated on:  19:54: 1  25Mar2024            

=------------------------------------------------------------------------------=
   JOB DONE.
=------------------------------------------------------------------------------=
