
     Program PWSCF v.6.3MaX starts on 25Mar2024 at 20: 4:59 

     This program is part of the open-source Quantum ESPRESSO suite
     for quantum simulation of materials; please cite
         "P. Giannozzi et al., J. Phys.:Condens. Matter 21 395502 (2009);
         "P. Giannozzi et al., J. Phys.:Condens. Matter 29 465901 (2017);
          URL http://www.quantum-espresso.org", 
     in publications or presentations arising from this work. More details at
     http://www.quantum-espresso.org/quote

     Parallel version (MPI), running on     5 processors

     MPI processes distributed on     1 nodes
     R & G space division:  proc/nbgrp/npool/nimage =       5
     Waiting for input...
     Reading input from standard input

     Current dimensions of program PWSCF are:
     Max number of different atomic species (ntypx) = 10
     Max number of k-points (npk) =  40000
     Max angular momentum in pseudopotentials (lmaxx) =  3

     Subspace diagonalization in iterative solution of the eigenvalue problem:
     a serial algorithm will be used


     Parallelization info
     --------------------
     sticks:   dense  smooth     PW     G-vecs:    dense   smooth      PW
     Min          99      99     30                 1395     1395     248
     Max         101     101     31                 1395     1395     251
     Sum         499     499    151                 6975     6975    1243



     bravais-lattice index     =            2
     lattice parameter (alat)  =       7.6500  a.u.
     unit-cell volume          =     111.9243 (a.u.)^3
     number of atoms/cell      =            1
     number of atomic types    =            1
     number of electrons       =         3.00
     number of Kohn-Sham states=            6
     kinetic-energy cutoff     =      60.0000  Ry
     charge density cutoff     =     240.0000  Ry
     convergence threshold     =      1.0E-08
     mixing beta               =       0.7000
     number of iterations used =            8  plain     mixing
     Exchange-correlation      = PBE ( 1  4  3  4 0 0)

     celldm(1)=   7.650000  celldm(2)=   0.000000  celldm(3)=   0.000000
     celldm(4)=   0.000000  celldm(5)=   0.000000  celldm(6)=   0.000000

     crystal axes: (cart. coord. in units of alat)
               a(1) = (  -0.500000   0.000000   0.500000 )  
               a(2) = (   0.000000   0.500000   0.500000 )  
               a(3) = (  -0.500000   0.500000   0.000000 )  

     reciprocal axes: (cart. coord. in units 2 pi/alat)
               b(1) = ( -1.000000 -1.000000  1.000000 )  
               b(2) = (  1.000000  1.000000  1.000000 )  
               b(3) = ( -1.000000  1.000000 -1.000000 )  


     PseudoPot. # 1 for Al read from file:
     /home/lorenzo/pseudos/Al/Al.pbe-nl-rrkjus_psl.1.0.0.UPF
     MD5 check sum: 6db8691240a1c860ce6448702d298c4b
     Pseudo is Ultrasoft + core correction, Zval =  3.0
     Generated using "atomic" code by A. Dal Corso v.6.3
     Using radial grid of 1135 points,  4 beta functions with: 
                l(1) =   0
                l(2) =   0
                l(3) =   1
                l(4) =   1
     Q(r) pseudized with 0 coefficients 


     atomic species   valence    mass     pseudopotential
        Al             3.00    26.98150     Al( 1.00)

     48 Sym. Ops., with inversion, found



   Cartesian axes

     site n.     atom                  positions (alat units)
         1           Al  tau(   1) = (   0.0000000   0.0000000   0.0000000  )

     number of k points=    20  gaussian smearing, width (Ry)=  0.0100
                       cart. coord. in units 2pi/alat
        k(    1) = (   0.0000000   0.0000000   0.0000000), wk =   0.0058309
        k(    2) = (  -0.1428571   0.1428571  -0.1428571), wk =   0.0466472
        k(    3) = (  -0.2857143   0.2857143  -0.2857143), wk =   0.0466472
        k(    4) = (  -0.4285714   0.4285714  -0.4285714), wk =   0.0466472
        k(    5) = (   0.0000000   0.2857143   0.0000000), wk =   0.0349854
        k(    6) = (  -0.1428571   0.4285714  -0.1428571), wk =   0.1399417
        k(    7) = (  -0.2857143   0.5714286  -0.2857143), wk =   0.1399417
        k(    8) = (   0.5714286  -0.2857143   0.5714286), wk =   0.1399417
        k(    9) = (   0.4285714  -0.1428571   0.4285714), wk =   0.1399417
        k(   10) = (   0.2857143  -0.0000000   0.2857143), wk =   0.0699708
        k(   11) = (   0.0000000   0.5714286   0.0000000), wk =   0.0349854
        k(   12) = (  -0.1428571   0.7142857  -0.1428571), wk =   0.1399417
        k(   13) = (   0.7142857  -0.1428571   0.7142857), wk =   0.1399417
        k(   14) = (   0.5714286   0.0000000   0.5714286), wk =   0.0699708
        k(   15) = (   0.0000000   0.8571429   0.0000000), wk =   0.0349854
        k(   16) = (   0.8571429  -0.0000000   0.8571429), wk =   0.0699708
        k(   17) = (  -0.2857143   0.5714286   0.0000000), wk =   0.1399417
        k(   18) = (   0.5714286  -0.2857143   0.8571429), wk =   0.2798834
        k(   19) = (   0.7142857  -0.1428571   1.0000000), wk =   0.1399417
        k(   20) = (   0.5714286   0.0000000   0.8571429), wk =   0.1399417

     Dense  grid:     6975 G-vectors     FFT dimensions: (  27,  27,  27)

     Estimated max dynamical RAM per process >       2.74 MB

     Estimated total dynamical RAM >      13.68 MB

     Initial potential from superposition of free atoms

     starting charge    2.99771, renormalised to    3.00000
     Starting wfcs are    4 randomized atomic wfcs +    2 random wfcs

     total cpu time spent up to now is        0.5 secs

     Self-consistent Calculation

     iteration #  1     ecut=    60.00 Ry     beta= 0.70
     Davidson diagonalization with overlap
     ethr =  1.00E-02,  avg # of iterations =  5.0

     Threshold (ethr) on eigenvalues was too large:
     Diagonalizing with lowered threshold

     Davidson diagonalization with overlap
     ethr =  1.95E-04,  avg # of iterations =  2.1

     total cpu time spent up to now is        0.8 secs

     total energy              =      -5.04230908 Ry
     Harris-Foulkes estimate   =      -5.04366656 Ry
     estimated scf accuracy    <       0.00577979 Ry

     iteration #  2     ecut=    60.00 Ry     beta= 0.70
     Davidson diagonalization with overlap
     ethr =  1.93E-04,  avg # of iterations =  1.0

     total cpu time spent up to now is        0.9 secs

     total energy              =      -5.04229791 Ry
     Harris-Foulkes estimate   =      -5.04238880 Ry
     estimated scf accuracy    <       0.00041527 Ry

     iteration #  3     ecut=    60.00 Ry     beta= 0.70
     Davidson diagonalization with overlap
     ethr =  1.38E-05,  avg # of iterations =  1.8

     total cpu time spent up to now is        1.0 secs

     total energy              =      -5.04231887 Ry
     Harris-Foulkes estimate   =      -5.04231902 Ry
     estimated scf accuracy    <       0.00000145 Ry

     iteration #  4     ecut=    60.00 Ry     beta= 0.70
     Davidson diagonalization with overlap
     ethr =  4.84E-08,  avg # of iterations =  2.9

     total cpu time spent up to now is        1.1 secs

     total energy              =      -5.04232061 Ry
     Harris-Foulkes estimate   =      -5.04232060 Ry
     estimated scf accuracy    <       0.00000007 Ry

     iteration #  5     ecut=    60.00 Ry     beta= 0.70
     Davidson diagonalization with overlap
     ethr =  2.37E-09,  avg # of iterations =  1.2

     total cpu time spent up to now is        1.2 secs

     total energy              =      -5.04232061 Ry
     Harris-Foulkes estimate   =      -5.04232061 Ry
     estimated scf accuracy    <       0.00000002 Ry

     iteration #  6     ecut=    60.00 Ry     beta= 0.70
     Davidson diagonalization with overlap
     ethr =  6.15E-10,  avg # of iterations =  1.0

     total cpu time spent up to now is        1.3 secs

     End of self-consistent calculation

          k = 0.0000 0.0000 0.0000 (   893 PWs)   bands (ev):

    -3.2491  20.4400  20.4400  21.8752  21.8753  21.8753

          k =-0.1429 0.1429-0.1429 (   893 PWs)   bands (ev):

    -2.6971  15.4245  19.3374  19.3374  22.4574  23.6713

          k =-0.2857 0.2857-0.2857 (   887 PWs)   bands (ev):

    -1.0534   9.9907  18.6196  18.6196  21.9243  22.1127

          k =-0.4286 0.4286-0.4286 (   878 PWs)   bands (ev):

     1.6455   5.3559  18.8009  18.8009  19.9145  19.9146

          k = 0.0000 0.2857 0.0000 (   889 PWs)   bands (ev):

    -2.5135  17.3310  17.3310  17.5606  20.4528  21.5150

          k =-0.1429 0.4286-0.1429 (   875 PWs)   bands (ev):

    -1.2352  12.1249  16.2475  17.7907  18.1891  22.0504

          k =-0.2857 0.5714-0.2857 (   872 PWs)   bands (ev):

     1.1090   7.2525  15.6912  16.1027  17.8405  23.8410

          k = 0.5714-0.2857 0.5714 (   876 PWs)   bands (ev):

     3.2343   4.4835  14.2092  16.8997  18.7357  22.4607

          k = 0.4286-0.1429 0.4286 (   885 PWs)   bands (ev):

     0.2122   8.7674  13.7390  18.6324  20.5844  21.9684

          k = 0.2857-0.0000 0.2857 (   891 PWs)   bands (ev):

    -1.7816  13.4210  14.7359  21.1938  21.8670  23.2142

          k = 0.0000 0.5714 0.0000 (   870 PWs)   bands (ev):

    -0.3295  14.3841  14.7456  14.8307  14.8307  18.3155

          k =-0.1429 0.7143-0.1429 (   877 PWs)   bands (ev):

     1.6405  10.0750  11.5532  14.3633  15.8536  20.3388

          k = 0.7143-0.1429 0.7143 (   879 PWs)   bands (ev):

     4.6015   5.8699   9.7139  14.8414  16.5523  24.8824

          k = 0.5714 0.0000 0.5714 (   875 PWs)   bands (ev):

     2.5322   7.9887   9.4764  16.2663  18.1536  26.4325

          k = 0.0000 0.8571 0.0000 (   886 PWs)   bands (ev):

     3.2102   8.3030  13.2996  13.5763  13.5763  17.0343

          k = 0.8571-0.0000 0.8571 (   884 PWs)   bands (ev):

     5.2764   6.6074   9.4325  13.7354  15.1553  19.7257

          k =-0.2857 0.5714 0.0000 (   872 PWs)   bands (ev):

     0.3915  10.7081  12.1419  15.0852  20.1789  21.8868

          k = 0.5714-0.2857 0.8571 (   879 PWs)   bands (ev):

     3.0583   6.7029  11.7059  12.9565  21.0775  22.3428

          k = 0.7143-0.1429 1.0000 (   885 PWs)   bands (ev):

     3.9110   8.9581   9.3485  10.8967  18.8775  20.8090

          k = 0.5714 0.0000 0.8571 (   873 PWs)   bands (ev):

     5.9831   6.6314   8.0699  11.1232  20.4970  24.8939

     the Fermi energy is     7.9586 ev

!    total energy              =      -5.04232061 Ry
     Harris-Foulkes estimate   =      -5.04232061 Ry
     estimated scf accuracy    <          2.0E-10 Ry

     The total energy is the sum of the following terms:

     one-electron contribution =       2.93378555 Ry
     hartree contribution      =       0.00649946 Ry
     xc contribution           =      -2.58825977 Ry
     ewald contribution        =      -5.39395538 Ry
     smearing contrib. (-TS)   =      -0.00039046 Ry

     convergence has been achieved in   6 iterations

     Forces acting on atoms (cartesian axes, Ry/au):

     atom    1 type  1   force =     0.00000000    0.00000000    0.00000000

     Total force =     0.000000     Total SCF correction =     0.000000


     Computing stress (Cartesian axis) and pressure

          total   stress  (Ry/bohr**3)                   (kbar)     P=   -9.03
  -0.00006137   0.00000000   0.00000000         -9.03      0.00      0.00
   0.00000000  -0.00006137  -0.00000000          0.00     -9.03     -0.00
   0.00000000  -0.00000000  -0.00006137          0.00     -0.00     -9.03


     Writing output data file Al.save/

     init_run     :      0.12s CPU      0.12s WALL (       1 calls)
     electrons    :      0.71s CPU      0.75s WALL (       1 calls)
     forces       :      0.02s CPU      0.02s WALL (       1 calls)
     stress       :      0.05s CPU      0.05s WALL (       1 calls)

     Called by init_run:
     wfcinit      :      0.03s CPU      0.03s WALL (       1 calls)
     potinit      :      0.01s CPU      0.01s WALL (       1 calls)
     hinit0       :      0.08s CPU      0.08s WALL (       1 calls)

     Called by electrons:
     c_bands      :      0.54s CPU      0.58s WALL (       7 calls)
     sum_band     :      0.12s CPU      0.13s WALL (       7 calls)
     v_of_rho     :      0.03s CPU      0.03s WALL (       7 calls)
     newd         :      0.01s CPU      0.01s WALL (       7 calls)
     mix_rho      :      0.00s CPU      0.00s WALL (       7 calls)

     Called by c_bands:
     init_us_2    :      0.02s CPU      0.02s WALL (     340 calls)
     cegterg      :      0.52s CPU      0.56s WALL (     140 calls)

     Called by sum_band:
     sum_band:bec :      0.00s CPU      0.00s WALL (     140 calls)
     addusdens    :      0.01s CPU      0.01s WALL (       7 calls)

     Called by *egterg:
     h_psi        :      0.45s CPU      0.49s WALL (     459 calls)
     s_psi        :      0.01s CPU      0.01s WALL (     459 calls)
     g_psi        :      0.00s CPU      0.00s WALL (     299 calls)
     cdiaghg      :      0.03s CPU      0.03s WALL (     419 calls)

     Called by h_psi:
     h_psi:pot    :      0.45s CPU      0.48s WALL (     459 calls)
     h_psi:calbec :      0.01s CPU      0.01s WALL (     459 calls)
     vloc_psi     :      0.43s CPU      0.46s WALL (     459 calls)
     add_vuspsi   :      0.01s CPU      0.01s WALL (     459 calls)

     General routines
     calbec       :      0.02s CPU      0.02s WALL (     699 calls)
     fft          :      0.02s CPU      0.02s WALL (     104 calls)
     ffts         :      0.00s CPU      0.00s WALL (       7 calls)
     fftw         :      0.48s CPU      0.51s WALL (    5186 calls)

     Parallel routines
     fft_scatt_xy :      0.04s CPU      0.05s WALL (    5297 calls)
     fft_scatt_yz :      0.11s CPU      0.12s WALL (    5297 calls)

     PWSCF        :     1.28s CPU         1.38s WALL


   This run was terminated on:  20: 5: 0  25Mar2024            

=------------------------------------------------------------------------------=
   JOB DONE.
=------------------------------------------------------------------------------=
