
     Program PWSCF v.6.3MaX starts on 25Mar2024 at 19:57:32 

     This program is part of the open-source Quantum ESPRESSO suite
     for quantum simulation of materials; please cite
         "P. Giannozzi et al., J. Phys.:Condens. Matter 21 395502 (2009);
         "P. Giannozzi et al., J. Phys.:Condens. Matter 29 465901 (2017);
          URL http://www.quantum-espresso.org", 
     in publications or presentations arising from this work. More details at
     http://www.quantum-espresso.org/quote

     Parallel version (MPI), running on     5 processors

     MPI processes distributed on     1 nodes
     R & G space division:  proc/nbgrp/npool/nimage =       5
     Waiting for input...
     Reading input from standard input

     Current dimensions of program PWSCF are:
     Max number of different atomic species (ntypx) = 10
     Max number of k-points (npk) =  40000
     Max angular momentum in pseudopotentials (lmaxx) =  3
               file Al.pbe-nl-kjpaw_psl.1.0.0.UPF: wavefunction(s)  3S 3P renormalized

     Subspace diagonalization in iterative solution of the eigenvalue problem:
     a serial algorithm will be used


     Parallelization info
     --------------------
     sticks:   dense  smooth     PW     G-vecs:    dense   smooth      PW
     Min          48      48     16                  488      488      91
     Max          49      49     18                  491      491      92
     Sum         241     241     85                 2445     2445     459



     bravais-lattice index     =            2
     lattice parameter (alat)  =       7.6500  a.u.
     unit-cell volume          =     111.9243 (a.u.)^3
     number of atoms/cell      =            1
     number of atomic types    =            1
     number of electrons       =         3.00
     number of Kohn-Sham states=            6
     kinetic-energy cutoff     =      30.0000  Ry
     charge density cutoff     =     120.0000  Ry
     convergence threshold     =      1.0E-08
     mixing beta               =       0.7000
     number of iterations used =            8  plain     mixing
     Exchange-correlation      = SLA PW PBX PBC ( 1  4  3  4 0 0)

     celldm(1)=   7.650000  celldm(2)=   0.000000  celldm(3)=   0.000000
     celldm(4)=   0.000000  celldm(5)=   0.000000  celldm(6)=   0.000000

     crystal axes: (cart. coord. in units of alat)
               a(1) = (  -0.500000   0.000000   0.500000 )  
               a(2) = (   0.000000   0.500000   0.500000 )  
               a(3) = (  -0.500000   0.500000   0.000000 )  

     reciprocal axes: (cart. coord. in units 2 pi/alat)
               b(1) = ( -1.000000 -1.000000  1.000000 )  
               b(2) = (  1.000000  1.000000  1.000000 )  
               b(3) = ( -1.000000  1.000000 -1.000000 )  


     PseudoPot. # 1 for Al read from file:
     /home/lorenzo/pseudos/Al/Al.pbe-nl-kjpaw_psl.1.0.0.UPF
     MD5 check sum: 8cf6d98cc7ef3f4b729b574060f3a10f
     Pseudo is Projector augmented-wave + core cor, Zval =  3.0
     Generated using "atomic" code by A. Dal Corso v.6.3
     Shape of augmentation charge: PSQ
     Using radial grid of 1135 points,  4 beta functions with: 
                l(1) =   0
                l(2) =   0
                l(3) =   1
                l(4) =   1
     Q(r) pseudized with 0 coefficients 


     atomic species   valence    mass     pseudopotential
        Al             3.00    26.98150     Al( 1.00)

     48 Sym. Ops., with inversion, found



   Cartesian axes

     site n.     atom                  positions (alat units)
         1           Al  tau(   1) = (   0.0000000   0.0000000   0.0000000  )

     number of k points=     4  gaussian smearing, width (Ry)=  0.0100
                       cart. coord. in units 2pi/alat
        k(    1) = (   0.0000000   0.0000000   0.0000000), wk =   0.0740741
        k(    2) = (  -0.3333333   0.3333333  -0.3333333), wk =   0.5925926
        k(    3) = (   0.0000000   0.6666667   0.0000000), wk =   0.4444444
        k(    4) = (   0.6666667  -0.0000000   0.6666667), wk =   0.8888889

     Dense  grid:     2445 G-vectors     FFT dimensions: (  20,  20,  20)

     Estimated max dynamical RAM per process >       1.03 MB

     Estimated total dynamical RAM >       5.14 MB

     Initial potential from superposition of free atoms

     starting charge    2.99771, renormalised to    3.00000
     Starting wfcs are    4 randomized atomic wfcs +    2 random wfcs
     Checking if some PAW data can be deallocated... 

     total cpu time spent up to now is        0.5 secs

     Self-consistent Calculation

     iteration #  1     ecut=    30.00 Ry     beta= 0.70
     Davidson diagonalization with overlap
     ethr =  1.00E-02,  avg # of iterations =  5.5

     Threshold (ethr) on eigenvalues was too large:
     Diagonalizing with lowered threshold

     Davidson diagonalization with overlap
     ethr =  2.84E-04,  avg # of iterations =  1.5

     total cpu time spent up to now is        0.6 secs

     total energy              =     -39.46072650 Ry
     Harris-Foulkes estimate   =     -39.46228248 Ry
     estimated scf accuracy    <       0.00832952 Ry

     iteration #  2     ecut=    30.00 Ry     beta= 0.70
     Davidson diagonalization with overlap
     ethr =  2.78E-04,  avg # of iterations =  1.0

     total cpu time spent up to now is        0.7 secs

     total energy              =     -39.46069518 Ry
     Harris-Foulkes estimate   =     -39.46081335 Ry
     estimated scf accuracy    <       0.00063019 Ry

     iteration #  3     ecut=    30.00 Ry     beta= 0.70
     Davidson diagonalization with overlap
     ethr =  2.10E-05,  avg # of iterations =  2.0

     total cpu time spent up to now is        0.7 secs

     total energy              =     -39.46071387 Ry
     Harris-Foulkes estimate   =     -39.46071438 Ry
     estimated scf accuracy    <       0.00000154 Ry

     iteration #  4     ecut=    30.00 Ry     beta= 0.70
     Davidson diagonalization with overlap
     ethr =  5.14E-08,  avg # of iterations =  3.5

     total cpu time spent up to now is        0.8 secs

     total energy              =     -39.46071578 Ry
     Harris-Foulkes estimate   =     -39.46071578 Ry
     estimated scf accuracy    <       0.00000006 Ry

     iteration #  5     ecut=    30.00 Ry     beta= 0.70
     Davidson diagonalization with overlap
     ethr =  1.85E-09,  avg # of iterations =  1.0

     total cpu time spent up to now is        0.8 secs

     total energy              =     -39.46071580 Ry
     Harris-Foulkes estimate   =     -39.46071578 Ry
     estimated scf accuracy    <       0.00000005 Ry

     iteration #  6     ecut=    30.00 Ry     beta= 0.70
     Davidson diagonalization with overlap
     ethr =  1.54E-09,  avg # of iterations =  1.0

     total cpu time spent up to now is        0.8 secs

     End of self-consistent calculation

          k = 0.0000 0.0000 0.0000 (   331 PWs)   bands (ev):

    -3.2431  20.4584  20.4584  21.8789  21.8789  21.8789

          k =-0.3333 0.3333-0.3333 (   308 PWs)   bands (ev):

    -0.2620   8.3566  18.5890  18.5890  21.1758  21.1759

          k = 0.0000 0.6667 0.0000 (   315 PWs)   bands (ev):

     0.7157  12.2279  14.1265  14.2798  14.2798  17.7625

          k = 0.6667-0.0000 0.6667 (   309 PWs)   bands (ev):

     4.5650   6.7937   8.2432  15.1484  16.9193  26.4726

     the Fermi energy is     8.1297 ev

!    total energy              =     -39.46071580 Ry
     Harris-Foulkes estimate   =     -39.46071580 Ry
     estimated scf accuracy    <          3.4E-10 Ry

     total all-electron energy =      -485.603496 Ry

     The total energy is the sum of the following terms:

     one-electron contribution =       3.18838822 Ry
     hartree contribution      =       0.01012985 Ry
     xc contribution           =      -2.58922649 Ry
     ewald contribution        =      -5.39395543 Ry
     one-center paw contrib.   =     -34.67469936 Ry
     smearing contrib. (-TS)   =      -0.00135258 Ry

     convergence has been achieved in   6 iterations

     Forces acting on atoms (cartesian axes, Ry/au):

     atom    1 type  1   force =     0.00000000    0.00000000    0.00000000

     Total force =     0.000000     Total SCF correction =     0.000000


     Computing stress (Cartesian axis) and pressure

          total   stress  (Ry/bohr**3)                   (kbar)     P=  -14.85
  -0.00010092   0.00000000   0.00000000        -14.85      0.00      0.00
   0.00000000  -0.00010092   0.00000000          0.00    -14.85      0.00
   0.00000000   0.00000000  -0.00010092          0.00      0.00    -14.85


     Writing output data file Al.save/

     init_run     :      0.10s CPU      0.10s WALL (       1 calls)
     electrons    :      0.25s CPU      0.30s WALL (       1 calls)
     forces       :      0.01s CPU      0.01s WALL (       1 calls)
     stress       :      0.01s CPU      0.01s WALL (       1 calls)

     Called by init_run:
     wfcinit      :      0.00s CPU      0.00s WALL (       1 calls)
     potinit      :      0.04s CPU      0.04s WALL (       1 calls)
     hinit0       :      0.05s CPU      0.05s WALL (       1 calls)

     Called by electrons:
     c_bands      :      0.06s CPU      0.08s WALL (       7 calls)
     sum_band     :      0.02s CPU      0.02s WALL (       7 calls)
     v_of_rho     :      0.01s CPU      0.01s WALL (       7 calls)
     newd         :      0.01s CPU      0.01s WALL (       7 calls)
     PAW_pot      :      0.17s CPU      0.22s WALL (       7 calls)
     mix_rho      :      0.00s CPU      0.00s WALL (       7 calls)

     Called by c_bands:
     init_us_2    :      0.00s CPU      0.00s WALL (      68 calls)
     cegterg      :      0.06s CPU      0.07s WALL (      28 calls)

     Called by sum_band:
     sum_band:bec :      0.00s CPU      0.00s WALL (      28 calls)
     addusdens    :      0.00s CPU      0.00s WALL (       7 calls)

     Called by *egterg:
     h_psi        :      0.05s CPU      0.06s WALL (      94 calls)
     s_psi        :      0.00s CPU      0.00s WALL (      94 calls)
     g_psi        :      0.00s CPU      0.00s WALL (      62 calls)
     cdiaghg      :      0.01s CPU      0.01s WALL (      86 calls)

     Called by h_psi:
     h_psi:pot    :      0.05s CPU      0.06s WALL (      94 calls)
     h_psi:calbec :      0.00s CPU      0.00s WALL (      94 calls)
     vloc_psi     :      0.04s CPU      0.05s WALL (      94 calls)
     add_vuspsi   :      0.00s CPU      0.00s WALL (      94 calls)

     General routines
     calbec       :      0.00s CPU      0.00s WALL (     142 calls)
     fft          :      0.01s CPU      0.01s WALL (     104 calls)
     ffts         :      0.00s CPU      0.00s WALL (       7 calls)
     fftw         :      0.05s CPU      0.06s WALL (    1044 calls)

     Parallel routines
     fft_scatt_xy :      0.00s CPU      0.01s WALL (    1155 calls)
     fft_scatt_yz :      0.02s CPU      0.03s WALL (    1155 calls)

     PWSCF        :     0.80s CPU         0.89s WALL


   This run was terminated on:  19:57:33  25Mar2024            

=------------------------------------------------------------------------------=
   JOB DONE.
=------------------------------------------------------------------------------=
