
     Program PWSCF v.6.3MaX starts on 25Mar2024 at 20: 7:40 

     This program is part of the open-source Quantum ESPRESSO suite
     for quantum simulation of materials; please cite
         "P. Giannozzi et al., J. Phys.:Condens. Matter 21 395502 (2009);
         "P. Giannozzi et al., J. Phys.:Condens. Matter 29 465901 (2017);
          URL http://www.quantum-espresso.org", 
     in publications or presentations arising from this work. More details at
     http://www.quantum-espresso.org/quote

     Parallel version (MPI), running on     5 processors

     MPI processes distributed on     1 nodes
     R & G space division:  proc/nbgrp/npool/nimage =       5
     Waiting for input...
     Reading input from standard input

     Current dimensions of program PWSCF are:
     Max number of different atomic species (ntypx) = 10
     Max number of k-points (npk) =  40000
     Max angular momentum in pseudopotentials (lmaxx) =  3

     Subspace diagonalization in iterative solution of the eigenvalue problem:
     a serial algorithm will be used


     Parallelization info
     --------------------
     sticks:   dense  smooth     PW     G-vecs:    dense   smooth      PW
     Min         111     111     33                 1758     1758     294
     Max         112     112     35                 1761     1761     295
     Sum         559     559    169                 8801     8801    1471



     bravais-lattice index     =            2
     lattice parameter (alat)  =       7.6500  a.u.
     unit-cell volume          =     111.9243 (a.u.)^3
     number of atoms/cell      =            1
     number of atomic types    =            1
     number of electrons       =         3.00
     number of Kohn-Sham states=            6
     kinetic-energy cutoff     =      70.0000  Ry
     charge density cutoff     =     280.0000  Ry
     convergence threshold     =      1.0E-08
     mixing beta               =       0.7000
     number of iterations used =            8  plain     mixing
     Exchange-correlation      = PBE ( 1  4  3  4 0 0)

     celldm(1)=   7.650000  celldm(2)=   0.000000  celldm(3)=   0.000000
     celldm(4)=   0.000000  celldm(5)=   0.000000  celldm(6)=   0.000000

     crystal axes: (cart. coord. in units of alat)
               a(1) = (  -0.500000   0.000000   0.500000 )  
               a(2) = (   0.000000   0.500000   0.500000 )  
               a(3) = (  -0.500000   0.500000   0.000000 )  

     reciprocal axes: (cart. coord. in units 2 pi/alat)
               b(1) = ( -1.000000 -1.000000  1.000000 )  
               b(2) = (  1.000000  1.000000  1.000000 )  
               b(3) = ( -1.000000  1.000000 -1.000000 )  


     PseudoPot. # 1 for Al read from file:
     /home/lorenzo/pseudos/Al/Al.pbe-nl-rrkjus_psl.1.0.0.UPF
     MD5 check sum: 6db8691240a1c860ce6448702d298c4b
     Pseudo is Ultrasoft + core correction, Zval =  3.0
     Generated using "atomic" code by A. Dal Corso v.6.3
     Using radial grid of 1135 points,  4 beta functions with: 
                l(1) =   0
                l(2) =   0
                l(3) =   1
                l(4) =   1
     Q(r) pseudized with 0 coefficients 


     atomic species   valence    mass     pseudopotential
        Al             3.00    26.98150     Al( 1.00)

     48 Sym. Ops., with inversion, found



   Cartesian axes

     site n.     atom                  positions (alat units)
         1           Al  tau(   1) = (   0.0000000   0.0000000   0.0000000  )

     number of k points=    20  gaussian smearing, width (Ry)=  0.0100
                       cart. coord. in units 2pi/alat
        k(    1) = (   0.0000000   0.0000000   0.0000000), wk =   0.0058309
        k(    2) = (  -0.1428571   0.1428571  -0.1428571), wk =   0.0466472
        k(    3) = (  -0.2857143   0.2857143  -0.2857143), wk =   0.0466472
        k(    4) = (  -0.4285714   0.4285714  -0.4285714), wk =   0.0466472
        k(    5) = (   0.0000000   0.2857143   0.0000000), wk =   0.0349854
        k(    6) = (  -0.1428571   0.4285714  -0.1428571), wk =   0.1399417
        k(    7) = (  -0.2857143   0.5714286  -0.2857143), wk =   0.1399417
        k(    8) = (   0.5714286  -0.2857143   0.5714286), wk =   0.1399417
        k(    9) = (   0.4285714  -0.1428571   0.4285714), wk =   0.1399417
        k(   10) = (   0.2857143  -0.0000000   0.2857143), wk =   0.0699708
        k(   11) = (   0.0000000   0.5714286   0.0000000), wk =   0.0349854
        k(   12) = (  -0.1428571   0.7142857  -0.1428571), wk =   0.1399417
        k(   13) = (   0.7142857  -0.1428571   0.7142857), wk =   0.1399417
        k(   14) = (   0.5714286   0.0000000   0.5714286), wk =   0.0699708
        k(   15) = (   0.0000000   0.8571429   0.0000000), wk =   0.0349854
        k(   16) = (   0.8571429  -0.0000000   0.8571429), wk =   0.0699708
        k(   17) = (  -0.2857143   0.5714286   0.0000000), wk =   0.1399417
        k(   18) = (   0.5714286  -0.2857143   0.8571429), wk =   0.2798834
        k(   19) = (   0.7142857  -0.1428571   1.0000000), wk =   0.1399417
        k(   20) = (   0.5714286   0.0000000   0.8571429), wk =   0.1399417

     Dense  grid:     8801 G-vectors     FFT dimensions: (  30,  30,  30)

     Estimated max dynamical RAM per process >       3.36 MB

     Estimated total dynamical RAM >      16.81 MB

     Initial potential from superposition of free atoms

     starting charge    2.99771, renormalised to    3.00000
     Starting wfcs are    4 randomized atomic wfcs +    2 random wfcs

     total cpu time spent up to now is        0.5 secs

     Self-consistent Calculation

     iteration #  1     ecut=    70.00 Ry     beta= 0.70
     Davidson diagonalization with overlap
     ethr =  1.00E-02,  avg # of iterations =  5.0

     Threshold (ethr) on eigenvalues was too large:
     Diagonalizing with lowered threshold

     Davidson diagonalization with overlap
     ethr =  1.96E-04,  avg # of iterations =  1.9

     total cpu time spent up to now is        0.9 secs

     total energy              =      -5.04231285 Ry
     Harris-Foulkes estimate   =      -5.04366990 Ry
     estimated scf accuracy    <       0.00578085 Ry

     iteration #  2     ecut=    70.00 Ry     beta= 0.70
     Davidson diagonalization with overlap
     ethr =  1.93E-04,  avg # of iterations =  1.0

     total cpu time spent up to now is        1.0 secs

     total energy              =      -5.04230339 Ry
     Harris-Foulkes estimate   =      -5.04239378 Ry
     estimated scf accuracy    <       0.00041381 Ry

     iteration #  3     ecut=    70.00 Ry     beta= 0.70
     Davidson diagonalization with overlap
     ethr =  1.38E-05,  avg # of iterations =  1.7

     total cpu time spent up to now is        1.1 secs

     total energy              =      -5.04232379 Ry
     Harris-Foulkes estimate   =      -5.04232389 Ry
     estimated scf accuracy    <       0.00000137 Ry

     iteration #  4     ecut=    70.00 Ry     beta= 0.70
     Davidson diagonalization with overlap
     ethr =  4.56E-08,  avg # of iterations =  3.2

     total cpu time spent up to now is        1.3 secs

     total energy              =      -5.04232565 Ry
     Harris-Foulkes estimate   =      -5.04232564 Ry
     estimated scf accuracy    <       0.00000006 Ry

     iteration #  5     ecut=    70.00 Ry     beta= 0.70
     Davidson diagonalization with overlap
     ethr =  2.05E-09,  avg # of iterations =  1.1

     total cpu time spent up to now is        1.4 secs

     End of self-consistent calculation

          k = 0.0000 0.0000 0.0000 (  1067 PWs)   bands (ev):

    -3.2492  20.4398  20.4398  21.8752  21.8752  21.8752

          k =-0.1429 0.1429-0.1429 (  1104 PWs)   bands (ev):

    -2.6971  15.4244  19.3372  19.3372  22.4574  23.6711

          k =-0.2857 0.2857-0.2857 (  1095 PWs)   bands (ev):

    -1.0535   9.9907  18.6195  18.6195  21.9241  22.1126

          k =-0.4286 0.4286-0.4286 (  1113 PWs)   bands (ev):

     1.6455   5.3559  18.8007  18.8007  19.9144  19.9144

          k = 0.0000 0.2857 0.0000 (  1110 PWs)   bands (ev):

    -2.5135  17.3309  17.3309  17.5604  20.4527  21.5149

          k =-0.1429 0.4286-0.1429 (  1105 PWs)   bands (ev):

    -1.2352  12.1248  16.2474  17.7906  18.1890  22.0503

          k =-0.2857 0.5714-0.2857 (  1105 PWs)   bands (ev):

     1.1090   7.2524  15.6911  16.1026  17.8404  23.8408

          k = 0.5714-0.2857 0.5714 (  1114 PWs)   bands (ev):

     3.2343   4.4835  14.2091  16.8996  18.7356  22.4605

          k = 0.4286-0.1429 0.4286 (  1110 PWs)   bands (ev):

     0.2122   8.7674  13.7389  18.6323  20.5843  21.9682

          k = 0.2857-0.0000 0.2857 (  1115 PWs)   bands (ev):

    -1.7817  13.4209  14.7359  21.1936  21.8668  23.2129

          k = 0.0000 0.5714 0.0000 (  1094 PWs)   bands (ev):

    -0.3295  14.3840  14.7455  14.8306  14.8306  18.3154

          k =-0.1429 0.7143-0.1429 (  1104 PWs)   bands (ev):

     1.6405  10.0750  11.5531  14.3632  15.8535  20.3387

          k = 0.7143-0.1429 0.7143 (  1108 PWs)   bands (ev):

     4.6015   5.8698   9.7138  14.8413  16.5522  24.8823

          k = 0.5714 0.0000 0.5714 (  1117 PWs)   bands (ev):

     2.5322   7.9886   9.4764  16.2662  18.1535  26.4319

          k = 0.0000 0.8571 0.0000 (  1110 PWs)   bands (ev):

     3.2102   8.3029  13.2995  13.5763  13.5763  17.0342

          k = 0.8571-0.0000 0.8571 (  1110 PWs)   bands (ev):

     5.2764   6.6073   9.4324  13.7354  15.1551  19.7256

          k =-0.2857 0.5714 0.0000 (  1105 PWs)   bands (ev):

     0.3914  10.7080  12.1418  15.0851  20.1788  21.8867

          k = 0.5714-0.2857 0.8571 (  1112 PWs)   bands (ev):

     3.0583   6.7028  11.7058  12.9564  21.0774  22.3426

          k = 0.7143-0.1429 1.0000 (  1103 PWs)   bands (ev):

     3.9109   8.9580   9.3484  10.8966  18.8774  20.8088

          k = 0.5714 0.0000 0.8571 (  1104 PWs)   bands (ev):

     5.9830   6.6313   8.0698  11.1232  20.4969  24.8937

     the Fermi energy is     7.9586 ev

!    total energy              =      -5.04232565 Ry
     Harris-Foulkes estimate   =      -5.04232565 Ry
     estimated scf accuracy    <          4.5E-09 Ry

     The total energy is the sum of the following terms:

     one-electron contribution =       2.93377855 Ry
     hartree contribution      =       0.00649973 Ry
     xc contribution           =      -2.58825809 Ry
     ewald contribution        =      -5.39395538 Ry
     smearing contrib. (-TS)   =      -0.00039046 Ry

     convergence has been achieved in   5 iterations

     Forces acting on atoms (cartesian axes, Ry/au):

     atom    1 type  1   force =     0.00000000    0.00000000    0.00000000

     Total force =     0.000000     Total SCF correction =     0.000000


     Computing stress (Cartesian axis) and pressure

          total   stress  (Ry/bohr**3)                   (kbar)     P=   -9.01
  -0.00006124   0.00000000   0.00000000         -9.01      0.00      0.00
   0.00000000  -0.00006124  -0.00000000          0.00     -9.01     -0.00
   0.00000000  -0.00000000  -0.00006124          0.00     -0.00     -9.01


     Writing output data file Al.save/

     init_run     :      0.14s CPU      0.15s WALL (       1 calls)
     electrons    :      0.78s CPU      0.82s WALL (       1 calls)
     forces       :      0.02s CPU      0.02s WALL (       1 calls)
     stress       :      0.06s CPU      0.06s WALL (       1 calls)

     Called by init_run:
     wfcinit      :      0.05s CPU      0.05s WALL (       1 calls)
     potinit      :      0.01s CPU      0.01s WALL (       1 calls)
     hinit0       :      0.08s CPU      0.08s WALL (       1 calls)

     Called by electrons:
     c_bands      :      0.61s CPU      0.63s WALL (       6 calls)
     sum_band     :      0.14s CPU      0.15s WALL (       6 calls)
     v_of_rho     :      0.03s CPU      0.03s WALL (       6 calls)
     newd         :      0.01s CPU      0.01s WALL (       6 calls)
     mix_rho      :      0.00s CPU      0.00s WALL (       6 calls)

     Called by c_bands:
     init_us_2    :      0.02s CPU      0.02s WALL (     300 calls)
     cegterg      :      0.58s CPU      0.61s WALL (     120 calls)

     Called by sum_band:
     sum_band:bec :      0.00s CPU      0.00s WALL (     120 calls)
     addusdens    :      0.01s CPU      0.01s WALL (       6 calls)

     Called by *egterg:
     h_psi        :      0.51s CPU      0.53s WALL (     417 calls)
     s_psi        :      0.01s CPU      0.01s WALL (     417 calls)
     g_psi        :      0.00s CPU      0.00s WALL (     277 calls)
     cdiaghg      :      0.04s CPU      0.04s WALL (     377 calls)

     Called by h_psi:
     h_psi:pot    :      0.51s CPU      0.53s WALL (     417 calls)
     h_psi:calbec :      0.02s CPU      0.02s WALL (     417 calls)
     vloc_psi     :      0.48s CPU      0.50s WALL (     417 calls)
     add_vuspsi   :      0.01s CPU      0.01s WALL (     417 calls)

     General routines
     calbec       :      0.03s CPU      0.03s WALL (     637 calls)
     fft          :      0.02s CPU      0.02s WALL (      93 calls)
     ffts         :      0.00s CPU      0.00s WALL (       6 calls)
     fftw         :      0.55s CPU      0.57s WALL (    4588 calls)

     Parallel routines
     fft_scatt_xy :      0.05s CPU      0.05s WALL (    4687 calls)
     fft_scatt_yz :      0.15s CPU      0.15s WALL (    4687 calls)

     PWSCF        :     1.42s CPU         1.51s WALL


   This run was terminated on:  20: 7:42  25Mar2024            

=------------------------------------------------------------------------------=
   JOB DONE.
=------------------------------------------------------------------------------=
