
     Program PWSCF v.6.3MaX starts on 25Mar2024 at 20: 3:53 

     This program is part of the open-source Quantum ESPRESSO suite
     for quantum simulation of materials; please cite
         "P. Giannozzi et al., J. Phys.:Condens. Matter 21 395502 (2009);
         "P. Giannozzi et al., J. Phys.:Condens. Matter 29 465901 (2017);
          URL http://www.quantum-espresso.org", 
     in publications or presentations arising from this work. More details at
     http://www.quantum-espresso.org/quote

     Parallel version (MPI), running on     5 processors

     MPI processes distributed on     1 nodes
     R & G space division:  proc/nbgrp/npool/nimage =       5
     Waiting for input...
     Reading input from standard input

     Current dimensions of program PWSCF are:
     Max number of different atomic species (ntypx) = 10
     Max number of k-points (npk) =  40000
     Max angular momentum in pseudopotentials (lmaxx) =  3
               file Al.pbe-nl-kjpaw_psl.1.0.0.UPF: wavefunction(s)  3S 3P renormalized

     Subspace diagonalization in iterative solution of the eigenvalue problem:
     a serial algorithm will be used


     Parallelization info
     --------------------
     sticks:   dense  smooth     PW     G-vecs:    dense   smooth      PW
     Min          87      87     30                 1236     1236     227
     Max          89      89     31                 1238     1238     228
     Sum         439     439    151                 6183     6183    1139



     bravais-lattice index     =            2
     lattice parameter (alat)  =       7.6500  a.u.
     unit-cell volume          =     111.9243 (a.u.)^3
     number of atoms/cell      =            1
     number of atomic types    =            1
     number of electrons       =         3.00
     number of Kohn-Sham states=            6
     kinetic-energy cutoff     =      55.0000  Ry
     charge density cutoff     =     220.0000  Ry
     convergence threshold     =      1.0E-08
     mixing beta               =       0.7000
     number of iterations used =            8  plain     mixing
     Exchange-correlation      = SLA PW PBX PBC ( 1  4  3  4 0 0)

     celldm(1)=   7.650000  celldm(2)=   0.000000  celldm(3)=   0.000000
     celldm(4)=   0.000000  celldm(5)=   0.000000  celldm(6)=   0.000000

     crystal axes: (cart. coord. in units of alat)
               a(1) = (  -0.500000   0.000000   0.500000 )  
               a(2) = (   0.000000   0.500000   0.500000 )  
               a(3) = (  -0.500000   0.500000   0.000000 )  

     reciprocal axes: (cart. coord. in units 2 pi/alat)
               b(1) = ( -1.000000 -1.000000  1.000000 )  
               b(2) = (  1.000000  1.000000  1.000000 )  
               b(3) = ( -1.000000  1.000000 -1.000000 )  


     PseudoPot. # 1 for Al read from file:
     /home/lorenzo/pseudos/Al/Al.pbe-nl-kjpaw_psl.1.0.0.UPF
     MD5 check sum: 8cf6d98cc7ef3f4b729b574060f3a10f
     Pseudo is Projector augmented-wave + core cor, Zval =  3.0
     Generated using "atomic" code by A. Dal Corso v.6.3
     Shape of augmentation charge: PSQ
     Using radial grid of 1135 points,  4 beta functions with: 
                l(1) =   0
                l(2) =   0
                l(3) =   1
                l(4) =   1
     Q(r) pseudized with 0 coefficients 


     atomic species   valence    mass     pseudopotential
        Al             3.00    26.98150     Al( 1.00)

     48 Sym. Ops., with inversion, found



   Cartesian axes

     site n.     atom                  positions (alat units)
         1           Al  tau(   1) = (   0.0000000   0.0000000   0.0000000  )

     number of k points=    35  gaussian smearing, width (Ry)=  0.0100
                       cart. coord. in units 2pi/alat
        k(    1) = (   0.0000000   0.0000000   0.0000000), wk =   0.0027435
        k(    2) = (  -0.1111111   0.1111111  -0.1111111), wk =   0.0219479
        k(    3) = (  -0.2222222   0.2222222  -0.2222222), wk =   0.0219479
        k(    4) = (  -0.3333333   0.3333333  -0.3333333), wk =   0.0219479
        k(    5) = (  -0.4444444   0.4444444  -0.4444444), wk =   0.0219479
        k(    6) = (   0.0000000   0.2222222   0.0000000), wk =   0.0164609
        k(    7) = (  -0.1111111   0.3333333  -0.1111111), wk =   0.0658436
        k(    8) = (  -0.2222222   0.4444444  -0.2222222), wk =   0.0658436
        k(    9) = (  -0.3333333   0.5555556  -0.3333333), wk =   0.0658436
        k(   10) = (   0.5555556  -0.3333333   0.5555556), wk =   0.0658436
        k(   11) = (   0.4444444  -0.2222222   0.4444444), wk =   0.0658436
        k(   12) = (   0.3333333  -0.1111111   0.3333333), wk =   0.0658436
        k(   13) = (   0.2222222  -0.0000000   0.2222222), wk =   0.0329218
        k(   14) = (   0.0000000   0.4444444   0.0000000), wk =   0.0164609
        k(   15) = (  -0.1111111   0.5555556  -0.1111111), wk =   0.0658436
        k(   16) = (  -0.2222222   0.6666667  -0.2222222), wk =   0.0658436
        k(   17) = (   0.6666667  -0.2222222   0.6666667), wk =   0.0658436
        k(   18) = (   0.5555556  -0.1111111   0.5555556), wk =   0.0658436
        k(   19) = (   0.4444444   0.0000000   0.4444444), wk =   0.0329218
        k(   20) = (   0.0000000   0.6666667   0.0000000), wk =   0.0164609
        k(   21) = (  -0.1111111   0.7777778  -0.1111111), wk =   0.0658436
        k(   22) = (   0.7777778  -0.1111111   0.7777778), wk =   0.0658436
        k(   23) = (   0.6666667  -0.0000000   0.6666667), wk =   0.0329218
        k(   24) = (   0.0000000   0.8888889   0.0000000), wk =   0.0164609
        k(   25) = (   0.8888889   0.0000000   0.8888889), wk =   0.0329218
        k(   26) = (  -0.2222222   0.4444444   0.0000000), wk =   0.0658436
        k(   27) = (  -0.3333333   0.5555556  -0.1111111), wk =   0.1316872
        k(   28) = (   0.5555556  -0.3333333   0.7777778), wk =   0.1316872
        k(   29) = (  -0.2222222   0.6666667   0.0000000), wk =   0.0658436
        k(   30) = (   0.6666667  -0.2222222   0.8888889), wk =   0.1316872
        k(   31) = (   0.5555556  -0.1111111   0.7777778), wk =   0.1316872
        k(   32) = (   0.4444444   0.0000000   0.6666667), wk =   0.0658436
        k(   33) = (   0.7777778  -0.1111111   1.0000000), wk =   0.0658436
        k(   34) = (   0.6666667  -0.0000000   0.8888889), wk =   0.0658436
        k(   35) = (   0.5555556  -0.1111111   1.0000000), wk =   0.0658436

     Dense  grid:     6183 G-vectors     FFT dimensions: (  25,  25,  25)

     Estimated max dynamical RAM per process >       2.61 MB

     Estimated total dynamical RAM >      13.06 MB

     Initial potential from superposition of free atoms

     starting charge    2.99771, renormalised to    3.00000
     Starting wfcs are    4 randomized atomic wfcs +    2 random wfcs
     Checking if some PAW data can be deallocated... 

     total cpu time spent up to now is        0.6 secs

     Self-consistent Calculation

     iteration #  1     ecut=    55.00 Ry     beta= 0.70
     Davidson diagonalization with overlap
     ethr =  1.00E-02,  avg # of iterations =  4.9

     Threshold (ethr) on eigenvalues was too large:
     Diagonalizing with lowered threshold

     Davidson diagonalization with overlap
     ethr =  1.91E-04,  avg # of iterations =  1.9

     total cpu time spent up to now is        1.2 secs

     total energy              =     -39.50066516 Ry
     Harris-Foulkes estimate   =     -39.50213050 Ry
     estimated scf accuracy    <       0.00565745 Ry

     iteration #  2     ecut=    55.00 Ry     beta= 0.70
     Davidson diagonalization with overlap
     ethr =  1.89E-04,  avg # of iterations =  1.0

     total cpu time spent up to now is        1.4 secs

     total energy              =     -39.50065781 Ry
     Harris-Foulkes estimate   =     -39.50075241 Ry
     estimated scf accuracy    <       0.00039378 Ry

     iteration #  3     ecut=    55.00 Ry     beta= 0.70
     Davidson diagonalization with overlap
     ethr =  1.31E-05,  avg # of iterations =  1.9

     total cpu time spent up to now is        1.6 secs

     total energy              =     -39.50067797 Ry
     Harris-Foulkes estimate   =     -39.50067853 Ry
     estimated scf accuracy    <       0.00000142 Ry

     iteration #  4     ecut=    55.00 Ry     beta= 0.70
     Davidson diagonalization with overlap
     ethr =  4.74E-08,  avg # of iterations =  3.2

     total cpu time spent up to now is        1.8 secs

     total energy              =     -39.50068011 Ry
     Harris-Foulkes estimate   =     -39.50068009 Ry
     estimated scf accuracy    <       0.00000010 Ry

     iteration #  5     ecut=    55.00 Ry     beta= 0.70
     Davidson diagonalization with overlap
     ethr =  3.30E-09,  avg # of iterations =  1.1

     total cpu time spent up to now is        2.0 secs

     total energy              =     -39.50068011 Ry
     Harris-Foulkes estimate   =     -39.50068011 Ry
     estimated scf accuracy    <       0.00000001 Ry

     iteration #  6     ecut=    55.00 Ry     beta= 0.70
     Davidson diagonalization with overlap
     ethr =  4.43E-10,  avg # of iterations =  1.0

     total cpu time spent up to now is        2.2 secs

     End of self-consistent calculation

          k = 0.0000 0.0000 0.0000 (   749 PWs)   bands (ev):

    -3.2515  20.4397  20.4397  21.8767  21.8767  21.8767

          k =-0.1111 0.1111-0.1111 (   773 PWs)   bands (ev):

    -2.9172  16.7046  19.6059  19.6060  22.5382  23.1959

          k =-0.2222 0.2222-0.2222 (   784 PWs)   bands (ev):

    -1.9190  12.3211  18.8322  18.8322  22.2132  23.0430

          k =-0.3333 0.3333-0.3333 (   769 PWs)   bands (ev):

    -0.2703   8.3470  18.5784  18.5784  21.1610  21.1610

          k =-0.4444 0.4444-0.4444 (   772 PWs)   bands (ev):

     2.0065   4.8964  18.8784  18.8784  19.7465  19.7465

          k = 0.0000 0.2222 0.0000 (   769 PWs)   bands (ev):

    -2.8060  18.0480  18.0480  18.3336  20.9337  23.1558

          k =-0.1111 0.3333-0.1111 (   779 PWs)   bands (ev):

    -2.0296  13.9610  17.0253  18.4895  20.3889  21.8949

          k =-0.2222 0.4444-0.2222 (   782 PWs)   bands (ev):

    -0.5987   9.8767  16.5643  18.0993  18.2952  24.2394

          k =-0.3333 0.5556-0.3333 (   780 PWs)   bands (ev):

     1.4674   6.2607  16.5038  16.6701  18.3854  22.7029

          k = 0.5556-0.3333 0.5556 (   770 PWs)   bands (ev):

     3.1775   4.1599  15.4144  17.3446  19.1240  21.6710

          k = 0.4444-0.2222 0.4444 (   774 PWs)   bands (ev):

     0.7099   7.4027  14.9204  18.5837  20.4391  21.1877

          k = 0.3333-0.1111 0.3333 (   779 PWs)   bands (ev):

    -1.1473  11.1668  15.0444  20.3378  21.2613  22.2781

          k = 0.2222-0.0000 0.2222 (   777 PWs)   bands (ev):

    -2.3618  14.9853  16.1335  21.3041  22.1228  23.3241

          k = 0.0000 0.4444 0.0000 (   785 PWs)   bands (ev):

    -1.4776  15.7911  15.7911  15.8388  17.4515  19.2113

          k =-0.1111 0.5556-0.1111 (   776 PWs)   bands (ev):

    -0.2709  11.9287  14.9571  15.1304  16.5774  20.2205

          k =-0.2222 0.6667-0.2222 (   773 PWs)   bands (ev):

     1.5730   8.2174  13.0478  15.0412  16.7128  23.2284

          k = 0.6667-0.2222 0.6667 (   766 PWs)   bands (ev):

     4.0141   5.0064  11.7377  15.5235  17.3031  25.0093

          k = 0.5556-0.1111 0.5556 (   773 PWs)   bands (ev):

     2.3278   7.0372  11.0783  16.5776  18.4762  24.3528

          k = 0.4444 0.0000 0.4444 (   774 PWs)   bands (ev):

     0.2749  10.0695  11.5569  18.1991  20.1994  23.8738

          k = 0.0000 0.6667 0.0000 (   769 PWs)   bands (ev):

     0.7074  12.2189  14.1040  14.2739  14.2739  17.7576

          k =-0.1111 0.7778-0.1111 (   772 PWs)   bands (ev):

     2.3183  10.0329  10.7466  13.9911  15.3274  19.1233

          k = 0.7778-0.1111 0.7778 (   764 PWs)   bands (ev):

     4.5107   7.3579   8.6104  14.2800  15.8861  22.5491

          k = 0.6667-0.0000 0.6667 (   776 PWs)   bands (ev):

     4.5561   6.7822   8.2374  15.1417  16.9047  26.4510

          k = 0.0000 0.8889 0.0000 (   769 PWs)   bands (ev):

     3.6688   7.7163  13.2270  13.5153  13.5153  16.9650

          k = 0.8889 0.0000 0.8889 (   768 PWs)   bands (ev):

     5.1430   6.4679  10.3050  13.6115  14.9041  18.7426

          k =-0.2222 0.4444 0.0000 (   772 PWs)   bands (ev):

    -1.0375  12.5362  13.8743  17.8351  19.8524  21.6280

          k =-0.3333 0.5556-0.1111 (   776 PWs)   bands (ev):

     0.6007   9.1096  13.0762  15.7695  20.2893  22.9735

          k = 0.5556-0.3333 0.7778 (   770 PWs)   bands (ev):

     2.8609   5.7272  13.3083  14.2989  20.6674  21.6656

          k =-0.2222 0.6667 0.0000 (   766 PWs)   bands (ev):

     1.1408  10.8937  12.1465  12.8094  18.2928  20.3225

          k = 0.6667-0.2222 0.8889 (   766 PWs)   bands (ev):

     3.1732   7.8600  10.8639  11.9575  19.1787  22.9976

          k = 0.5556-0.1111 0.7778 (   769 PWs)   bands (ev):

     4.8565   5.7948   9.8269  12.5800  19.9924  24.1986

          k = 0.4444 0.0000 0.6667 (   774 PWs)   bands (ev):

     2.4333   8.4251   9.9050  13.8772  21.2747  23.1355

          k = 0.7778-0.1111 1.0000 (   762 PWs)   bands (ev):

     4.0909   8.1269  10.0708  11.5390  17.4905  19.6023

          k = 0.6667-0.0000 0.8889 (   762 PWs)   bands (ev):

     5.9621   7.1575   7.6394  11.5069  18.7894  22.6843

          k = 0.5556-0.1111 1.0000 (   765 PWs)   bands (ev):

     5.3487   7.6034   8.8592   9.6732  22.3826  23.3948

     the Fermi energy is     7.8203 ev

!    total energy              =     -39.50068011 Ry
     Harris-Foulkes estimate   =     -39.50068011 Ry
     estimated scf accuracy    <          2.0E-10 Ry

     total all-electron energy =      -485.643461 Ry

     The total energy is the sum of the following terms:

     one-electron contribution =       3.15295045 Ry
     hartree contribution      =       0.00630213 Ry
     xc contribution           =      -2.58833665 Ry
     ewald contribution        =      -5.39395539 Ry
     one-center paw contrib.   =     -34.67722600 Ry
     smearing contrib. (-TS)   =      -0.00041465 Ry

     convergence has been achieved in   6 iterations

     Forces acting on atoms (cartesian axes, Ry/au):

     atom    1 type  1   force =     0.00000000    0.00000000    0.00000000

     Total force =     0.000000     Total SCF correction =     0.000000


     Computing stress (Cartesian axis) and pressure

          total   stress  (Ry/bohr**3)                   (kbar)     P=   -1.70
  -0.00001158  -0.00000000  -0.00000000         -1.70     -0.00     -0.00
  -0.00000000  -0.00001158   0.00000000         -0.00     -1.70      0.00
  -0.00000000   0.00000000  -0.00001158         -0.00      0.00     -1.70


     Writing output data file Al.save/

     init_run     :      0.16s CPU      0.17s WALL (       1 calls)
     electrons    :      1.50s CPU      1.61s WALL (       1 calls)
     forces       :      0.02s CPU      0.02s WALL (       1 calls)
     stress       :      0.06s CPU      0.06s WALL (       1 calls)

     Called by init_run:
     wfcinit      :      0.05s CPU      0.05s WALL (       1 calls)
     potinit      :      0.03s CPU      0.04s WALL (       1 calls)
     hinit0       :      0.07s CPU      0.08s WALL (       1 calls)

     Called by electrons:
     c_bands      :      1.11s CPU      1.19s WALL (       7 calls)
     sum_band     :      0.20s CPU      0.21s WALL (       7 calls)
     v_of_rho     :      0.02s CPU      0.03s WALL (       7 calls)
     newd         :      0.01s CPU      0.01s WALL (       7 calls)
     PAW_pot      :      0.17s CPU      0.21s WALL (       7 calls)
     mix_rho      :      0.00s CPU      0.00s WALL (       7 calls)

     Called by c_bands:
     init_us_2    :      0.03s CPU      0.04s WALL (     595 calls)
     cegterg      :      1.07s CPU      1.14s WALL (     245 calls)

     Called by sum_band:
     sum_band:bec :      0.00s CPU      0.00s WALL (     245 calls)
     addusdens    :      0.01s CPU      0.01s WALL (       7 calls)

     Called by *egterg:
     h_psi        :      0.90s CPU      0.95s WALL (     808 calls)
     s_psi        :      0.01s CPU      0.01s WALL (     808 calls)
     g_psi        :      0.00s CPU      0.00s WALL (     528 calls)
     cdiaghg      :      0.07s CPU      0.08s WALL (     738 calls)

     Called by h_psi:
     h_psi:pot    :      0.89s CPU      0.95s WALL (     808 calls)
     h_psi:calbec :      0.04s CPU      0.04s WALL (     808 calls)
     vloc_psi     :      0.84s CPU      0.89s WALL (     808 calls)
     add_vuspsi   :      0.01s CPU      0.01s WALL (     808 calls)

     General routines
     calbec       :      0.06s CPU      0.06s WALL (    1228 calls)
     fft          :      0.02s CPU      0.02s WALL (     104 calls)
     ffts         :      0.00s CPU      0.00s WALL (       7 calls)
     fftw         :      0.94s CPU      1.00s WALL (    9122 calls)

     Parallel routines
     fft_scatt_xy :      0.06s CPU      0.07s WALL (    9233 calls)
     fft_scatt_yz :      0.35s CPU      0.37s WALL (    9233 calls)

     PWSCF        :     2.17s CPU         2.35s WALL


   This run was terminated on:  20: 3:56  25Mar2024            

=------------------------------------------------------------------------------=
   JOB DONE.
=------------------------------------------------------------------------------=
