
     Program PWSCF v.6.3MaX starts on 25Mar2024 at 19:57: 3 

     This program is part of the open-source Quantum ESPRESSO suite
     for quantum simulation of materials; please cite
         "P. Giannozzi et al., J. Phys.:Condens. Matter 21 395502 (2009);
         "P. Giannozzi et al., J. Phys.:Condens. Matter 29 465901 (2017);
          URL http://www.quantum-espresso.org", 
     in publications or presentations arising from this work. More details at
     http://www.quantum-espresso.org/quote

     Parallel version (MPI), running on     5 processors

     MPI processes distributed on     1 nodes
     R & G space division:  proc/nbgrp/npool/nimage =       5
     Waiting for input...
     Reading input from standard input

     Current dimensions of program PWSCF are:
     Max number of different atomic species (ntypx) = 10
     Max number of k-points (npk) =  40000
     Max angular momentum in pseudopotentials (lmaxx) =  3
               file Al.pbe-nl-kjpaw_psl.1.0.0.UPF: wavefunction(s)  3S 3P renormalized

     Subspace diagonalization in iterative solution of the eigenvalue problem:
     a serial algorithm will be used


     Parallelization info
     --------------------
     sticks:   dense  smooth     PW     G-vecs:    dense   smooth      PW
     Min          39      39     14                  381      381      82
     Max          40      40     15                  384      384      83
     Sum         199     199     73                 1917     1917     411



     bravais-lattice index     =            2
     lattice parameter (alat)  =       7.6500  a.u.
     unit-cell volume          =     111.9243 (a.u.)^3
     number of atoms/cell      =            1
     number of atomic types    =            1
     number of electrons       =         3.00
     number of Kohn-Sham states=            6
     kinetic-energy cutoff     =      25.0000  Ry
     charge density cutoff     =     100.0000  Ry
     convergence threshold     =      1.0E-08
     mixing beta               =       0.7000
     number of iterations used =            8  plain     mixing
     Exchange-correlation      = SLA PW PBX PBC ( 1  4  3  4 0 0)

     celldm(1)=   7.650000  celldm(2)=   0.000000  celldm(3)=   0.000000
     celldm(4)=   0.000000  celldm(5)=   0.000000  celldm(6)=   0.000000

     crystal axes: (cart. coord. in units of alat)
               a(1) = (  -0.500000   0.000000   0.500000 )  
               a(2) = (   0.000000   0.500000   0.500000 )  
               a(3) = (  -0.500000   0.500000   0.000000 )  

     reciprocal axes: (cart. coord. in units 2 pi/alat)
               b(1) = ( -1.000000 -1.000000  1.000000 )  
               b(2) = (  1.000000  1.000000  1.000000 )  
               b(3) = ( -1.000000  1.000000 -1.000000 )  


     PseudoPot. # 1 for Al read from file:
     /home/lorenzo/pseudos/Al/Al.pbe-nl-kjpaw_psl.1.0.0.UPF
     MD5 check sum: 8cf6d98cc7ef3f4b729b574060f3a10f
     Pseudo is Projector augmented-wave + core cor, Zval =  3.0
     Generated using "atomic" code by A. Dal Corso v.6.3
     Shape of augmentation charge: PSQ
     Using radial grid of 1135 points,  4 beta functions with: 
                l(1) =   0
                l(2) =   0
                l(3) =   1
                l(4) =   1
     Q(r) pseudized with 0 coefficients 


     atomic species   valence    mass     pseudopotential
        Al             3.00    26.98150     Al( 1.00)

     48 Sym. Ops., with inversion, found



   Cartesian axes

     site n.     atom                  positions (alat units)
         1           Al  tau(   1) = (   0.0000000   0.0000000   0.0000000  )

     number of k points=    35  gaussian smearing, width (Ry)=  0.0100
                       cart. coord. in units 2pi/alat
        k(    1) = (   0.0000000   0.0000000   0.0000000), wk =   0.0027435
        k(    2) = (  -0.1111111   0.1111111  -0.1111111), wk =   0.0219479
        k(    3) = (  -0.2222222   0.2222222  -0.2222222), wk =   0.0219479
        k(    4) = (  -0.3333333   0.3333333  -0.3333333), wk =   0.0219479
        k(    5) = (  -0.4444444   0.4444444  -0.4444444), wk =   0.0219479
        k(    6) = (   0.0000000   0.2222222   0.0000000), wk =   0.0164609
        k(    7) = (  -0.1111111   0.3333333  -0.1111111), wk =   0.0658436
        k(    8) = (  -0.2222222   0.4444444  -0.2222222), wk =   0.0658436
        k(    9) = (  -0.3333333   0.5555556  -0.3333333), wk =   0.0658436
        k(   10) = (   0.5555556  -0.3333333   0.5555556), wk =   0.0658436
        k(   11) = (   0.4444444  -0.2222222   0.4444444), wk =   0.0658436
        k(   12) = (   0.3333333  -0.1111111   0.3333333), wk =   0.0658436
        k(   13) = (   0.2222222  -0.0000000   0.2222222), wk =   0.0329218
        k(   14) = (   0.0000000   0.4444444   0.0000000), wk =   0.0164609
        k(   15) = (  -0.1111111   0.5555556  -0.1111111), wk =   0.0658436
        k(   16) = (  -0.2222222   0.6666667  -0.2222222), wk =   0.0658436
        k(   17) = (   0.6666667  -0.2222222   0.6666667), wk =   0.0658436
        k(   18) = (   0.5555556  -0.1111111   0.5555556), wk =   0.0658436
        k(   19) = (   0.4444444   0.0000000   0.4444444), wk =   0.0329218
        k(   20) = (   0.0000000   0.6666667   0.0000000), wk =   0.0164609
        k(   21) = (  -0.1111111   0.7777778  -0.1111111), wk =   0.0658436
        k(   22) = (   0.7777778  -0.1111111   0.7777778), wk =   0.0658436
        k(   23) = (   0.6666667  -0.0000000   0.6666667), wk =   0.0329218
        k(   24) = (   0.0000000   0.8888889   0.0000000), wk =   0.0164609
        k(   25) = (   0.8888889   0.0000000   0.8888889), wk =   0.0329218
        k(   26) = (  -0.2222222   0.4444444   0.0000000), wk =   0.0658436
        k(   27) = (  -0.3333333   0.5555556  -0.1111111), wk =   0.1316872
        k(   28) = (   0.5555556  -0.3333333   0.7777778), wk =   0.1316872
        k(   29) = (  -0.2222222   0.6666667   0.0000000), wk =   0.0658436
        k(   30) = (   0.6666667  -0.2222222   0.8888889), wk =   0.1316872
        k(   31) = (   0.5555556  -0.1111111   0.7777778), wk =   0.1316872
        k(   32) = (   0.4444444   0.0000000   0.6666667), wk =   0.0658436
        k(   33) = (   0.7777778  -0.1111111   1.0000000), wk =   0.0658436
        k(   34) = (   0.6666667  -0.0000000   0.8888889), wk =   0.0658436
        k(   35) = (   0.5555556  -0.1111111   1.0000000), wk =   0.0658436

     Dense  grid:     1917 G-vectors     FFT dimensions: (  18,  18,  18)

     Estimated max dynamical RAM per process >       0.98 MB

     Estimated total dynamical RAM >       4.89 MB

     Initial potential from superposition of free atoms

     starting charge    2.99771, renormalised to    3.00000
     Starting wfcs are    4 randomized atomic wfcs +    2 random wfcs
     Checking if some PAW data can be deallocated... 

     total cpu time spent up to now is        0.5 secs

     Self-consistent Calculation

     iteration #  1     ecut=    25.00 Ry     beta= 0.70
     Davidson diagonalization with overlap
     ethr =  1.00E-02,  avg # of iterations =  4.8

     Threshold (ethr) on eigenvalues was too large:
     Diagonalizing with lowered threshold

     Davidson diagonalization with overlap
     ethr =  1.90E-04,  avg # of iterations =  1.9

     total cpu time spent up to now is        0.7 secs

     total energy              =     -39.50030818 Ry
     Harris-Foulkes estimate   =     -39.50178107 Ry
     estimated scf accuracy    <       0.00565835 Ry

     iteration #  2     ecut=    25.00 Ry     beta= 0.70
     Davidson diagonalization with overlap
     ethr =  1.89E-04,  avg # of iterations =  1.0

     total cpu time spent up to now is        0.8 secs

     total energy              =     -39.50030018 Ry
     Harris-Foulkes estimate   =     -39.50039606 Ry
     estimated scf accuracy    <       0.00039502 Ry

     iteration #  3     ecut=    25.00 Ry     beta= 0.70
     Davidson diagonalization with overlap
     ethr =  1.32E-05,  avg # of iterations =  1.9

     total cpu time spent up to now is        0.9 secs

     total energy              =     -39.50032145 Ry
     Harris-Foulkes estimate   =     -39.50032207 Ry
     estimated scf accuracy    <       0.00000153 Ry

     iteration #  4     ecut=    25.00 Ry     beta= 0.70
     Davidson diagonalization with overlap
     ethr =  5.11E-08,  avg # of iterations =  3.1

     total cpu time spent up to now is        1.1 secs

     total energy              =     -39.50032346 Ry
     Harris-Foulkes estimate   =     -39.50032345 Ry
     estimated scf accuracy    <       0.00000012 Ry

     iteration #  5     ecut=    25.00 Ry     beta= 0.70
     Davidson diagonalization with overlap
     ethr =  4.02E-09,  avg # of iterations =  1.0

     total cpu time spent up to now is        1.2 secs

     total energy              =     -39.50032345 Ry
     Harris-Foulkes estimate   =     -39.50032347 Ry
     estimated scf accuracy    <       0.00000005 Ry

     iteration #  6     ecut=    25.00 Ry     beta= 0.70
     Davidson diagonalization with overlap
     ethr =  1.83E-09,  avg # of iterations =  1.0

     total cpu time spent up to now is        1.3 secs

     End of self-consistent calculation

          k = 0.0000 0.0000 0.0000 (   259 PWs)   bands (ev):

    -3.2509  20.4667  20.4667  21.8780  21.8780  21.8780

          k =-0.1111 0.1111-0.1111 (   250 PWs)   bands (ev):

    -2.9166  16.7180  19.6246  19.6246  22.5485  23.2114

          k =-0.2222 0.2222-0.2222 (   244 PWs)   bands (ev):

    -1.9182  12.3294  18.8468  18.8468  22.2280  23.0720

          k =-0.3333 0.3333-0.3333 (   232 PWs)   bands (ev):

    -0.2693   8.3511  18.5944  18.5944  21.1880  21.1880

          k =-0.4444 0.4444-0.4444 (   241 PWs)   bands (ev):

     2.0077   4.8985  18.8911  18.8911  19.7646  19.7646

          k = 0.0000 0.2222 0.0000 (   242 PWs)   bands (ev):

    -2.8053  18.0645  18.0645  18.3552  20.9359  23.1977

          k =-0.1111 0.3333-0.1111 (   235 PWs)   bands (ev):

    -2.0288  13.9726  17.0376  18.5083  20.4078  21.9111

          k =-0.2222 0.4444-0.2222 (   233 PWs)   bands (ev):

    -0.5977   9.8829  16.5742  18.1239  18.3047  24.3516

          k =-0.3333 0.5556-0.3333 (   239 PWs)   bands (ev):

     1.4685   6.2633  16.5160  16.6791  18.4010  22.7314

          k = 0.5556-0.3333 0.5556 (   239 PWs)   bands (ev):

     3.1788   4.1619  15.4237  17.3552  19.1402  21.6973

          k = 0.4444-0.2222 0.4444 (   240 PWs)   bands (ev):

     0.7109   7.4060  14.9295  18.5964  20.4565  21.2119

          k = 0.3333-0.1111 0.3333 (   237 PWs)   bands (ev):

    -1.1465  11.1748  15.0534  20.3535  21.2928  22.3016

          k = 0.2222-0.0000 0.2222 (   245 PWs)   bands (ev):

    -2.3611  14.9993  16.1419  21.3351  22.1271  23.3656

          k = 0.0000 0.4444 0.0000 (   234 PWs)   bands (ev):

    -1.4768  15.8001  15.8001  15.8606  17.4665  19.2171

          k =-0.1111 0.5556-0.1111 (   233 PWs)   bands (ev):

    -0.2700  11.9372  14.9682  15.1371  16.5928  20.2328

          k =-0.2222 0.6667-0.2222 (   238 PWs)   bands (ev):

     1.5741   8.2212  13.0557  15.0463  16.7293  23.2509

          k = 0.6667-0.2222 0.6667 (   239 PWs)   bands (ev):

     4.0156   5.0085  11.7441  15.5293  17.3196  25.0477

          k = 0.5556-0.1111 0.5556 (   236 PWs)   bands (ev):

     2.3290   7.0405  11.0842  16.5857  18.4942  24.3909

          k = 0.4444 0.0000 0.4444 (   234 PWs)   bands (ev):

     0.2759  10.0765  11.5616  18.2127  20.2178  23.9289

          k = 0.0000 0.6667 0.0000 (   238 PWs)   bands (ev):

     0.7084  12.2257  14.1227  14.2776  14.2776  17.7653

          k =-0.1111 0.7778-0.1111 (   233 PWs)   bands (ev):

     2.3195  10.0389  10.7530  13.9939  15.3438  19.1348

          k = 0.7778-0.1111 0.7778 (   233 PWs)   bands (ev):

     4.5124   7.3617   8.6147  14.2836  15.9030  22.5713

          k = 0.6667-0.0000 0.6667 (   236 PWs)   bands (ev):

     4.5578   6.7849   8.2415  15.1469  16.9208  26.4884

          k = 0.0000 0.8889 0.0000 (   230 PWs)   bands (ev):

     3.6700   7.7207  13.2506  13.5168  13.5168  16.9754

          k = 0.8889 0.0000 0.8889 (   230 PWs)   bands (ev):

     5.1443   6.4732  10.3108  13.6133  14.9213  18.7558

          k =-0.2222 0.4444 0.0000 (   233 PWs)   bands (ev):

    -1.0366  12.5477  13.8807  17.8494  19.8764  21.6391

          k =-0.3333 0.5556-0.1111 (   238 PWs)   bands (ev):

     0.6018   9.1142  13.0835  15.7793  20.3087  22.9964

          k = 0.5556-0.3333 0.7778 (   238 PWs)   bands (ev):

     2.8622   5.7297  13.3166  14.3058  20.6845  21.6925

          k =-0.2222 0.6667 0.0000 (   231 PWs)   bands (ev):

     1.1419  10.9022  12.1546  12.8132  18.3132  20.3333

          k = 0.6667-0.2222 0.8889 (   235 PWs)   bands (ev):

     3.1745   7.8638  10.8708  11.9615  19.1975  23.0189

          k = 0.5556-0.1111 0.7778 (   237 PWs)   bands (ev):

     4.8583   5.7973   9.8318  12.5858  20.0114  24.2310

          k = 0.4444 0.0000 0.6667 (   239 PWs)   bands (ev):

     2.4345   8.4291   9.9091  13.8844  21.2937  23.1691

          k = 0.7778-0.1111 1.0000 (   234 PWs)   bands (ev):

     4.0926   8.1316  10.0774  11.5416  17.5070  19.6146

          k = 0.6667-0.0000 0.8889 (   232 PWs)   bands (ev):

     5.9639   7.1626   7.6427  11.5119  18.8076  22.7067

          k = 0.5556-0.1111 1.0000 (   241 PWs)   bands (ev):

     5.3509   7.6065   8.8649   9.6751  22.4080  23.4092

     the Fermi energy is     7.8242 ev

!    total energy              =     -39.50032345 Ry
     Harris-Foulkes estimate   =     -39.50032345 Ry
     estimated scf accuracy    <          9.6E-11 Ry

     total all-electron energy =      -485.643104 Ry

     The total energy is the sum of the following terms:

     one-electron contribution =       3.15356684 Ry
     hartree contribution      =       0.00630179 Ry
     xc contribution           =      -2.58835400 Ry
     ewald contribution        =      -5.39395546 Ry
     one-center paw contrib.   =     -34.67746844 Ry
     smearing contrib. (-TS)   =      -0.00041417 Ry

     convergence has been achieved in   6 iterations

     Forces acting on atoms (cartesian axes, Ry/au):

     atom    1 type  1   force =     0.00000000    0.00000000    0.00000000

     Total force =     0.000000     Total SCF correction =     0.000000


     Computing stress (Cartesian axis) and pressure

          total   stress  (Ry/bohr**3)                   (kbar)     P=   -2.32
  -0.00001574   0.00000000   0.00000000         -2.32      0.00      0.00
   0.00000000  -0.00001574  -0.00000000          0.00     -2.32     -0.00
   0.00000000  -0.00000000  -0.00001574          0.00     -0.00     -2.32


     Writing output data file Al.save/

     init_run     :      0.10s CPU      0.11s WALL (       1 calls)
     electrons    :      0.73s CPU      0.82s WALL (       1 calls)
     forces       :      0.01s CPU      0.01s WALL (       1 calls)
     stress       :      0.03s CPU      0.03s WALL (       1 calls)

     Called by init_run:
     wfcinit      :      0.02s CPU      0.03s WALL (       1 calls)
     potinit      :      0.02s CPU      0.03s WALL (       1 calls)
     hinit0       :      0.05s CPU      0.05s WALL (       1 calls)

     Called by electrons:
     c_bands      :      0.46s CPU      0.50s WALL (       7 calls)
     sum_band     :      0.08s CPU      0.09s WALL (       7 calls)
     v_of_rho     :      0.01s CPU      0.01s WALL (       7 calls)
     newd         :      0.00s CPU      0.00s WALL (       7 calls)
     PAW_pot      :      0.18s CPU      0.22s WALL (       7 calls)
     mix_rho      :      0.00s CPU      0.00s WALL (       7 calls)

     Called by c_bands:
     init_us_2    :      0.01s CPU      0.01s WALL (     595 calls)
     cegterg      :      0.45s CPU      0.49s WALL (     245 calls)

     Called by sum_band:
     sum_band:bec :      0.00s CPU      0.00s WALL (     245 calls)
     addusdens    :      0.00s CPU      0.00s WALL (       7 calls)

     Called by *egterg:
     h_psi        :      0.35s CPU      0.38s WALL (     794 calls)
     s_psi        :      0.00s CPU      0.01s WALL (     794 calls)
     g_psi        :      0.00s CPU      0.00s WALL (     514 calls)
     cdiaghg      :      0.06s CPU      0.06s WALL (     724 calls)

     Called by h_psi:
     h_psi:pot    :      0.34s CPU      0.38s WALL (     794 calls)
     h_psi:calbec :      0.02s CPU      0.02s WALL (     794 calls)
     vloc_psi     :      0.32s CPU      0.35s WALL (     794 calls)
     add_vuspsi   :      0.00s CPU      0.01s WALL (     794 calls)

     General routines
     calbec       :      0.03s CPU      0.03s WALL (    1214 calls)
     fft          :      0.01s CPU      0.01s WALL (     104 calls)
     ffts         :      0.00s CPU      0.00s WALL (       7 calls)
     fftw         :      0.35s CPU      0.39s WALL (    9024 calls)

     Parallel routines
     fft_scatt_xy :      0.03s CPU      0.03s WALL (    9135 calls)
     fft_scatt_yz :      0.13s CPU      0.15s WALL (    9135 calls)

     PWSCF        :     1.29s CPU         1.46s WALL


   This run was terminated on:  19:57: 4  25Mar2024            

=------------------------------------------------------------------------------=
   JOB DONE.
=------------------------------------------------------------------------------=
