
     Program PWSCF v.6.3MaX starts on 25Mar2024 at 19:57:46 

     This program is part of the open-source Quantum ESPRESSO suite
     for quantum simulation of materials; please cite
         "P. Giannozzi et al., J. Phys.:Condens. Matter 21 395502 (2009);
         "P. Giannozzi et al., J. Phys.:Condens. Matter 29 465901 (2017);
          URL http://www.quantum-espresso.org", 
     in publications or presentations arising from this work. More details at
     http://www.quantum-espresso.org/quote

     Parallel version (MPI), running on     5 processors

     MPI processes distributed on     1 nodes
     R & G space division:  proc/nbgrp/npool/nimage =       5
     Waiting for input...
     Reading input from standard input

     Current dimensions of program PWSCF are:
     Max number of different atomic species (ntypx) = 10
     Max number of k-points (npk) =  40000
     Max angular momentum in pseudopotentials (lmaxx) =  3
               file Al.pbe-nl-kjpaw_psl.1.0.0.UPF: wavefunction(s)  3S 3P renormalized

     Subspace diagonalization in iterative solution of the eigenvalue problem:
     a serial algorithm will be used


     Parallelization info
     --------------------
     sticks:   dense  smooth     PW     G-vecs:    dense   smooth      PW
     Min          48      48     17                  488      488     106
     Max          49      49     17                  491      491     107
     Sum         241     241     85                 2445     2445     531



     bravais-lattice index     =            2
     lattice parameter (alat)  =       7.6500  a.u.
     unit-cell volume          =     111.9243 (a.u.)^3
     number of atoms/cell      =            1
     number of atomic types    =            1
     number of electrons       =         3.00
     number of Kohn-Sham states=            6
     kinetic-energy cutoff     =      30.0000  Ry
     charge density cutoff     =     120.0000  Ry
     convergence threshold     =      1.0E-08
     mixing beta               =       0.7000
     number of iterations used =            8  plain     mixing
     Exchange-correlation      = SLA PW PBX PBC ( 1  4  3  4 0 0)

     celldm(1)=   7.650000  celldm(2)=   0.000000  celldm(3)=   0.000000
     celldm(4)=   0.000000  celldm(5)=   0.000000  celldm(6)=   0.000000

     crystal axes: (cart. coord. in units of alat)
               a(1) = (  -0.500000   0.000000   0.500000 )  
               a(2) = (   0.000000   0.500000   0.500000 )  
               a(3) = (  -0.500000   0.500000   0.000000 )  

     reciprocal axes: (cart. coord. in units 2 pi/alat)
               b(1) = ( -1.000000 -1.000000  1.000000 )  
               b(2) = (  1.000000  1.000000  1.000000 )  
               b(3) = ( -1.000000  1.000000 -1.000000 )  


     PseudoPot. # 1 for Al read from file:
     /home/lorenzo/pseudos/Al/Al.pbe-nl-kjpaw_psl.1.0.0.UPF
     MD5 check sum: 8cf6d98cc7ef3f4b729b574060f3a10f
     Pseudo is Projector augmented-wave + core cor, Zval =  3.0
     Generated using "atomic" code by A. Dal Corso v.6.3
     Shape of augmentation charge: PSQ
     Using radial grid of 1135 points,  4 beta functions with: 
                l(1) =   0
                l(2) =   0
                l(3) =   1
                l(4) =   1
     Q(r) pseudized with 0 coefficients 


     atomic species   valence    mass     pseudopotential
        Al             3.00    26.98150     Al( 1.00)

     48 Sym. Ops., with inversion, found



   Cartesian axes

     site n.     atom                  positions (alat units)
         1           Al  tau(   1) = (   0.0000000   0.0000000   0.0000000  )

     number of k points=    16  gaussian smearing, width (Ry)=  0.0100
                       cart. coord. in units 2pi/alat
        k(    1) = (   0.0000000   0.0000000   0.0000000), wk =   0.0092593
        k(    2) = (  -0.1666667   0.1666667  -0.1666667), wk =   0.0740741
        k(    3) = (  -0.3333333   0.3333333  -0.3333333), wk =   0.0740741
        k(    4) = (   0.5000000  -0.5000000   0.5000000), wk =   0.0370370
        k(    5) = (   0.0000000   0.3333333   0.0000000), wk =   0.0555556
        k(    6) = (  -0.1666667   0.5000000  -0.1666667), wk =   0.2222222
        k(    7) = (   0.6666667  -0.3333333   0.6666667), wk =   0.2222222
        k(    8) = (   0.5000000  -0.1666667   0.5000000), wk =   0.2222222
        k(    9) = (   0.3333333   0.0000000   0.3333333), wk =   0.1111111
        k(   10) = (   0.0000000   0.6666667   0.0000000), wk =   0.0555556
        k(   11) = (   0.8333333  -0.1666667   0.8333333), wk =   0.2222222
        k(   12) = (   0.6666667  -0.0000000   0.6666667), wk =   0.1111111
        k(   13) = (   0.0000000  -1.0000000   0.0000000), wk =   0.0277778
        k(   14) = (   0.6666667  -0.3333333   1.0000000), wk =   0.2222222
        k(   15) = (   0.5000000  -0.1666667   0.8333333), wk =   0.2222222
        k(   16) = (  -0.3333333  -1.0000000   0.0000000), wk =   0.1111111

     Dense  grid:     2445 G-vectors     FFT dimensions: (  20,  20,  20)

     Estimated max dynamical RAM per process >       1.10 MB

     Estimated total dynamical RAM >       5.48 MB

     Initial potential from superposition of free atoms

     starting charge    2.99771, renormalised to    3.00000
     Starting wfcs are    4 randomized atomic wfcs +    2 random wfcs
     Checking if some PAW data can be deallocated... 

     total cpu time spent up to now is        0.6 secs

     Self-consistent Calculation

     iteration #  1     ecut=    30.00 Ry     beta= 0.70
     Davidson diagonalization with overlap
     ethr =  1.00E-02,  avg # of iterations =  4.6

     Threshold (ethr) on eigenvalues was too large:
     Diagonalizing with lowered threshold

     Davidson diagonalization with overlap
     ethr =  1.80E-04,  avg # of iterations =  2.1

     total cpu time spent up to now is        0.7 secs

     total energy              =     -39.50750255 Ry
     Harris-Foulkes estimate   =     -39.50899491 Ry
     estimated scf accuracy    <       0.00536086 Ry

     iteration #  2     ecut=    30.00 Ry     beta= 0.70
     Davidson diagonalization with overlap
     ethr =  1.79E-04,  avg # of iterations =  1.0

     total cpu time spent up to now is        0.8 secs

     total energy              =     -39.50749897 Ry
     Harris-Foulkes estimate   =     -39.50759286 Ry
     estimated scf accuracy    <       0.00036469 Ry

     iteration #  3     ecut=    30.00 Ry     beta= 0.70
     Davidson diagonalization with overlap
     ethr =  1.22E-05,  avg # of iterations =  1.9

     total cpu time spent up to now is        0.8 secs

     total energy              =     -39.50752016 Ry
     Harris-Foulkes estimate   =     -39.50752070 Ry
     estimated scf accuracy    <       0.00000150 Ry

     iteration #  4     ecut=    30.00 Ry     beta= 0.70
     Davidson diagonalization with overlap
     ethr =  5.01E-08,  avg # of iterations =  2.9

     total cpu time spent up to now is        0.9 secs

     total energy              =     -39.50752254 Ry
     Harris-Foulkes estimate   =     -39.50752253 Ry
     estimated scf accuracy    <       0.00000012 Ry

     iteration #  5     ecut=    30.00 Ry     beta= 0.70
     Davidson diagonalization with overlap
     ethr =  4.07E-09,  avg # of iterations =  1.1

     total cpu time spent up to now is        1.0 secs

     total energy              =     -39.50752254 Ry
     Harris-Foulkes estimate   =     -39.50752255 Ry
     estimated scf accuracy    <       0.00000001 Ry

     iteration #  6     ecut=    30.00 Ry     beta= 0.70
     Davidson diagonalization with overlap
     ethr =  4.05E-10,  avg # of iterations =  1.1

     total cpu time spent up to now is        1.0 secs

     End of self-consistent calculation

          k = 0.0000 0.0000 0.0000 (   331 PWs)   bands (ev):

    -3.2524  20.4460  20.4460  21.8767  21.8767  21.8767

          k =-0.1667 0.1667-0.1667 (   311 PWs)   bands (ev):

    -2.5014  14.4767  19.1644  19.1644  22.3828  23.8025

          k =-0.3333 0.3333-0.3333 (   308 PWs)   bands (ev):

    -0.2712   8.3469  18.5818  18.5818  21.1681  21.1681

          k = 0.5000-0.5000 0.5000 (   302 PWs)   bands (ev):

     3.2757   3.4789  19.1952  19.1952  19.3002  19.3002

          k = 0.0000 0.3333 0.0000 (   307 PWs)   bands (ev):

    -2.2519  16.8334  16.8334  17.0115  20.0598  20.3052

          k =-0.1667 0.5000-0.1667 (   313 PWs)   bands (ev):

    -0.5176  10.8462  15.7760  16.5120  17.4214  22.2986

          k = 0.6667-0.3333 0.6667 (   307 PWs)   bands (ev):

     2.6465   5.5244  14.0515  16.0027  17.7838  23.7739

          k = 0.5000-0.1667 0.5000 (   308 PWs)   bands (ev):

     1.4395   7.1515  12.9419  17.5131  19.4395  22.7106

          k = 0.3333 0.0000 0.3333 (   311 PWs)   bands (ev):

    -1.2582  12.3303  13.7275  20.2626  22.2822  22.3905

          k = 0.0000 0.6667 0.0000 (   315 PWs)   bands (ev):

     0.7065  12.2198  14.1061  14.2740  14.2740  17.7596

          k = 0.8333-0.1667 0.8333 (   311 PWs)   bands (ev):

     3.3479   8.8869   9.3471  14.0639  15.5753  20.7264

          k = 0.6667-0.0000 0.6667 (   309 PWs)   bands (ev):

     4.5557   6.7812   8.2382  15.1424  16.9076  26.4634

          k = 0.0000-1.0000 0.0000 (   302 PWs)   bands (ev):

     4.9368   6.2548  13.1192  13.4200  13.4200  16.8673

          k = 0.6667-0.3333 1.0000 (   311 PWs)   bands (ev):

     1.6800   9.5559  11.0054  13.2047  20.6363  22.2489

          k = 0.5000-0.1667 0.8333 (   312 PWs)   bands (ev):

     5.1278   5.3856  10.8538  11.4046  21.8214  22.3170

          k =-0.3333-1.0000 0.0000 (   308 PWs)   bands (ev):

     5.8583   7.2038   8.6305  10.1846  19.7494  21.5653

     the Fermi energy is     8.2060 ev

!    total energy              =     -39.50752254 Ry
     Harris-Foulkes estimate   =     -39.50752254 Ry
     estimated scf accuracy    <          3.8E-10 Ry

     total all-electron energy =      -485.650303 Ry

     The total energy is the sum of the following terms:

     one-electron contribution =       3.14731405 Ry
     hartree contribution      =       0.00562543 Ry
     xc contribution           =      -2.58820365 Ry
     ewald contribution        =      -5.39395543 Ry
     one-center paw contrib.   =     -34.67793500 Ry
     smearing contrib. (-TS)   =      -0.00036794 Ry

     convergence has been achieved in   6 iterations

     Forces acting on atoms (cartesian axes, Ry/au):

     atom    1 type  1   force =     0.00000000    0.00000000    0.00000000

     Total force =     0.000000     Total SCF correction =     0.000000


     Computing stress (Cartesian axis) and pressure

          total   stress  (Ry/bohr**3)                   (kbar)     P=   -0.54
  -0.00000365   0.00000000   0.00000000         -0.54      0.00      0.00
   0.00000000  -0.00000365  -0.00000000          0.00     -0.54     -0.00
   0.00000000  -0.00000000  -0.00000365          0.00     -0.00     -0.54


     Writing output data file Al.save/

     init_run     :      0.10s CPU      0.11s WALL (       1 calls)
     electrons    :      0.44s CPU      0.50s WALL (       1 calls)
     forces       :      0.01s CPU      0.01s WALL (       1 calls)
     stress       :      0.03s CPU      0.03s WALL (       1 calls)

     Called by init_run:
     wfcinit      :      0.02s CPU      0.02s WALL (       1 calls)
     potinit      :      0.03s CPU      0.03s WALL (       1 calls)
     hinit0       :      0.05s CPU      0.05s WALL (       1 calls)

     Called by electrons:
     c_bands      :      0.24s CPU      0.25s WALL (       7 calls)
     sum_band     :      0.05s CPU      0.05s WALL (       7 calls)
     v_of_rho     :      0.01s CPU      0.01s WALL (       7 calls)
     newd         :      0.00s CPU      0.01s WALL (       7 calls)
     PAW_pot      :      0.16s CPU      0.20s WALL (       7 calls)
     mix_rho      :      0.00s CPU      0.00s WALL (       7 calls)

     Called by c_bands:
     init_us_2    :      0.01s CPU      0.01s WALL (     272 calls)
     cegterg      :      0.23s CPU      0.24s WALL (     112 calls)

     Called by sum_band:
     sum_band:bec :      0.00s CPU      0.00s WALL (     112 calls)
     addusdens    :      0.00s CPU      0.00s WALL (       7 calls)

     Called by *egterg:
     h_psi        :      0.18s CPU      0.19s WALL (     362 calls)
     s_psi        :      0.00s CPU      0.00s WALL (     362 calls)
     g_psi        :      0.00s CPU      0.00s WALL (     234 calls)
     cdiaghg      :      0.03s CPU      0.03s WALL (     330 calls)

     Called by h_psi:
     h_psi:pot    :      0.18s CPU      0.19s WALL (     362 calls)
     h_psi:calbec :      0.01s CPU      0.01s WALL (     362 calls)
     vloc_psi     :      0.17s CPU      0.18s WALL (     362 calls)
     add_vuspsi   :      0.00s CPU      0.00s WALL (     362 calls)

     General routines
     calbec       :      0.01s CPU      0.01s WALL (     554 calls)
     fft          :      0.01s CPU      0.01s WALL (     104 calls)
     ffts         :      0.00s CPU      0.00s WALL (       7 calls)
     fftw         :      0.18s CPU      0.19s WALL (    4138 calls)

     Parallel routines
     fft_scatt_xy :      0.02s CPU      0.02s WALL (    4249 calls)
     fft_scatt_yz :      0.07s CPU      0.07s WALL (    4249 calls)

     PWSCF        :     1.06s CPU         1.17s WALL


   This run was terminated on:  19:57:47  25Mar2024            

=------------------------------------------------------------------------------=
   JOB DONE.
=------------------------------------------------------------------------------=
