
     Program PWSCF v.6.3MaX starts on 25Mar2024 at 20: 0:39 

     This program is part of the open-source Quantum ESPRESSO suite
     for quantum simulation of materials; please cite
         "P. Giannozzi et al., J. Phys.:Condens. Matter 21 395502 (2009);
         "P. Giannozzi et al., J. Phys.:Condens. Matter 29 465901 (2017);
          URL http://www.quantum-espresso.org", 
     in publications or presentations arising from this work. More details at
     http://www.quantum-espresso.org/quote

     Parallel version (MPI), running on     5 processors

     MPI processes distributed on     1 nodes
     R & G space division:  proc/nbgrp/npool/nimage =       5
     Waiting for input...
     Reading input from standard input

     Current dimensions of program PWSCF are:
     Max number of different atomic species (ntypx) = 10
     Max number of k-points (npk) =  40000
     Max angular momentum in pseudopotentials (lmaxx) =  3

     Subspace diagonalization in iterative solution of the eigenvalue problem:
     a serial algorithm will be used


     Parallelization info
     --------------------
     sticks:   dense  smooth     PW     G-vecs:    dense   smooth      PW
     Min          72      72     24                  914      914     178
     Max          73      73     25                  916      916     181
     Sum         361     361    121                 4573     4573     893



     bravais-lattice index     =            2
     lattice parameter (alat)  =       7.6500  a.u.
     unit-cell volume          =     111.9243 (a.u.)^3
     number of atoms/cell      =            1
     number of atomic types    =            1
     number of electrons       =         3.00
     number of Kohn-Sham states=            6
     kinetic-energy cutoff     =      45.0000  Ry
     charge density cutoff     =     180.0000  Ry
     convergence threshold     =      1.0E-08
     mixing beta               =       0.7000
     number of iterations used =            8  plain     mixing
     Exchange-correlation      = PBE ( 1  4  3  4 0 0)

     celldm(1)=   7.650000  celldm(2)=   0.000000  celldm(3)=   0.000000
     celldm(4)=   0.000000  celldm(5)=   0.000000  celldm(6)=   0.000000

     crystal axes: (cart. coord. in units of alat)
               a(1) = (  -0.500000   0.000000   0.500000 )  
               a(2) = (   0.000000   0.500000   0.500000 )  
               a(3) = (  -0.500000   0.500000   0.000000 )  

     reciprocal axes: (cart. coord. in units 2 pi/alat)
               b(1) = ( -1.000000 -1.000000  1.000000 )  
               b(2) = (  1.000000  1.000000  1.000000 )  
               b(3) = ( -1.000000  1.000000 -1.000000 )  


     PseudoPot. # 1 for Al read from file:
     /home/lorenzo/pseudos/Al/Al.pbe-nl-rrkjus_psl.1.0.0.UPF
     MD5 check sum: 6db8691240a1c860ce6448702d298c4b
     Pseudo is Ultrasoft + core correction, Zval =  3.0
     Generated using "atomic" code by A. Dal Corso v.6.3
     Using radial grid of 1135 points,  4 beta functions with: 
                l(1) =   0
                l(2) =   0
                l(3) =   1
                l(4) =   1
     Q(r) pseudized with 0 coefficients 


     atomic species   valence    mass     pseudopotential
        Al             3.00    26.98150     Al( 1.00)

     48 Sym. Ops., with inversion, found



   Cartesian axes

     site n.     atom                  positions (alat units)
         1           Al  tau(   1) = (   0.0000000   0.0000000   0.0000000  )

     number of k points=    56  gaussian smearing, width (Ry)=  0.0100
                       cart. coord. in units 2pi/alat
        k(    1) = (   0.0000000   0.0000000   0.0000000), wk =   0.0015026
        k(    2) = (  -0.0909091   0.0909091  -0.0909091), wk =   0.0120210
        k(    3) = (  -0.1818182   0.1818182  -0.1818182), wk =   0.0120210
        k(    4) = (  -0.2727273   0.2727273  -0.2727273), wk =   0.0120210
        k(    5) = (  -0.3636364   0.3636364  -0.3636364), wk =   0.0120210
        k(    6) = (  -0.4545455   0.4545455  -0.4545455), wk =   0.0120210
        k(    7) = (   0.0000000   0.1818182   0.0000000), wk =   0.0090158
        k(    8) = (  -0.0909091   0.2727273  -0.0909091), wk =   0.0360631
        k(    9) = (  -0.1818182   0.3636364  -0.1818182), wk =   0.0360631
        k(   10) = (  -0.2727273   0.4545455  -0.2727273), wk =   0.0360631
        k(   11) = (  -0.3636364   0.5454545  -0.3636364), wk =   0.0360631
        k(   12) = (   0.5454545  -0.3636364   0.5454545), wk =   0.0360631
        k(   13) = (   0.4545455  -0.2727273   0.4545455), wk =   0.0360631
        k(   14) = (   0.3636364  -0.1818182   0.3636364), wk =   0.0360631
        k(   15) = (   0.2727273  -0.0909091   0.2727273), wk =   0.0360631
        k(   16) = (   0.1818182  -0.0000000   0.1818182), wk =   0.0180316
        k(   17) = (   0.0000000   0.3636364   0.0000000), wk =   0.0090158
        k(   18) = (  -0.0909091   0.4545455  -0.0909091), wk =   0.0360631
        k(   19) = (  -0.1818182   0.5454545  -0.1818182), wk =   0.0360631
        k(   20) = (  -0.2727273   0.6363636  -0.2727273), wk =   0.0360631
        k(   21) = (   0.6363636  -0.2727273   0.6363636), wk =   0.0360631
        k(   22) = (   0.5454545  -0.1818182   0.5454545), wk =   0.0360631
        k(   23) = (   0.4545455  -0.0909091   0.4545455), wk =   0.0360631
        k(   24) = (   0.3636364   0.0000000   0.3636364), wk =   0.0180316
        k(   25) = (   0.0000000   0.5454545   0.0000000), wk =   0.0090158
        k(   26) = (  -0.0909091   0.6363636  -0.0909091), wk =   0.0360631
        k(   27) = (  -0.1818182   0.7272727  -0.1818182), wk =   0.0360631
        k(   28) = (   0.7272727  -0.1818182   0.7272727), wk =   0.0360631
        k(   29) = (   0.6363636  -0.0909091   0.6363636), wk =   0.0360631
        k(   30) = (   0.5454545   0.0000000   0.5454545), wk =   0.0180316
        k(   31) = (   0.0000000   0.7272727   0.0000000), wk =   0.0090158
        k(   32) = (  -0.0909091   0.8181818  -0.0909091), wk =   0.0360631
        k(   33) = (   0.8181818  -0.0909091   0.8181818), wk =   0.0360631
        k(   34) = (   0.7272727   0.0000000   0.7272727), wk =   0.0180316
        k(   35) = (   0.0000000   0.9090909   0.0000000), wk =   0.0090158
        k(   36) = (   0.9090909  -0.0000000   0.9090909), wk =   0.0180316
        k(   37) = (  -0.1818182   0.3636364   0.0000000), wk =   0.0360631
        k(   38) = (  -0.2727273   0.4545455  -0.0909091), wk =   0.0721262
        k(   39) = (  -0.3636364   0.5454545  -0.1818182), wk =   0.0721262
        k(   40) = (   0.5454545  -0.3636364   0.7272727), wk =   0.0721262
        k(   41) = (  -0.1818182   0.5454545   0.0000000), wk =   0.0360631
        k(   42) = (  -0.2727273   0.6363636  -0.0909091), wk =   0.0721262
        k(   43) = (   0.6363636  -0.2727273   0.8181818), wk =   0.0721262
        k(   44) = (   0.5454545  -0.1818182   0.7272727), wk =   0.0721262
        k(   45) = (   0.4545455  -0.0909091   0.6363636), wk =   0.0721262
        k(   46) = (   0.3636364   0.0000000   0.5454545), wk =   0.0360631
        k(   47) = (  -0.1818182   0.7272727   0.0000000), wk =   0.0360631
        k(   48) = (   0.7272727  -0.1818182   0.9090909), wk =   0.0721262
        k(   49) = (   0.6363636  -0.0909091   0.8181818), wk =   0.0721262
        k(   50) = (   0.5454545   0.0000000   0.7272727), wk =   0.0360631
        k(   51) = (   0.8181818  -0.0909091   1.0000000), wk =   0.0360631
        k(   52) = (   0.7272727   0.0000000   0.9090909), wk =   0.0360631
        k(   53) = (   0.6363636  -0.2727273   1.0000000), wk =   0.0360631
        k(   54) = (   0.5454545  -0.1818182   0.9090909), wk =   0.0721262
        k(   55) = (   0.6363636  -0.0909091   1.0000000), wk =   0.0360631
        k(   56) = (   0.5454545   0.0000000   0.9090909), wk =   0.0360631

     Dense  grid:     4573 G-vectors     FFT dimensions: (  24,  24,  24)

     Estimated max dynamical RAM per process >       2.26 MB

     Estimated total dynamical RAM >      11.30 MB

     Initial potential from superposition of free atoms

     starting charge    2.99771, renormalised to    3.00000
     Starting wfcs are    4 randomized atomic wfcs +    2 random wfcs

     total cpu time spent up to now is        0.7 secs

     Self-consistent Calculation

     iteration #  1     ecut=    45.00 Ry     beta= 0.70
     Davidson diagonalization with overlap
     ethr =  1.00E-02,  avg # of iterations =  4.9

     Threshold (ethr) on eigenvalues was too large:
     Diagonalizing with lowered threshold

     Davidson diagonalization with overlap
     ethr =  1.89E-04,  avg # of iterations =  2.1

     total cpu time spent up to now is        1.6 secs

     total energy              =      -5.03949482 Ry
     Harris-Foulkes estimate   =      -5.04087672 Ry
     estimated scf accuracy    <       0.00561180 Ry

     iteration #  2     ecut=    45.00 Ry     beta= 0.70
     Davidson diagonalization with overlap
     ethr =  1.87E-04,  avg # of iterations =  1.0

     total cpu time spent up to now is        1.8 secs

     total energy              =      -5.03948335 Ry
     Harris-Foulkes estimate   =      -5.03957407 Ry
     estimated scf accuracy    <       0.00039430 Ry

     iteration #  3     ecut=    45.00 Ry     beta= 0.70
     Davidson diagonalization with overlap
     ethr =  1.31E-05,  avg # of iterations =  1.9

     total cpu time spent up to now is        2.0 secs

     total energy              =      -5.03950278 Ry
     Harris-Foulkes estimate   =      -5.03950281 Ry
     estimated scf accuracy    <       0.00000142 Ry

     iteration #  4     ecut=    45.00 Ry     beta= 0.70
     Davidson diagonalization with overlap
     ethr =  4.72E-08,  avg # of iterations =  2.9

     total cpu time spent up to now is        2.3 secs

     total energy              =      -5.03950484 Ry
     Harris-Foulkes estimate   =      -5.03950484 Ry
     estimated scf accuracy    <       0.00000008 Ry

     iteration #  5     ecut=    45.00 Ry     beta= 0.70
     Davidson diagonalization with overlap
     ethr =  2.70E-09,  avg # of iterations =  1.0

     total cpu time spent up to now is        2.5 secs

     total energy              =      -5.03950486 Ry
     Harris-Foulkes estimate   =      -5.03950484 Ry
     estimated scf accuracy    <       0.00000004 Ry

     iteration #  6     ecut=    45.00 Ry     beta= 0.70
     Davidson diagonalization with overlap
     ethr =  1.37E-09,  avg # of iterations =  1.0

     total cpu time spent up to now is        2.6 secs

     End of self-consistent calculation

          k = 0.0000 0.0000 0.0000 (   537 PWs)   bands (ev):

    -3.2503  20.4389  20.4389  21.8741  21.8742  21.8742

          k =-0.0909 0.0909-0.0909 (   555 PWs)   bands (ev):

    -3.0264  17.5196  19.7896  19.7896  22.5585  22.8597

          k =-0.1818 0.1818-0.1818 (   564 PWs)   bands (ev):

    -2.3571  13.8775  19.0562  19.0562  22.3309  23.6800

          k =-0.2727 0.2727-0.2727 (   573 PWs)   bands (ev):

    -1.2483  10.4537  18.6474  18.6474  22.1212  22.1453

          k =-0.3636 0.3636-0.3636 (   580 PWs)   bands (ev):

     0.2901   7.3509  18.6033  18.6033  20.7204  20.7204

          k =-0.4545 0.4545-0.4545 (   571 PWs)   bands (ev):

     2.2435   4.6110  18.9313  18.9313  19.6440  19.6441

          k = 0.0000 0.1818 0.0000 (   564 PWs)   bands (ev):

    -2.9519  18.5284  18.5284  18.8357  21.2099  24.2119

          k =-0.0909 0.2727-0.0909 (   564 PWs)   bands (ev):

    -2.4313  15.1989  17.6031  18.9465  21.5444  22.1780

          k =-0.1818 0.3636-0.1818 (   570 PWs)   bands (ev):

    -1.4694  11.7256  17.0472  18.6058  19.9092  23.6774

          k =-0.2727 0.4545-0.2727 (   575 PWs)   bands (ev):

    -0.0748   8.5250  16.8680  18.2679  18.5118  23.1830

          k =-0.3636 0.5455-0.3636 (   574 PWs)   bands (ev):

     1.7397   5.6678  17.0425  17.0680  18.7309  22.0098

          k = 0.5455-0.3636 0.5455 (   573 PWs)   bands (ev):

     3.1660   3.9796  16.1846  17.6481  19.3556  21.1890

          k = 0.4545-0.2727 0.4545 (   579 PWs)   bands (ev):

     1.0893   6.5778  15.7200  18.6054  20.3643  20.7389

          k = 0.3636-0.1818 0.3636 (   572 PWs)   bands (ev):

    -0.5870   9.5497  15.6544  19.9081  20.6803  21.7328

          k = 0.2727-0.0909 0.2727 (   568 PWs)   bands (ev):

    -1.8386  12.8303  16.0025  20.8271  21.6409  23.3334

          k = 0.1818-0.0000 0.1818 (   559 PWs)   bands (ev):

    -2.6542  16.0390  17.0397  21.0179  22.1779  23.2600

          k = 0.0000 0.3636 0.0000 (   572 PWs)   bands (ev):

    -2.0605  16.5273  16.5273  16.6692  19.4837  19.8524

          k =-0.0909 0.4545-0.0909 (   574 PWs)   bands (ev):

    -1.2484  13.3147  15.8334  17.1294  17.4029  20.3785

          k =-0.1818 0.5455-0.1818 (   571 PWs)   bands (ev):

    -0.0022  10.0778  15.5214  15.5231  17.1760  22.4977

          k =-0.2727 0.6364-0.2727 (   571 PWs)   bands (ev):

     1.6660   7.1295  14.1189  15.5912  17.3277  24.7332

          k = 0.6364-0.2727 0.6364 (   570 PWs)   bands (ev):

     3.7276   4.5487  13.1115  16.0432  17.8533  23.8148

          k = 0.5455-0.1818 0.5455 (   570 PWs)   bands (ev):

     2.3148   6.2100  12.5189  16.8774  18.7731  23.2470

          k = 0.4545-0.0909 0.4545 (   571 PWs)   bands (ev):

     0.5083   8.9967  12.3812  18.0905  20.0703  23.0235

          k = 0.3636 0.0000 0.3636 (   568 PWs)   bands (ev):

    -0.8806  11.6715  13.1066  19.6668  21.6902  22.7452

          k = 0.0000 0.5455 0.0000 (   568 PWs)   bands (ev):

    -0.5875  14.9456  14.9948  15.0059  15.0059  18.4853

          k =-0.0909 0.6364-0.0909 (   570 PWs)   bands (ev):

     0.5067  11.9381  13.0474  14.5629  15.8470  19.1960

          k =-0.1818 0.7273-0.1818 (   572 PWs)   bands (ev):

     2.0224   8.9633  11.4828  14.5028  16.0850  21.5770

          k = 0.7273-0.1818 0.7273 (   567 PWs)   bands (ev):

     3.9364   6.2873  10.3309  14.8255  16.5256  24.4962

          k = 0.6364-0.0909 0.6364 (   571 PWs)   bands (ev):

     3.9524   6.2185   9.6413  15.5314  17.3397  26.1131

          k = 0.5455 0.0000 0.5455 (   570 PWs)   bands (ev):

     2.0272   8.3690   9.8631  16.6207  18.5371  26.0413

          k = 0.0000 0.7273 0.0000 (   568 PWs)   bands (ev):

     1.4456  10.9085  13.7774  13.9899  13.9899  17.4696

          k =-0.0909 0.8182-0.0909 (   573 PWs)   bands (ev):

     2.7998   9.1843  11.1438  13.8005  15.0066  18.4403

          k = 0.8182-0.0909 0.8182 (   568 PWs)   bands (ev):

     4.5235   7.8586   8.5041  13.9938  15.5221  21.0946

          k = 0.7273 0.0000 0.7273 (   574 PWs)   bands (ev):

     5.9692   6.1704   7.6216  14.5704  16.2492  24.2906

          k = 0.0000 0.9091 0.0000 (   572 PWs)   bands (ev):

     3.9614   7.3597  13.1896  13.4821  13.4821  16.9339

          k = 0.9091-0.0000 0.9091 (   578 PWs)   bands (ev):

     5.0736   6.3990  10.8638  13.5465  14.7243  18.1814

          k =-0.1818 0.3636 0.0000 (   563 PWs)   bands (ev):

    -1.7647  13.8682  15.0872  19.6922  19.8020  21.6079

          k =-0.2727 0.4545-0.0909 (   570 PWs)   bands (ev):

    -0.6604  10.9211  14.2074  17.8254  20.0387  23.0924

          k =-0.3636 0.5455-0.1818 (   571 PWs)   bands (ev):

     0.8713   7.8855  14.0942  16.3142  20.1015  22.3438

          k = 0.5455-0.3636 0.7273 (   570 PWs)   bands (ev):

     2.8148   5.1714  14.3952  15.2076  20.4524  21.2781

          k =-0.1818 0.5455 0.0000 (   573 PWs)   bands (ev):

    -0.2946  12.2242  13.5116  15.3048  18.2587  20.3299

          k =-0.2727 0.6364-0.0909 (   572 PWs)   bands (ev):

     1.0875   9.5407  12.8220  13.6678  18.8087  22.1499

          k = 0.6364-0.2727 0.8182 (   569 PWs)   bands (ev):

     2.8829   6.7666  12.2460  13.1115  19.1610  23.9594

          k = 0.5455-0.1818 0.7273 (   569 PWs)   bands (ev):

     4.2922   5.0984  11.4168  13.6651  19.8101  23.2387

          k = 0.4545-0.0909 0.6364 (   564 PWs)   bands (ev):

     2.2420   7.6090  11.0150  14.6611  20.8069  22.7121

          k = 0.3636 0.0000 0.5455 (   572 PWs)   bands (ev):

     0.5807  10.0207  11.4990  16.0563  22.0146  22.0856

          k =-0.1818 0.7273 0.0000 (   574 PWs)   bands (ev):

     1.7343  11.1238  11.1453  12.5431  17.1884  19.3815

          k = 0.7273-0.1818 0.9091 (   571 PWs)   bands (ev):

     3.3701   8.6879   9.7735  12.1173  18.0218  21.4666

          k = 0.6364-0.0909 0.8182 (   567 PWs)   bands (ev):

     5.3527   6.2084   8.8003  12.5279  18.6501  24.4215

          k = 0.5455 0.0000 0.7273 (   566 PWs)   bands (ev):

     4.0214   7.2690   8.7350  13.3904  19.5672  25.2767

          k = 0.8182-0.0909 1.0000 (   575 PWs)   bands (ev):

     4.2429   7.6379  10.5726  11.9765  16.6481  18.8826

          k = 0.7273 0.0000 0.9091 (   572 PWs)   bands (ev):

     5.6218   6.9556   8.4722  11.8362  17.7551  21.2289

          k = 0.6364-0.2727 1.0000 (   567 PWs)   bands (ev):

     2.5968   8.9197  10.3587  12.1012  21.0100  22.5334

          k = 0.5455-0.1818 0.9091 (   566 PWs)   bands (ev):

     4.5021   6.7732  10.0983  11.0087  21.9372  22.8310

          k = 0.6364-0.0909 1.0000 (   568 PWs)   bands (ev):

     5.0841   8.3694   8.4252   9.9712  20.4850  22.1876

          k = 0.5455 0.0000 0.9091 (   578 PWs)   bands (ev):

     6.4654   6.7196   8.1274  10.0053  21.7285  24.5533

     the Fermi energy is     7.8628 ev

!    total energy              =      -5.03950486 Ry
     Harris-Foulkes estimate   =      -5.03950486 Ry
     estimated scf accuracy    <          3.3E-10 Ry

     The total energy is the sum of the following terms:

     one-electron contribution =       2.93676848 Ry
     hartree contribution      =       0.00608656 Ry
     xc contribution           =      -2.58808756 Ry
     ewald contribution        =      -5.39395545 Ry
     smearing contrib. (-TS)   =      -0.00031690 Ry

     convergence has been achieved in   6 iterations

     Forces acting on atoms (cartesian axes, Ry/au):

     atom    1 type  1   force =     0.00000000    0.00000000    0.00000000

     Total force =     0.000000     Total SCF correction =     0.000000


     Computing stress (Cartesian axis) and pressure

          total   stress  (Ry/bohr**3)                   (kbar)     P=   -4.12
  -0.00002799  -0.00000000  -0.00000000         -4.12     -0.00     -0.00
  -0.00000000  -0.00002799   0.00000000         -0.00     -4.12      0.00
  -0.00000000   0.00000000  -0.00002799         -0.00      0.00     -4.12


     Writing output data file Al.save/

     init_run     :      0.25s CPU      0.26s WALL (       1 calls)
     electrons    :      1.79s CPU      1.93s WALL (       1 calls)
     forces       :      0.03s CPU      0.03s WALL (       1 calls)
     stress       :      0.07s CPU      0.07s WALL (       1 calls)

     Called by init_run:
     wfcinit      :      0.15s CPU      0.15s WALL (       1 calls)
     potinit      :      0.01s CPU      0.01s WALL (       1 calls)
     hinit0       :      0.09s CPU      0.09s WALL (       1 calls)

     Called by electrons:
     c_bands      :      1.50s CPU      1.62s WALL (       7 calls)
     sum_band     :      0.26s CPU      0.28s WALL (       7 calls)
     v_of_rho     :      0.02s CPU      0.02s WALL (       7 calls)
     newd         :      0.01s CPU      0.01s WALL (       7 calls)
     mix_rho      :      0.00s CPU      0.00s WALL (       7 calls)

     Called by c_bands:
     init_us_2    :      0.04s CPU      0.04s WALL (     952 calls)
     cegterg      :      1.44s CPU      1.56s WALL (     392 calls)

     Called by sum_band:
     sum_band:bec :      0.00s CPU      0.00s WALL (     392 calls)
     addusdens    :      0.00s CPU      0.01s WALL (       7 calls)

     Called by *egterg:
     h_psi        :      1.22s CPU      1.32s WALL (    1280 calls)
     s_psi        :      0.02s CPU      0.02s WALL (    1280 calls)
     g_psi        :      0.00s CPU      0.00s WALL (     832 calls)
     cdiaghg      :      0.13s CPU      0.14s WALL (    1168 calls)

     Called by h_psi:
     h_psi:pot    :      1.22s CPU      1.31s WALL (    1280 calls)
     h_psi:calbec :      0.06s CPU      0.07s WALL (    1280 calls)
     vloc_psi     :      1.12s CPU      1.21s WALL (    1280 calls)
     add_vuspsi   :      0.02s CPU      0.03s WALL (    1280 calls)

     General routines
     calbec       :      0.10s CPU      0.10s WALL (    1952 calls)
     fft          :      0.02s CPU      0.02s WALL (     104 calls)
     ffts         :      0.00s CPU      0.00s WALL (       7 calls)
     fftw         :      1.25s CPU      1.33s WALL (   14544 calls)

     Parallel routines
     fft_scatt_xy :      0.09s CPU      0.10s WALL (   14655 calls)
     fft_scatt_yz :      0.56s CPU      0.60s WALL (   14655 calls)

     PWSCF        :     2.63s CPU         2.85s WALL


   This run was terminated on:  20: 0:41  25Mar2024            

=------------------------------------------------------------------------------=
   JOB DONE.
=------------------------------------------------------------------------------=
