
     Program PWSCF v.6.3MaX starts on 25Mar2024 at 19:58:43 

     This program is part of the open-source Quantum ESPRESSO suite
     for quantum simulation of materials; please cite
         "P. Giannozzi et al., J. Phys.:Condens. Matter 21 395502 (2009);
         "P. Giannozzi et al., J. Phys.:Condens. Matter 29 465901 (2017);
          URL http://www.quantum-espresso.org", 
     in publications or presentations arising from this work. More details at
     http://www.quantum-espresso.org/quote

     Parallel version (MPI), running on     5 processors

     MPI processes distributed on     1 nodes
     R & G space division:  proc/nbgrp/npool/nimage =       5
     Waiting for input...
     Reading input from standard input

     Current dimensions of program PWSCF are:
     Max number of different atomic species (ntypx) = 10
     Max number of k-points (npk) =  40000
     Max angular momentum in pseudopotentials (lmaxx) =  3
               file Al.pbe-nl-kjpaw_psl.1.0.0.UPF: wavefunction(s)  3S 3P renormalized

     Subspace diagonalization in iterative solution of the eigenvalue problem:
     a serial algorithm will be used


     Parallelization info
     --------------------
     sticks:   dense  smooth     PW     G-vecs:    dense   smooth      PW
     Min          56      56     18                  623      623     121
     Max          57      57     19                  625      625     123
     Sum         283     283     91                 3119     3119     609



     bravais-lattice index     =            2
     lattice parameter (alat)  =       7.6500  a.u.
     unit-cell volume          =     111.9243 (a.u.)^3
     number of atoms/cell      =            1
     number of atomic types    =            1
     number of electrons       =         3.00
     number of Kohn-Sham states=            6
     kinetic-energy cutoff     =      35.0000  Ry
     charge density cutoff     =     140.0000  Ry
     convergence threshold     =      1.0E-08
     mixing beta               =       0.7000
     number of iterations used =            8  plain     mixing
     Exchange-correlation      = SLA PW PBX PBC ( 1  4  3  4 0 0)

     celldm(1)=   7.650000  celldm(2)=   0.000000  celldm(3)=   0.000000
     celldm(4)=   0.000000  celldm(5)=   0.000000  celldm(6)=   0.000000

     crystal axes: (cart. coord. in units of alat)
               a(1) = (  -0.500000   0.000000   0.500000 )  
               a(2) = (   0.000000   0.500000   0.500000 )  
               a(3) = (  -0.500000   0.500000   0.000000 )  

     reciprocal axes: (cart. coord. in units 2 pi/alat)
               b(1) = ( -1.000000 -1.000000  1.000000 )  
               b(2) = (  1.000000  1.000000  1.000000 )  
               b(3) = ( -1.000000  1.000000 -1.000000 )  


     PseudoPot. # 1 for Al read from file:
     /home/lorenzo/pseudos/Al/Al.pbe-nl-kjpaw_psl.1.0.0.UPF
     MD5 check sum: 8cf6d98cc7ef3f4b729b574060f3a10f
     Pseudo is Projector augmented-wave + core cor, Zval =  3.0
     Generated using "atomic" code by A. Dal Corso v.6.3
     Shape of augmentation charge: PSQ
     Using radial grid of 1135 points,  4 beta functions with: 
                l(1) =   0
                l(2) =   0
                l(3) =   1
                l(4) =   1
     Q(r) pseudized with 0 coefficients 


     atomic species   valence    mass     pseudopotential
        Al             3.00    26.98150     Al( 1.00)

     48 Sym. Ops., with inversion, found



   Cartesian axes

     site n.     atom                  positions (alat units)
         1           Al  tau(   1) = (   0.0000000   0.0000000   0.0000000  )

     number of k points=    10  gaussian smearing, width (Ry)=  0.0100
                       cart. coord. in units 2pi/alat
        k(    1) = (   0.0000000   0.0000000   0.0000000), wk =   0.0160000
        k(    2) = (  -0.2000000   0.2000000  -0.2000000), wk =   0.1280000
        k(    3) = (  -0.4000000   0.4000000  -0.4000000), wk =   0.1280000
        k(    4) = (   0.0000000   0.4000000   0.0000000), wk =   0.0960000
        k(    5) = (  -0.2000000   0.6000000  -0.2000000), wk =   0.3840000
        k(    6) = (   0.6000000  -0.2000000   0.6000000), wk =   0.3840000
        k(    7) = (   0.4000000   0.0000000   0.4000000), wk =   0.1920000
        k(    8) = (   0.0000000   0.8000000   0.0000000), wk =   0.0960000
        k(    9) = (   0.8000000   0.0000000   0.8000000), wk =   0.1920000
        k(   10) = (   0.6000000  -0.2000000   1.0000000), wk =   0.3840000

     Dense  grid:     3119 G-vectors     FFT dimensions: (  24,  24,  24)

     Estimated max dynamical RAM per process >       1.35 MB

     Estimated total dynamical RAM >       6.76 MB

     Initial potential from superposition of free atoms

     starting charge    2.99771, renormalised to    3.00000
     Starting wfcs are    4 randomized atomic wfcs +    2 random wfcs
     Checking if some PAW data can be deallocated... 

     total cpu time spent up to now is        0.6 secs

     Self-consistent Calculation

     iteration #  1     ecut=    35.00 Ry     beta= 0.70
     Davidson diagonalization with overlap
     ethr =  1.00E-02,  avg # of iterations =  4.7

     Threshold (ethr) on eigenvalues was too large:
     Diagonalizing with lowered threshold

     Davidson diagonalization with overlap
     ethr =  1.73E-04,  avg # of iterations =  1.8

     total cpu time spent up to now is        0.7 secs

     total energy              =     -39.49875105 Ry
     Harris-Foulkes estimate   =     -39.50014052 Ry
     estimated scf accuracy    <       0.00510091 Ry

     iteration #  2     ecut=    35.00 Ry     beta= 0.70
     Davidson diagonalization with overlap
     ethr =  1.70E-04,  avg # of iterations =  1.0

     total cpu time spent up to now is        0.8 secs

     total energy              =     -39.49874337 Ry
     Harris-Foulkes estimate   =     -39.49883301 Ry
     estimated scf accuracy    <       0.00035522 Ry

     iteration #  3     ecut=    35.00 Ry     beta= 0.70
     Davidson diagonalization with overlap
     ethr =  1.18E-05,  avg # of iterations =  2.1

     total cpu time spent up to now is        0.9 secs

     total energy              =     -39.49876353 Ry
     Harris-Foulkes estimate   =     -39.49876408 Ry
     estimated scf accuracy    <       0.00000135 Ry

     iteration #  4     ecut=    35.00 Ry     beta= 0.70
     Davidson diagonalization with overlap
     ethr =  4.51E-08,  avg # of iterations =  3.0

     total cpu time spent up to now is        0.9 secs

     total energy              =     -39.49876543 Ry
     Harris-Foulkes estimate   =     -39.49876542 Ry
     estimated scf accuracy    <       0.00000010 Ry

     iteration #  5     ecut=    35.00 Ry     beta= 0.70
     Davidson diagonalization with overlap
     ethr =  3.23E-09,  avg # of iterations =  1.2

     total cpu time spent up to now is        1.0 secs

     total energy              =     -39.49876542 Ry
     Harris-Foulkes estimate   =     -39.49876544 Ry
     estimated scf accuracy    <       0.00000003 Ry

     iteration #  6     ecut=    35.00 Ry     beta= 0.70
     Davidson diagonalization with overlap
     ethr =  8.66E-10,  avg # of iterations =  1.0

     total cpu time spent up to now is        1.0 secs

     End of self-consistent calculation

          k = 0.0000 0.0000 0.0000 (   387 PWs)   bands (ev):

    -3.2513  20.4436  20.4436  21.8799  21.8800  21.8800

          k =-0.2000 0.2000-0.2000 (   386 PWs)   bands (ev):

    -2.1710  13.1723  18.9504  18.9504  22.2764  23.4285

          k =-0.4000 0.4000-0.4000 (   389 PWs)   bands (ev):

     1.0227   6.2103  18.6941  18.6941  20.2500  20.2500

          k = 0.0000 0.4000 0.0000 (   379 PWs)   bands (ev):

    -1.8127  16.1868  16.1868  16.2855  18.5684  19.5596

          k =-0.2000 0.6000-0.2000 (   394 PWs)   bands (ev):

     0.6700   9.2078  14.3809  15.2739  16.9364  22.7974

          k = 0.6000-0.2000 0.6000 (   389 PWs)   bands (ev):

     3.4528   5.1748  12.1064  16.2117  18.0587  23.9919

          k = 0.4000 0.0000 0.4000 (   395 PWs)   bands (ev):

    -0.3883  10.9251  12.3912  18.9890  21.0069  23.2309

          k = 0.0000 0.8000 0.0000 (   396 PWs)   bands (ev):

     2.4055   9.4130  13.4738  13.7291  13.7291  17.1934

          k = 0.8000 0.0000 0.8000 (   391 PWs)   bands (ev):

     5.6015   6.9092   7.9336  14.0411  15.5970  21.6728

          k = 0.6000-0.2000 1.0000 (   392 PWs)   bands (ev):

     3.7864   8.2609   9.6579  10.8957  21.5673  22.9236

     the Fermi energy is     8.2026 ev

!    total energy              =     -39.49876543 Ry
     Harris-Foulkes estimate   =     -39.49876543 Ry
     estimated scf accuracy    <          9.6E-11 Ry

     total all-electron energy =      -485.641546 Ry

     The total energy is the sum of the following terms:

     one-electron contribution =       3.15747167 Ry
     hartree contribution      =       0.00584401 Ry
     xc contribution           =      -2.58884222 Ry
     ewald contribution        =      -5.39395543 Ry
     one-center paw contrib.   =     -34.67837127 Ry
     smearing contrib. (-TS)   =      -0.00091218 Ry

     convergence has been achieved in   6 iterations

     Forces acting on atoms (cartesian axes, Ry/au):

     atom    1 type  1   force =     0.00000000    0.00000000    0.00000000

     Total force =     0.000000     Total SCF correction =     0.000000


     Computing stress (Cartesian axis) and pressure

          total   stress  (Ry/bohr**3)                   (kbar)     P=   13.96
   0.00009487   0.00000000   0.00000000         13.96      0.00      0.00
   0.00000000   0.00009487  -0.00000000          0.00     13.96     -0.00
   0.00000000  -0.00000000   0.00009487          0.00     -0.00     13.96


     Writing output data file Al.save/

     init_run     :      0.11s CPU      0.12s WALL (       1 calls)
     electrons    :      0.34s CPU      0.40s WALL (       1 calls)
     forces       :      0.01s CPU      0.01s WALL (       1 calls)
     stress       :      0.02s CPU      0.02s WALL (       1 calls)

     Called by init_run:
     wfcinit      :      0.01s CPU      0.01s WALL (       1 calls)
     potinit      :      0.03s CPU      0.04s WALL (       1 calls)
     hinit0       :      0.06s CPU      0.06s WALL (       1 calls)

     Called by electrons:
     c_bands      :      0.16s CPU      0.18s WALL (       7 calls)
     sum_band     :      0.04s CPU      0.04s WALL (       7 calls)
     v_of_rho     :      0.02s CPU      0.02s WALL (       7 calls)
     newd         :      0.01s CPU      0.01s WALL (       7 calls)
     PAW_pot      :      0.14s CPU      0.19s WALL (       7 calls)
     mix_rho      :      0.00s CPU      0.00s WALL (       7 calls)

     Called by c_bands:
     init_us_2    :      0.00s CPU      0.01s WALL (     170 calls)
     cegterg      :      0.16s CPU      0.17s WALL (      70 calls)

     Called by sum_band:
     sum_band:bec :      0.00s CPU      0.00s WALL (      70 calls)
     addusdens    :      0.00s CPU      0.00s WALL (       7 calls)

     Called by *egterg:
     h_psi        :      0.13s CPU      0.15s WALL (     228 calls)
     s_psi        :      0.00s CPU      0.00s WALL (     228 calls)
     g_psi        :      0.00s CPU      0.00s WALL (     148 calls)
     cdiaghg      :      0.01s CPU      0.02s WALL (     208 calls)

     Called by h_psi:
     h_psi:pot    :      0.13s CPU      0.15s WALL (     228 calls)
     h_psi:calbec :      0.01s CPU      0.01s WALL (     228 calls)
     vloc_psi     :      0.12s CPU      0.14s WALL (     228 calls)
     add_vuspsi   :      0.00s CPU      0.00s WALL (     228 calls)

     General routines
     calbec       :      0.01s CPU      0.01s WALL (     348 calls)
     fft          :      0.01s CPU      0.01s WALL (     104 calls)
     ffts         :      0.00s CPU      0.00s WALL (       7 calls)
     fftw         :      0.13s CPU      0.15s WALL (    2588 calls)

     Parallel routines
     fft_scatt_xy :      0.01s CPU      0.02s WALL (    2699 calls)
     fft_scatt_yz :      0.04s CPU      0.04s WALL (    2699 calls)

     PWSCF        :     1.01s CPU         1.11s WALL


   This run was terminated on:  19:58:44  25Mar2024            

=------------------------------------------------------------------------------=
   JOB DONE.
=------------------------------------------------------------------------------=
