
     Program PWSCF v.6.3MaX starts on 25Mar2024 at 20: 4:48 

     This program is part of the open-source Quantum ESPRESSO suite
     for quantum simulation of materials; please cite
         "P. Giannozzi et al., J. Phys.:Condens. Matter 21 395502 (2009);
         "P. Giannozzi et al., J. Phys.:Condens. Matter 29 465901 (2017);
          URL http://www.quantum-espresso.org", 
     in publications or presentations arising from this work. More details at
     http://www.quantum-espresso.org/quote

     Parallel version (MPI), running on     5 processors

     MPI processes distributed on     1 nodes
     R & G space division:  proc/nbgrp/npool/nimage =       5
     Waiting for input...
     Reading input from standard input

     Current dimensions of program PWSCF are:
     Max number of different atomic species (ntypx) = 10
     Max number of k-points (npk) =  40000
     Max angular momentum in pseudopotentials (lmaxx) =  3
               file Al.pbe-n-kjpaw_psl.1.0.0.UPF: wavefunction(s)  3S 3P renormalized

     Subspace diagonalization in iterative solution of the eigenvalue problem:
     a serial algorithm will be used


     Parallelization info
     --------------------
     sticks:   dense  smooth     PW     G-vecs:    dense   smooth      PW
     Min          99      99     30                 1395     1395     248
     Max         101     101     31                 1395     1395     251
     Sum         499     499    151                 6975     6975    1243



     bravais-lattice index     =            2
     lattice parameter (alat)  =       7.6500  a.u.
     unit-cell volume          =     111.9243 (a.u.)^3
     number of atoms/cell      =            1
     number of atomic types    =            1
     number of electrons       =         3.00
     number of Kohn-Sham states=            6
     kinetic-energy cutoff     =      60.0000  Ry
     charge density cutoff     =     240.0000  Ry
     convergence threshold     =      1.0E-08
     mixing beta               =       0.7000
     number of iterations used =            8  plain     mixing
     Exchange-correlation      = SLA PW PBX PBC ( 1  4  3  4 0 0)

     celldm(1)=   7.650000  celldm(2)=   0.000000  celldm(3)=   0.000000
     celldm(4)=   0.000000  celldm(5)=   0.000000  celldm(6)=   0.000000

     crystal axes: (cart. coord. in units of alat)
               a(1) = (  -0.500000   0.000000   0.500000 )  
               a(2) = (   0.000000   0.500000   0.500000 )  
               a(3) = (  -0.500000   0.500000   0.000000 )  

     reciprocal axes: (cart. coord. in units 2 pi/alat)
               b(1) = ( -1.000000 -1.000000  1.000000 )  
               b(2) = (  1.000000  1.000000  1.000000 )  
               b(3) = ( -1.000000  1.000000 -1.000000 )  


     PseudoPot. # 1 for Al read from file:
     /home/lorenzo/pseudos/Al/Al.pbe-n-kjpaw_psl.1.0.0.UPF
     MD5 check sum: 502b6b27b9c6270cab5dd1084b96fa6d
     Pseudo is Projector augmented-wave + core cor, Zval =  3.0
     Generated using "atomic" code by A. Dal Corso v.6.3
     Shape of augmentation charge: PSQ
     Using radial grid of 1135 points,  6 beta functions with: 
                l(1) =   0
                l(2) =   0
                l(3) =   1
                l(4) =   1
                l(5) =   2
                l(6) =   2
     Q(r) pseudized with 0 coefficients 


     atomic species   valence    mass     pseudopotential
        Al             3.00    26.98150     Al( 1.00)

     48 Sym. Ops., with inversion, found



   Cartesian axes

     site n.     atom                  positions (alat units)
         1           Al  tau(   1) = (   0.0000000   0.0000000   0.0000000  )

     number of k points=    16  gaussian smearing, width (Ry)=  0.0100
                       cart. coord. in units 2pi/alat
        k(    1) = (   0.0000000   0.0000000   0.0000000), wk =   0.0092593
        k(    2) = (  -0.1666667   0.1666667  -0.1666667), wk =   0.0740741
        k(    3) = (  -0.3333333   0.3333333  -0.3333333), wk =   0.0740741
        k(    4) = (   0.5000000  -0.5000000   0.5000000), wk =   0.0370370
        k(    5) = (   0.0000000   0.3333333   0.0000000), wk =   0.0555556
        k(    6) = (  -0.1666667   0.5000000  -0.1666667), wk =   0.2222222
        k(    7) = (   0.6666667  -0.3333333   0.6666667), wk =   0.2222222
        k(    8) = (   0.5000000  -0.1666667   0.5000000), wk =   0.2222222
        k(    9) = (   0.3333333   0.0000000   0.3333333), wk =   0.1111111
        k(   10) = (   0.0000000   0.6666667   0.0000000), wk =   0.0555556
        k(   11) = (   0.8333333  -0.1666667   0.8333333), wk =   0.2222222
        k(   12) = (   0.6666667  -0.0000000   0.6666667), wk =   0.1111111
        k(   13) = (   0.0000000  -1.0000000   0.0000000), wk =   0.0277778
        k(   14) = (   0.6666667  -0.3333333   1.0000000), wk =   0.2222222
        k(   15) = (   0.5000000  -0.1666667   0.8333333), wk =   0.2222222
        k(   16) = (  -0.3333333  -1.0000000   0.0000000), wk =   0.1111111

     Dense  grid:     6975 G-vectors     FFT dimensions: (  27,  27,  27)

     Estimated max dynamical RAM per process >       6.99 MB

     Estimated total dynamical RAM >      34.97 MB

     Initial potential from superposition of free atoms

     starting charge    2.99771, renormalised to    3.00000
     Starting wfcs are    4 randomized atomic wfcs +    2 random wfcs
     Checking if some PAW data can be deallocated... 

     total cpu time spent up to now is        1.0 secs

     Self-consistent Calculation

     iteration #  1     ecut=    60.00 Ry     beta= 0.70
     Davidson diagonalization with overlap
     ethr =  1.00E-02,  avg # of iterations =  4.8

     Threshold (ethr) on eigenvalues was too large:
     Diagonalizing with lowered threshold

     Davidson diagonalization with overlap
     ethr =  1.74E-04,  avg # of iterations =  1.6

     total cpu time spent up to now is        1.4 secs

     total energy              =     -39.50781135 Ry
     Harris-Foulkes estimate   =     -39.50898011 Ry
     estimated scf accuracy    <       0.00514553 Ry

     iteration #  2     ecut=    60.00 Ry     beta= 0.70
     Davidson diagonalization with overlap
     ethr =  1.72E-04,  avg # of iterations =  1.3

     total cpu time spent up to now is        1.6 secs

     total energy              =     -39.50776931 Ry
     Harris-Foulkes estimate   =     -39.50785692 Ry
     estimated scf accuracy    <       0.00037094 Ry

     iteration #  3     ecut=    60.00 Ry     beta= 0.70
     Davidson diagonalization with overlap
     ethr =  1.24E-05,  avg # of iterations =  1.2

     total cpu time spent up to now is        1.8 secs

     total energy              =     -39.50777795 Ry
     Harris-Foulkes estimate   =     -39.50777804 Ry
     estimated scf accuracy    <       0.00000042 Ry

     iteration #  4     ecut=    60.00 Ry     beta= 0.70
     Davidson diagonalization with overlap
     ethr =  1.42E-08,  avg # of iterations =  3.2

     total cpu time spent up to now is        2.1 secs

     total energy              =     -39.50777947 Ry
     Harris-Foulkes estimate   =     -39.50777950 Ry
     estimated scf accuracy    <       0.00000003 Ry

     iteration #  5     ecut=    60.00 Ry     beta= 0.70
     Davidson diagonalization with overlap
     ethr =  9.99E-10,  avg # of iterations =  1.1

     total cpu time spent up to now is        2.2 secs

     End of self-consistent calculation

          k = 0.0000 0.0000 0.0000 (   893 PWs)   bands (ev):

    -3.2508  20.4322  20.4322  21.8935  21.8936  21.8936

          k =-0.1667 0.1667-0.1667 (   899 PWs)   bands (ev):

    -2.4995  14.4756  19.1614  19.1614  22.4040  23.7992

          k =-0.3333 0.3333-0.3333 (   878 PWs)   bands (ev):

    -0.2694   8.3459  18.5824  18.5824  21.1644  21.1644

          k = 0.5000-0.5000 0.5000 (   886 PWs)   bands (ev):

     3.2775   3.4782  19.2101  19.2101  19.2819  19.2819

          k = 0.0000 0.3333 0.0000 (   877 PWs)   bands (ev):

    -2.2500  16.8336  16.8336  17.0060  20.0704  20.3060

          k =-0.1667 0.5000-0.1667 (   874 PWs)   bands (ev):

    -0.5157  10.8448  15.7793  16.5115  17.4235  22.3044

          k = 0.6667-0.3333 0.6667 (   874 PWs)   bands (ev):

     2.6475   5.5242  14.0516  16.0056  17.7855  23.7699

          k = 0.5000-0.1667 0.5000 (   874 PWs)   bands (ev):

     1.4410   7.1507  12.9426  17.5142  19.4440  22.7072

          k = 0.3333 0.0000 0.3333 (   887 PWs)   bands (ev):

    -1.2563  12.3271  13.7302  20.2624  22.2894  22.3810

          k = 0.0000 0.6667 0.0000 (   866 PWs)   bands (ev):

     0.7083  12.2192  14.0960  14.2805  14.2805  17.7631

          k = 0.8333-0.1667 0.8333 (   879 PWs)   bands (ev):

     3.3489   8.8841   9.3482  14.0712  15.5721  20.7291

          k = 0.6667-0.0000 0.6667 (   873 PWs)   bands (ev):

     4.5558   6.7805   8.2389  15.1473  16.9077  26.4586

          k = 0.0000-1.0000 0.0000 (   846 PWs)   bands (ev):

     4.9391   6.2524  13.1061  13.4290  13.4290  16.8657

          k = 0.6667-0.3333 1.0000 (   878 PWs)   bands (ev):

     1.6814   9.5530  11.0075  13.2062  20.6387  22.2562

          k = 0.5000-0.1667 0.8333 (   874 PWs)   bands (ev):

     5.1272   5.3862  10.8507  11.4094  21.8333  22.3123

          k =-0.3333-1.0000 0.0000 (   878 PWs)   bands (ev):

     5.8590   7.2021   8.6280  10.1894  19.7525  21.5674

     the Fermi energy is     8.2064 ev

!    total energy              =     -39.50777947 Ry
     Harris-Foulkes estimate   =     -39.50777947 Ry
     estimated scf accuracy    <          2.0E-10 Ry

     total all-electron energy =      -485.650560 Ry

     The total energy is the sum of the following terms:

     one-electron contribution =       3.14884149 Ry
     hartree contribution      =       0.00531618 Ry
     xc contribution           =      -2.58791043 Ry
     ewald contribution        =      -5.39395538 Ry
     one-center paw contrib.   =     -34.67970227 Ry
     smearing contrib. (-TS)   =      -0.00036906 Ry

     convergence has been achieved in   5 iterations

     Forces acting on atoms (cartesian axes, Ry/au):

     atom    1 type  1   force =     0.00000000    0.00000000    0.00000000

     Total force =     0.000000     Total SCF correction =     0.000000


     Computing stress (Cartesian axis) and pressure

          total   stress  (Ry/bohr**3)                   (kbar)     P=   -0.12
  -0.00000085   0.00000000   0.00000000         -0.12      0.00      0.00
   0.00000000  -0.00000085   0.00000000          0.00     -0.12      0.00
   0.00000000   0.00000000  -0.00000085          0.00      0.00     -0.12


     Writing output data file Al.save/

     init_run     :      0.30s CPU      0.32s WALL (       1 calls)
     electrons    :      1.14s CPU      1.24s WALL (       1 calls)
     forces       :      0.04s CPU      0.04s WALL (       1 calls)
     stress       :      0.15s CPU      0.15s WALL (       1 calls)

     Called by init_run:
     wfcinit      :      0.03s CPU      0.03s WALL (       1 calls)
     potinit      :      0.11s CPU      0.12s WALL (       1 calls)
     hinit0       :      0.14s CPU      0.14s WALL (       1 calls)

     Called by electrons:
     c_bands      :      0.53s CPU      0.55s WALL (       6 calls)
     sum_band     :      0.14s CPU      0.15s WALL (       6 calls)
     v_of_rho     :      0.02s CPU      0.02s WALL (       6 calls)
     newd         :      0.05s CPU      0.05s WALL (       6 calls)
     PAW_pot      :      0.50s CPU      0.58s WALL (       6 calls)
     mix_rho      :      0.00s CPU      0.00s WALL (       6 calls)

     Called by c_bands:
     init_us_2    :      0.03s CPU      0.03s WALL (     240 calls)
     cegterg      :      0.49s CPU      0.51s WALL (      96 calls)

     Called by sum_band:
     sum_band:bec :      0.00s CPU      0.00s WALL (      96 calls)
     addusdens    :      0.04s CPU      0.04s WALL (       6 calls)

     Called by *egterg:
     h_psi        :      0.42s CPU      0.44s WALL (     323 calls)
     s_psi        :      0.01s CPU      0.01s WALL (     323 calls)
     g_psi        :      0.00s CPU      0.00s WALL (     211 calls)
     cdiaghg      :      0.03s CPU      0.03s WALL (     291 calls)

     Called by h_psi:
     h_psi:pot    :      0.42s CPU      0.44s WALL (     323 calls)
     h_psi:calbec :      0.02s CPU      0.02s WALL (     323 calls)
     vloc_psi     :      0.38s CPU      0.40s WALL (     323 calls)
     add_vuspsi   :      0.01s CPU      0.01s WALL (     323 calls)

     General routines
     calbec       :      0.03s CPU      0.03s WALL (     499 calls)
     fft          :      0.02s CPU      0.02s WALL (      93 calls)
     ffts         :      0.00s CPU      0.00s WALL (       6 calls)
     fftw         :      0.42s CPU      0.44s WALL (    3630 calls)

     Parallel routines
     fft_scatt_xy :      0.04s CPU      0.04s WALL (    3729 calls)
     fft_scatt_yz :      0.10s CPU      0.11s WALL (    3729 calls)

     PWSCF        :     2.33s CPU         2.49s WALL


   This run was terminated on:  20: 4:50  25Mar2024            

=------------------------------------------------------------------------------=
   JOB DONE.
=------------------------------------------------------------------------------=
