
     Program PWSCF v.6.3MaX starts on 25Mar2024 at 19:54:44 

     This program is part of the open-source Quantum ESPRESSO suite
     for quantum simulation of materials; please cite
         "P. Giannozzi et al., J. Phys.:Condens. Matter 21 395502 (2009);
         "P. Giannozzi et al., J. Phys.:Condens. Matter 29 465901 (2017);
          URL http://www.quantum-espresso.org", 
     in publications or presentations arising from this work. More details at
     http://www.quantum-espresso.org/quote

     Parallel version (MPI), running on     5 processors

     MPI processes distributed on     1 nodes
     R & G space division:  proc/nbgrp/npool/nimage =       5
     Waiting for input...
     Reading input from standard input

     Current dimensions of program PWSCF are:
     Max number of different atomic species (ntypx) = 10
     Max number of k-points (npk) =  40000
     Max angular momentum in pseudopotentials (lmaxx) =  3

     Subspace diagonalization in iterative solution of the eigenvalue problem:
     a serial algorithm will be used


     Parallelization info
     --------------------
     sticks:   dense  smooth     PW     G-vecs:    dense   smooth      PW
     Min          24      24      8                  178      178      36
     Max          25      25      9                  181      181      37
     Sum         121     121     43                  893      893     181



     bravais-lattice index     =            2
     lattice parameter (alat)  =       7.6500  a.u.
     unit-cell volume          =     111.9243 (a.u.)^3
     number of atoms/cell      =            1
     number of atomic types    =            1
     number of electrons       =         3.00
     number of Kohn-Sham states=            6
     kinetic-energy cutoff     =      15.0000  Ry
     charge density cutoff     =      60.0000  Ry
     convergence threshold     =      1.0E-08
     mixing beta               =       0.7000
     number of iterations used =            8  plain     mixing
     Exchange-correlation      = PBE ( 1  4  3  4 0 0)

     celldm(1)=   7.650000  celldm(2)=   0.000000  celldm(3)=   0.000000
     celldm(4)=   0.000000  celldm(5)=   0.000000  celldm(6)=   0.000000

     crystal axes: (cart. coord. in units of alat)
               a(1) = (  -0.500000   0.000000   0.500000 )  
               a(2) = (   0.000000   0.500000   0.500000 )  
               a(3) = (  -0.500000   0.500000   0.000000 )  

     reciprocal axes: (cart. coord. in units 2 pi/alat)
               b(1) = ( -1.000000 -1.000000  1.000000 )  
               b(2) = (  1.000000  1.000000  1.000000 )  
               b(3) = ( -1.000000  1.000000 -1.000000 )  


     PseudoPot. # 1 for Al read from file:
     /home/lorenzo/pseudos/Al/Al.pbe-nl-rrkjus_psl.1.0.0.UPF
     MD5 check sum: 6db8691240a1c860ce6448702d298c4b
     Pseudo is Ultrasoft + core correction, Zval =  3.0
     Generated using "atomic" code by A. Dal Corso v.6.3
     Using radial grid of 1135 points,  4 beta functions with: 
                l(1) =   0
                l(2) =   0
                l(3) =   1
                l(4) =   1
     Q(r) pseudized with 0 coefficients 


     atomic species   valence    mass     pseudopotential
        Al             3.00    26.98150     Al( 1.00)

     48 Sym. Ops., with inversion, found



   Cartesian axes

     site n.     atom                  positions (alat units)
         1           Al  tau(   1) = (   0.0000000   0.0000000   0.0000000  )

     number of k points=     8  gaussian smearing, width (Ry)=  0.0100
                       cart. coord. in units 2pi/alat
        k(    1) = (   0.0000000   0.0000000   0.0000000), wk =   0.0312500
        k(    2) = (  -0.2500000   0.2500000  -0.2500000), wk =   0.2500000
        k(    3) = (   0.5000000  -0.5000000   0.5000000), wk =   0.1250000
        k(    4) = (   0.0000000   0.5000000   0.0000000), wk =   0.1875000
        k(    5) = (   0.7500000  -0.2500000   0.7500000), wk =   0.7500000
        k(    6) = (   0.5000000   0.0000000   0.5000000), wk =   0.3750000
        k(    7) = (   0.0000000  -1.0000000   0.0000000), wk =   0.0937500
        k(    8) = (  -0.5000000  -1.0000000   0.0000000), wk =   0.1875000

     Dense  grid:      893 G-vectors     FFT dimensions: (  15,  15,  15)

     Estimated max dynamical RAM per process >       0.50 MB

     Estimated total dynamical RAM >       2.49 MB

     Initial potential from superposition of free atoms

     starting charge    2.99771, renormalised to    3.00000
     Starting wfcs are    4 randomized atomic wfcs +    2 random wfcs

     total cpu time spent up to now is        0.4 secs

     Self-consistent Calculation

     iteration #  1     ecut=    15.00 Ry     beta= 0.70
     Davidson diagonalization with overlap
     ethr =  1.00E-02,  avg # of iterations =  4.6

     Threshold (ethr) on eigenvalues was too large:
     Diagonalizing with lowered threshold

     Davidson diagonalization with overlap
     ethr =  2.11E-04,  avg # of iterations =  1.5

     total cpu time spent up to now is        0.5 secs

     total energy              =      -5.01613434 Ry
     Harris-Foulkes estimate   =      -5.01744364 Ry
     estimated scf accuracy    <       0.00620975 Ry

     iteration #  2     ecut=    15.00 Ry     beta= 0.70
     Davidson diagonalization with overlap
     ethr =  2.07E-04,  avg # of iterations =  1.0

     total cpu time spent up to now is        0.5 secs

     total energy              =      -5.01610258 Ry
     Harris-Foulkes estimate   =      -5.01619911 Ry
     estimated scf accuracy    <       0.00046029 Ry

     iteration #  3     ecut=    15.00 Ry     beta= 0.70
     Davidson diagonalization with overlap
     ethr =  1.53E-05,  avg # of iterations =  1.2

     total cpu time spent up to now is        0.5 secs

     total energy              =      -5.01611826 Ry
     Harris-Foulkes estimate   =      -5.01611820 Ry
     estimated scf accuracy    <       0.00000137 Ry

     iteration #  4     ecut=    15.00 Ry     beta= 0.70
     Davidson diagonalization with overlap
     ethr =  4.57E-08,  avg # of iterations =  4.8

     total cpu time spent up to now is        0.5 secs

     total energy              =      -5.01611986 Ry
     Harris-Foulkes estimate   =      -5.01611986 Ry
     estimated scf accuracy    <       0.00000006 Ry

     iteration #  5     ecut=    15.00 Ry     beta= 0.70
     Davidson diagonalization with overlap
     ethr =  2.01E-09,  avg # of iterations =  1.0

     total cpu time spent up to now is        0.5 secs

     total energy              =      -5.01611987 Ry
     Harris-Foulkes estimate   =      -5.01611986 Ry
     estimated scf accuracy    <       0.00000003 Ry

     iteration #  6     ecut=    15.00 Ry     beta= 0.70
     Davidson diagonalization with overlap
     ethr =  9.22E-10,  avg # of iterations =  1.0

     total cpu time spent up to now is        0.5 secs

     End of self-consistent calculation

          k = 0.0000 0.0000 0.0000 (   113 PWs)   bands (ev):

    -3.2422  20.6657  20.6657  21.8846  21.8846  21.8846

          k =-0.2500 0.2500-0.2500 (   113 PWs)   bands (ev):

    -1.5580  11.3268  18.8034  18.8034  22.2459  22.7111

          k = 0.5000-0.5000 0.5000 (   108 PWs)   bands (ev):

     3.2803   3.5021  19.2051  19.2051  19.4877  19.4877

          k = 0.0000 0.5000 0.0000 (   101 PWs)   bands (ev):

    -1.0008  15.3875  15.3875  15.4656  16.1728  18.8513

          k = 0.7500-0.2500 0.7500 (   110 PWs)   bands (ev):

     2.8342   7.1219  11.5341  14.8982  16.6430  24.0156

          k = 0.5000 0.0000 0.5000 (   107 PWs)   bands (ev):

     1.2071   9.1280  10.6172  17.3576  19.3576  25.0774

          k = 0.0000-1.0000 0.0000 (   116 PWs)   bands (ev):

     4.9444   6.2816  13.2003  13.4256  13.4256  16.9231

          k =-0.5000-1.0000 0.0000 (   108 PWs)   bands (ev):

     7.0328   7.0328   8.0647   8.9423  23.8019  23.8019

     the Fermi energy is     7.2062 ev

!    total energy              =      -5.01611987 Ry
     Harris-Foulkes estimate   =      -5.01611987 Ry
     estimated scf accuracy    <          2.3E-10 Ry

     The total energy is the sum of the following terms:

     one-electron contribution =       2.96036471 Ry
     hartree contribution      =       0.00751973 Ry
     xc contribution           =      -2.58839906 Ry
     ewald contribution        =      -5.39395544 Ry
     smearing contrib. (-TS)   =      -0.00164982 Ry

     convergence has been achieved in   6 iterations

     Forces acting on atoms (cartesian axes, Ry/au):

     atom    1 type  1   force =     0.00000000    0.00000000    0.00000000

     Total force =     0.000000     Total SCF correction =     0.000000


     Computing stress (Cartesian axis) and pressure

          total   stress  (Ry/bohr**3)                   (kbar)     P=    5.84
   0.00003968  -0.00000000  -0.00000000          5.84     -0.00     -0.00
  -0.00000000   0.00003968   0.00000000         -0.00      5.84      0.00
  -0.00000000   0.00000000   0.00003968         -0.00      0.00      5.84


     Writing output data file Al.save/

     init_run     :      0.05s CPU      0.05s WALL (       1 calls)
     electrons    :      0.09s CPU      0.13s WALL (       1 calls)
     forces       :      0.00s CPU      0.00s WALL (       1 calls)
     stress       :      0.01s CPU      0.01s WALL (       1 calls)

     Called by init_run:
     wfcinit      :      0.00s CPU      0.01s WALL (       1 calls)
     potinit      :      0.00s CPU      0.00s WALL (       1 calls)
     hinit0       :      0.04s CPU      0.04s WALL (       1 calls)

     Called by electrons:
     c_bands      :      0.07s CPU      0.09s WALL (       7 calls)
     sum_band     :      0.01s CPU      0.01s WALL (       7 calls)
     v_of_rho     :      0.01s CPU      0.01s WALL (       7 calls)
     newd         :      0.00s CPU      0.00s WALL (       7 calls)
     mix_rho      :      0.00s CPU      0.00s WALL (       7 calls)

     Called by c_bands:
     init_us_2    :      0.00s CPU      0.00s WALL (     136 calls)
     cegterg      :      0.07s CPU      0.09s WALL (      56 calls)

     Called by sum_band:
     sum_band:bec :      0.00s CPU      0.00s WALL (      56 calls)
     addusdens    :      0.00s CPU      0.00s WALL (       7 calls)

     Called by *egterg:
     h_psi        :      0.05s CPU      0.06s WALL (     185 calls)
     s_psi        :      0.00s CPU      0.00s WALL (     185 calls)
     g_psi        :      0.00s CPU      0.00s WALL (     121 calls)
     cdiaghg      :      0.01s CPU      0.01s WALL (     169 calls)

     Called by h_psi:
     h_psi:pot    :      0.05s CPU      0.06s WALL (     185 calls)
     h_psi:calbec :      0.00s CPU      0.00s WALL (     185 calls)
     vloc_psi     :      0.05s CPU      0.06s WALL (     185 calls)
     add_vuspsi   :      0.00s CPU      0.00s WALL (     185 calls)

     General routines
     calbec       :      0.00s CPU      0.00s WALL (     281 calls)
     fft          :      0.00s CPU      0.00s WALL (     104 calls)
     ffts         :      0.00s CPU      0.00s WALL (       7 calls)
     fftw         :      0.05s CPU      0.06s WALL (    2044 calls)

     Parallel routines
     fft_scatt_xy :      0.00s CPU      0.01s WALL (    2155 calls)
     fft_scatt_yz :      0.03s CPU      0.03s WALL (    2155 calls)

     PWSCF        :     0.54s CPU         0.61s WALL


   This run was terminated on:  19:54:45  25Mar2024            

=------------------------------------------------------------------------------=
   JOB DONE.
=------------------------------------------------------------------------------=
