
     Program PWSCF v.6.3MaX starts on 25Mar2024 at 19:59: 5 

     This program is part of the open-source Quantum ESPRESSO suite
     for quantum simulation of materials; please cite
         "P. Giannozzi et al., J. Phys.:Condens. Matter 21 395502 (2009);
         "P. Giannozzi et al., J. Phys.:Condens. Matter 29 465901 (2017);
          URL http://www.quantum-espresso.org", 
     in publications or presentations arising from this work. More details at
     http://www.quantum-espresso.org/quote

     Parallel version (MPI), running on     5 processors

     MPI processes distributed on     1 nodes
     R & G space division:  proc/nbgrp/npool/nimage =       5
     Waiting for input...
     Reading input from standard input

     Current dimensions of program PWSCF are:
     Max number of different atomic species (ntypx) = 10
     Max number of k-points (npk) =  40000
     Max angular momentum in pseudopotentials (lmaxx) =  3
               file Al.pbe-nl-kjpaw_psl.1.0.0.UPF: wavefunction(s)  3S 3P renormalized

     Subspace diagonalization in iterative solution of the eigenvalue problem:
     a serial algorithm will be used


     Parallelization info
     --------------------
     sticks:   dense  smooth     PW     G-vecs:    dense   smooth      PW
     Min          56      56     18                  623      623     121
     Max          57      57     19                  625      625     123
     Sum         283     283     91                 3119     3119     609



     bravais-lattice index     =            2
     lattice parameter (alat)  =       7.6500  a.u.
     unit-cell volume          =     111.9243 (a.u.)^3
     number of atoms/cell      =            1
     number of atomic types    =            1
     number of electrons       =         3.00
     number of Kohn-Sham states=            6
     kinetic-energy cutoff     =      35.0000  Ry
     charge density cutoff     =     140.0000  Ry
     convergence threshold     =      1.0E-08
     mixing beta               =       0.7000
     number of iterations used =            8  plain     mixing
     Exchange-correlation      = SLA PW PBX PBC ( 1  4  3  4 0 0)

     celldm(1)=   7.650000  celldm(2)=   0.000000  celldm(3)=   0.000000
     celldm(4)=   0.000000  celldm(5)=   0.000000  celldm(6)=   0.000000

     crystal axes: (cart. coord. in units of alat)
               a(1) = (  -0.500000   0.000000   0.500000 )  
               a(2) = (   0.000000   0.500000   0.500000 )  
               a(3) = (  -0.500000   0.500000   0.000000 )  

     reciprocal axes: (cart. coord. in units 2 pi/alat)
               b(1) = ( -1.000000 -1.000000  1.000000 )  
               b(2) = (  1.000000  1.000000  1.000000 )  
               b(3) = ( -1.000000  1.000000 -1.000000 )  


     PseudoPot. # 1 for Al read from file:
     /home/lorenzo/pseudos/Al/Al.pbe-nl-kjpaw_psl.1.0.0.UPF
     MD5 check sum: 8cf6d98cc7ef3f4b729b574060f3a10f
     Pseudo is Projector augmented-wave + core cor, Zval =  3.0
     Generated using "atomic" code by A. Dal Corso v.6.3
     Shape of augmentation charge: PSQ
     Using radial grid of 1135 points,  4 beta functions with: 
                l(1) =   0
                l(2) =   0
                l(3) =   1
                l(4) =   1
     Q(r) pseudized with 0 coefficients 


     atomic species   valence    mass     pseudopotential
        Al             3.00    26.98150     Al( 1.00)

     48 Sym. Ops., with inversion, found



   Cartesian axes

     site n.     atom                  positions (alat units)
         1           Al  tau(   1) = (   0.0000000   0.0000000   0.0000000  )

     number of k points=    35  gaussian smearing, width (Ry)=  0.0100
                       cart. coord. in units 2pi/alat
        k(    1) = (   0.0000000   0.0000000   0.0000000), wk =   0.0027435
        k(    2) = (  -0.1111111   0.1111111  -0.1111111), wk =   0.0219479
        k(    3) = (  -0.2222222   0.2222222  -0.2222222), wk =   0.0219479
        k(    4) = (  -0.3333333   0.3333333  -0.3333333), wk =   0.0219479
        k(    5) = (  -0.4444444   0.4444444  -0.4444444), wk =   0.0219479
        k(    6) = (   0.0000000   0.2222222   0.0000000), wk =   0.0164609
        k(    7) = (  -0.1111111   0.3333333  -0.1111111), wk =   0.0658436
        k(    8) = (  -0.2222222   0.4444444  -0.2222222), wk =   0.0658436
        k(    9) = (  -0.3333333   0.5555556  -0.3333333), wk =   0.0658436
        k(   10) = (   0.5555556  -0.3333333   0.5555556), wk =   0.0658436
        k(   11) = (   0.4444444  -0.2222222   0.4444444), wk =   0.0658436
        k(   12) = (   0.3333333  -0.1111111   0.3333333), wk =   0.0658436
        k(   13) = (   0.2222222  -0.0000000   0.2222222), wk =   0.0329218
        k(   14) = (   0.0000000   0.4444444   0.0000000), wk =   0.0164609
        k(   15) = (  -0.1111111   0.5555556  -0.1111111), wk =   0.0658436
        k(   16) = (  -0.2222222   0.6666667  -0.2222222), wk =   0.0658436
        k(   17) = (   0.6666667  -0.2222222   0.6666667), wk =   0.0658436
        k(   18) = (   0.5555556  -0.1111111   0.5555556), wk =   0.0658436
        k(   19) = (   0.4444444   0.0000000   0.4444444), wk =   0.0329218
        k(   20) = (   0.0000000   0.6666667   0.0000000), wk =   0.0164609
        k(   21) = (  -0.1111111   0.7777778  -0.1111111), wk =   0.0658436
        k(   22) = (   0.7777778  -0.1111111   0.7777778), wk =   0.0658436
        k(   23) = (   0.6666667  -0.0000000   0.6666667), wk =   0.0329218
        k(   24) = (   0.0000000   0.8888889   0.0000000), wk =   0.0164609
        k(   25) = (   0.8888889   0.0000000   0.8888889), wk =   0.0329218
        k(   26) = (  -0.2222222   0.4444444   0.0000000), wk =   0.0658436
        k(   27) = (  -0.3333333   0.5555556  -0.1111111), wk =   0.1316872
        k(   28) = (   0.5555556  -0.3333333   0.7777778), wk =   0.1316872
        k(   29) = (  -0.2222222   0.6666667   0.0000000), wk =   0.0658436
        k(   30) = (   0.6666667  -0.2222222   0.8888889), wk =   0.1316872
        k(   31) = (   0.5555556  -0.1111111   0.7777778), wk =   0.1316872
        k(   32) = (   0.4444444   0.0000000   0.6666667), wk =   0.0658436
        k(   33) = (   0.7777778  -0.1111111   1.0000000), wk =   0.0658436
        k(   34) = (   0.6666667  -0.0000000   0.8888889), wk =   0.0658436
        k(   35) = (   0.5555556  -0.1111111   1.0000000), wk =   0.0658436

     Dense  grid:     3119 G-vectors     FFT dimensions: (  24,  24,  24)

     Estimated max dynamical RAM per process >       1.53 MB

     Estimated total dynamical RAM >       7.65 MB

     Initial potential from superposition of free atoms

     starting charge    2.99771, renormalised to    3.00000
     Starting wfcs are    4 randomized atomic wfcs +    2 random wfcs
     Checking if some PAW data can be deallocated... 

     total cpu time spent up to now is        0.6 secs

     Self-consistent Calculation

     iteration #  1     ecut=    35.00 Ry     beta= 0.70
     Davidson diagonalization with overlap
     ethr =  1.00E-02,  avg # of iterations =  4.9

     Threshold (ethr) on eigenvalues was too large:
     Diagonalizing with lowered threshold

     Davidson diagonalization with overlap
     ethr =  1.92E-04,  avg # of iterations =  1.9

     total cpu time spent up to now is        0.9 secs

     total energy              =     -39.50060589 Ry
     Harris-Foulkes estimate   =     -39.50207762 Ry
     estimated scf accuracy    <       0.00565519 Ry

     iteration #  2     ecut=    35.00 Ry     beta= 0.70
     Davidson diagonalization with overlap
     ethr =  1.89E-04,  avg # of iterations =  1.0

     total cpu time spent up to now is        1.0 secs

     total energy              =     -39.50059953 Ry
     Harris-Foulkes estimate   =     -39.50069489 Ry
     estimated scf accuracy    <       0.00039501 Ry

     iteration #  3     ecut=    35.00 Ry     beta= 0.70
     Davidson diagonalization with overlap
     ethr =  1.32E-05,  avg # of iterations =  1.8

     total cpu time spent up to now is        1.1 secs

     total energy              =     -39.50062044 Ry
     Harris-Foulkes estimate   =     -39.50062103 Ry
     estimated scf accuracy    <       0.00000153 Ry

     iteration #  4     ecut=    35.00 Ry     beta= 0.70
     Davidson diagonalization with overlap
     ethr =  5.09E-08,  avg # of iterations =  3.3

     total cpu time spent up to now is        1.3 secs

     total energy              =     -39.50062275 Ry
     Harris-Foulkes estimate   =     -39.50062273 Ry
     estimated scf accuracy    <       0.00000013 Ry

     iteration #  5     ecut=    35.00 Ry     beta= 0.70
     Davidson diagonalization with overlap
     ethr =  4.37E-09,  avg # of iterations =  1.0

     total cpu time spent up to now is        1.4 secs

     total energy              =     -39.50062274 Ry
     Harris-Foulkes estimate   =     -39.50062275 Ry
     estimated scf accuracy    <       0.00000002 Ry

     iteration #  6     ecut=    35.00 Ry     beta= 0.70
     Davidson diagonalization with overlap
     ethr =  7.37E-10,  avg # of iterations =  1.0

     total cpu time spent up to now is        1.5 secs

     End of self-consistent calculation

          k = 0.0000 0.0000 0.0000 (   387 PWs)   bands (ev):

    -3.2512  20.4440  20.4440  21.8771  21.8772  21.8772

          k =-0.1111 0.1111-0.1111 (   381 PWs)   bands (ev):

    -2.9170  16.7064  19.6084  19.6084  22.5397  23.1981

          k =-0.2222 0.2222-0.2222 (   386 PWs)   bands (ev):

    -1.9188  12.3219  18.8340  18.8340  22.2148  23.0463

          k =-0.3333 0.3333-0.3333 (   389 PWs)   bands (ev):

    -0.2701   8.3475  18.5801  18.5801  21.1637  21.1637

          k =-0.4444 0.4444-0.4444 (   392 PWs)   bands (ev):

     2.0068   4.8967  18.8799  18.8799  19.7486  19.7486

          k = 0.0000 0.2222 0.0000 (   383 PWs)   bands (ev):

    -2.8057  18.0499  18.0499  18.3370  20.9341  23.1594

          k =-0.1111 0.3333-0.1111 (   384 PWs)   bands (ev):

    -2.0293  13.9623  17.0266  18.4918  20.3909  21.8968

          k =-0.2222 0.4444-0.2222 (   390 PWs)   bands (ev):

    -0.5984   9.8773  16.5654  18.1020  18.2961  24.3302

          k =-0.3333 0.5556-0.3333 (   387 PWs)   bands (ev):

     1.4676   6.2611  16.5052  16.6713  18.3871  22.7063

          k = 0.5556-0.3333 0.5556 (   391 PWs)   bands (ev):

     3.1778   4.1602  15.4156  17.3459  19.1258  21.6738

          k = 0.4444-0.2222 0.4444 (   390 PWs)   bands (ev):

     0.7101   7.4032  14.9214  18.5852  20.4411  21.1904

          k = 0.3333-0.1111 0.3333 (   386 PWs)   bands (ev):

    -1.1471  11.1676  15.0454  20.3394  21.2648  22.2804

          k = 0.2222-0.0000 0.2222 (   383 PWs)   bands (ev):

    -2.3615  14.9870  16.1345  21.3086  22.1236  23.3281

          k = 0.0000 0.4444 0.0000 (   379 PWs)   bands (ev):

    -1.4773  15.7921  15.7921  15.8421  17.4533  19.2120

          k =-0.1111 0.5556-0.1111 (   387 PWs)   bands (ev):

    -0.2707  11.9298  14.9584  15.1311  16.5795  20.2217

          k =-0.2222 0.6667-0.2222 (   391 PWs)   bands (ev):

     1.5732   8.2179  13.0488  15.0420  16.7145  23.2305

          k = 0.6667-0.2222 0.6667 (   397 PWs)   bands (ev):

     4.0144   5.0067  11.7383  15.5242  17.3047  25.0129

          k = 0.5556-0.1111 0.5556 (   397 PWs)   bands (ev):

     2.3280   7.0376  11.0788  16.5785  18.4776  24.3563

          k = 0.4444 0.0000 0.4444 (   395 PWs)   bands (ev):

     0.2751  10.0702  11.5573  18.2004  20.2010  23.8784

          k = 0.0000 0.6667 0.0000 (   387 PWs)   bands (ev):

     0.7076  12.2198  14.1069  14.2745  14.2745  17.7581

          k =-0.1111 0.7778-0.1111 (   396 PWs)   bands (ev):

     2.3185  10.0335  10.7473  13.9915  15.3292  19.1244

          k = 0.7778-0.1111 0.7778 (   388 PWs)   bands (ev):

     4.5110   7.3583   8.6109  14.2805  15.8881  22.5512

          k = 0.6667-0.0000 0.6667 (   389 PWs)   bands (ev):

     4.5564   6.7826   8.2379  15.1424  16.9066  26.4544

          k = 0.0000 0.8889 0.0000 (   392 PWs)   bands (ev):

     3.6690   7.7168  13.2295  13.5157  13.5157  16.9657

          k = 0.8889 0.0000 0.8889 (   393 PWs)   bands (ev):

     5.1432   6.4684  10.3056  13.6119  14.9059  18.7438

          k =-0.2222 0.4444 0.0000 (   389 PWs)   bands (ev):

    -1.0372  12.5374  13.8750  17.8366  19.8552  21.6291

          k =-0.3333 0.5556-0.1111 (   393 PWs)   bands (ev):

     0.6010   9.1101  13.0770  15.7706  20.2915  22.9759

          k = 0.5556-0.3333 0.7778 (   391 PWs)   bands (ev):

     2.8612   5.7275  13.3093  14.2997  20.6693  21.6684

          k =-0.2222 0.6667 0.0000 (   395 PWs)   bands (ev):

     1.1411  10.8946  12.1471  12.8099  18.2951  20.3234

          k = 0.6667-0.2222 0.8889 (   395 PWs)   bands (ev):

     3.1735   7.8604  10.8646  11.9579  19.1806  22.9994

          k = 0.5556-0.1111 0.7778 (   393 PWs)   bands (ev):

     4.8568   5.7951   9.8274  12.5806  19.9944  24.2014

          k = 0.4444 0.0000 0.6667 (   392 PWs)   bands (ev):

     2.4336   8.4255   9.9055  13.8779  21.2768  23.1386

          k = 0.7778-0.1111 1.0000 (   397 PWs)   bands (ev):

     4.0911   8.1273  10.0715  11.5393  17.4925  19.6033

          k = 0.6667-0.0000 0.8889 (   391 PWs)   bands (ev):

     5.9624   7.1579   7.6398  11.5074  18.7914  22.6863

          k = 0.5556-0.1111 1.0000 (   393 PWs)   bands (ev):

     5.3490   7.6038   8.8598   9.6734  22.3854  23.3962

     the Fermi energy is     7.8208 ev

!    total energy              =     -39.50062274 Ry
     Harris-Foulkes estimate   =     -39.50062274 Ry
     estimated scf accuracy    <          2.6E-10 Ry

     total all-electron energy =      -485.643403 Ry

     The total energy is the sum of the following terms:

     one-electron contribution =       3.15303137 Ry
     hartree contribution      =       0.00630375 Ry
     xc contribution           =      -2.58834484 Ry
     ewald contribution        =      -5.39395543 Ry
     one-center paw contrib.   =     -34.67724295 Ry
     smearing contrib. (-TS)   =      -0.00041465 Ry

     convergence has been achieved in   6 iterations

     Forces acting on atoms (cartesian axes, Ry/au):

     atom    1 type  1   force =     0.00000000    0.00000000    0.00000000

     Total force =     0.000000     Total SCF correction =     0.000000


     Computing stress (Cartesian axis) and pressure

          total   stress  (Ry/bohr**3)                   (kbar)     P=   -1.88
  -0.00001280  -0.00000000   0.00000000         -1.88     -0.00      0.00
  -0.00000000  -0.00001280   0.00000000         -0.00     -1.88      0.00
   0.00000000   0.00000000  -0.00001280          0.00      0.00     -1.88


     Writing output data file Al.save/

     init_run     :      0.12s CPU      0.13s WALL (       1 calls)
     electrons    :      0.86s CPU      0.96s WALL (       1 calls)
     forces       :      0.02s CPU      0.02s WALL (       1 calls)
     stress       :      0.04s CPU      0.04s WALL (       1 calls)

     Called by init_run:
     wfcinit      :      0.04s CPU      0.04s WALL (       1 calls)
     potinit      :      0.03s CPU      0.03s WALL (       1 calls)
     hinit0       :      0.06s CPU      0.06s WALL (       1 calls)

     Called by electrons:
     c_bands      :      0.58s CPU      0.64s WALL (       7 calls)
     sum_band     :      0.11s CPU      0.12s WALL (       7 calls)
     v_of_rho     :      0.02s CPU      0.02s WALL (       7 calls)
     newd         :      0.01s CPU      0.01s WALL (       7 calls)
     PAW_pot      :      0.16s CPU      0.20s WALL (       7 calls)
     mix_rho      :      0.00s CPU      0.00s WALL (       7 calls)

     Called by c_bands:
     init_us_2    :      0.02s CPU      0.02s WALL (     595 calls)
     cegterg      :      0.56s CPU      0.62s WALL (     245 calls)

     Called by sum_band:
     sum_band:bec :      0.00s CPU      0.00s WALL (     245 calls)
     addusdens    :      0.00s CPU      0.00s WALL (       7 calls)

     Called by *egterg:
     h_psi        :      0.47s CPU      0.51s WALL (     804 calls)
     s_psi        :      0.01s CPU      0.01s WALL (     804 calls)
     g_psi        :      0.00s CPU      0.00s WALL (     524 calls)
     cdiaghg      :      0.05s CPU      0.06s WALL (     734 calls)

     Called by h_psi:
     h_psi:pot    :      0.47s CPU      0.51s WALL (     804 calls)
     h_psi:calbec :      0.02s CPU      0.02s WALL (     804 calls)
     vloc_psi     :      0.44s CPU      0.48s WALL (     804 calls)
     add_vuspsi   :      0.01s CPU      0.01s WALL (     804 calls)

     General routines
     calbec       :      0.03s CPU      0.03s WALL (    1224 calls)
     fft          :      0.01s CPU      0.01s WALL (     104 calls)
     ffts         :      0.00s CPU      0.00s WALL (       7 calls)
     fftw         :      0.48s CPU      0.52s WALL (    9090 calls)

     Parallel routines
     fft_scatt_xy :      0.05s CPU      0.05s WALL (    9201 calls)
     fft_scatt_yz :      0.13s CPU      0.13s WALL (    9201 calls)

     PWSCF        :     1.49s CPU         1.64s WALL


   This run was terminated on:  19:59: 7  25Mar2024            

=------------------------------------------------------------------------------=
   JOB DONE.
=------------------------------------------------------------------------------=
