
     Program PWSCF v.6.3MaX starts on 25Mar2024 at 19:55:52 

     This program is part of the open-source Quantum ESPRESSO suite
     for quantum simulation of materials; please cite
         "P. Giannozzi et al., J. Phys.:Condens. Matter 21 395502 (2009);
         "P. Giannozzi et al., J. Phys.:Condens. Matter 29 465901 (2017);
          URL http://www.quantum-espresso.org", 
     in publications or presentations arising from this work. More details at
     http://www.quantum-espresso.org/quote

     Parallel version (MPI), running on     5 processors

     MPI processes distributed on     1 nodes
     R & G space division:  proc/nbgrp/npool/nimage =       5
     Waiting for input...
     Reading input from standard input

     Current dimensions of program PWSCF are:
     Max number of different atomic species (ntypx) = 10
     Max number of k-points (npk) =  40000
     Max angular momentum in pseudopotentials (lmaxx) =  3
               file Al.pbe-nl-kjpaw_psl.1.0.0.UPF: wavefunction(s)  3S 3P renormalized

     Subspace diagonalization in iterative solution of the eigenvalue problem:
     a serial algorithm will be used


     Parallelization info
     --------------------
     sticks:   dense  smooth     PW     G-vecs:    dense   smooth      PW
     Min          32      32     12                  272      272      66
     Max          33      33     13                  273      273      67
     Sum         163     163     61                 1363     1363     331



     bravais-lattice index     =            2
     lattice parameter (alat)  =       7.6500  a.u.
     unit-cell volume          =     111.9243 (a.u.)^3
     number of atoms/cell      =            1
     number of atomic types    =            1
     number of electrons       =         3.00
     number of Kohn-Sham states=            6
     kinetic-energy cutoff     =      20.0000  Ry
     charge density cutoff     =      80.0000  Ry
     convergence threshold     =      1.0E-08
     mixing beta               =       0.7000
     number of iterations used =            8  plain     mixing
     Exchange-correlation      = SLA PW PBX PBC ( 1  4  3  4 0 0)

     celldm(1)=   7.650000  celldm(2)=   0.000000  celldm(3)=   0.000000
     celldm(4)=   0.000000  celldm(5)=   0.000000  celldm(6)=   0.000000

     crystal axes: (cart. coord. in units of alat)
               a(1) = (  -0.500000   0.000000   0.500000 )  
               a(2) = (   0.000000   0.500000   0.500000 )  
               a(3) = (  -0.500000   0.500000   0.000000 )  

     reciprocal axes: (cart. coord. in units 2 pi/alat)
               b(1) = ( -1.000000 -1.000000  1.000000 )  
               b(2) = (  1.000000  1.000000  1.000000 )  
               b(3) = ( -1.000000  1.000000 -1.000000 )  


     PseudoPot. # 1 for Al read from file:
     /home/lorenzo/pseudos/Al/Al.pbe-nl-kjpaw_psl.1.0.0.UPF
     MD5 check sum: 8cf6d98cc7ef3f4b729b574060f3a10f
     Pseudo is Projector augmented-wave + core cor, Zval =  3.0
     Generated using "atomic" code by A. Dal Corso v.6.3
     Shape of augmentation charge: PSQ
     Using radial grid of 1135 points,  4 beta functions with: 
                l(1) =   0
                l(2) =   0
                l(3) =   1
                l(4) =   1
     Q(r) pseudized with 0 coefficients 


     atomic species   valence    mass     pseudopotential
        Al             3.00    26.98150     Al( 1.00)

     48 Sym. Ops., with inversion, found



   Cartesian axes

     site n.     atom                  positions (alat units)
         1           Al  tau(   1) = (   0.0000000   0.0000000   0.0000000  )

     number of k points=    16  gaussian smearing, width (Ry)=  0.0100
                       cart. coord. in units 2pi/alat
        k(    1) = (   0.0000000   0.0000000   0.0000000), wk =   0.0092593
        k(    2) = (  -0.1666667   0.1666667  -0.1666667), wk =   0.0740741
        k(    3) = (  -0.3333333   0.3333333  -0.3333333), wk =   0.0740741
        k(    4) = (   0.5000000  -0.5000000   0.5000000), wk =   0.0370370
        k(    5) = (   0.0000000   0.3333333   0.0000000), wk =   0.0555556
        k(    6) = (  -0.1666667   0.5000000  -0.1666667), wk =   0.2222222
        k(    7) = (   0.6666667  -0.3333333   0.6666667), wk =   0.2222222
        k(    8) = (   0.5000000  -0.1666667   0.5000000), wk =   0.2222222
        k(    9) = (   0.3333333   0.0000000   0.3333333), wk =   0.1111111
        k(   10) = (   0.0000000   0.6666667   0.0000000), wk =   0.0555556
        k(   11) = (   0.8333333  -0.1666667   0.8333333), wk =   0.2222222
        k(   12) = (   0.6666667  -0.0000000   0.6666667), wk =   0.1111111
        k(   13) = (   0.0000000  -1.0000000   0.0000000), wk =   0.0277778
        k(   14) = (   0.6666667  -0.3333333   1.0000000), wk =   0.2222222
        k(   15) = (   0.5000000  -0.1666667   0.8333333), wk =   0.2222222
        k(   16) = (  -0.3333333  -1.0000000   0.0000000), wk =   0.1111111

     Dense  grid:     1363 G-vectors     FFT dimensions: (  15,  15,  15)

     Estimated max dynamical RAM per process >       0.67 MB

     Estimated total dynamical RAM >       3.36 MB

     Initial potential from superposition of free atoms

     starting charge    2.99771, renormalised to    3.00000
     Starting wfcs are    4 randomized atomic wfcs +    2 random wfcs
     Checking if some PAW data can be deallocated... 

     total cpu time spent up to now is        0.8 secs

     Self-consistent Calculation

     iteration #  1     ecut=    20.00 Ry     beta= 0.70
     Davidson diagonalization with overlap
     ethr =  1.00E-02,  avg # of iterations =  4.7

     Threshold (ethr) on eigenvalues was too large:
     Diagonalizing with lowered threshold

     Davidson diagonalization with overlap
     ethr =  1.81E-04,  avg # of iterations =  2.1

     total cpu time spent up to now is        0.9 secs

     total energy              =     -39.50672807 Ry
     Harris-Foulkes estimate   =     -39.50821750 Ry
     estimated scf accuracy    <       0.00534674 Ry

     iteration #  2     ecut=    20.00 Ry     beta= 0.70
     Davidson diagonalization with overlap
     ethr =  1.78E-04,  avg # of iterations =  1.0

     total cpu time spent up to now is        0.9 secs

     total energy              =     -39.50671204 Ry
     Harris-Foulkes estimate   =     -39.50680863 Ry
     estimated scf accuracy    <       0.00036598 Ry

     iteration #  3     ecut=    20.00 Ry     beta= 0.70
     Davidson diagonalization with overlap
     ethr =  1.22E-05,  avg # of iterations =  1.5

     total cpu time spent up to now is        1.0 secs

     total energy              =     -39.50673140 Ry
     Harris-Foulkes estimate   =     -39.50673190 Ry
     estimated scf accuracy    <       0.00000148 Ry

     iteration #  4     ecut=    20.00 Ry     beta= 0.70
     Davidson diagonalization with overlap
     ethr =  4.93E-08,  avg # of iterations =  2.9

     total cpu time spent up to now is        1.1 secs

     total energy              =     -39.50673351 Ry
     Harris-Foulkes estimate   =     -39.50673352 Ry
     estimated scf accuracy    <       0.00000013 Ry

     iteration #  5     ecut=    20.00 Ry     beta= 0.70
     Davidson diagonalization with overlap
     ethr =  4.20E-09,  avg # of iterations =  1.0

     total cpu time spent up to now is        1.2 secs

     total energy              =     -39.50673353 Ry
     Harris-Foulkes estimate   =     -39.50673351 Ry
     estimated scf accuracy    <       0.00000005 Ry

     iteration #  6     ecut=    20.00 Ry     beta= 0.70
     Davidson diagonalization with overlap
     ethr =  1.60E-09,  avg # of iterations =  1.0

     total cpu time spent up to now is        1.3 secs

     End of self-consistent calculation

          k = 0.0000 0.0000 0.0000 (   169 PWs)   bands (ev):

    -3.2515  20.5396  20.5396  21.8781  21.8782  21.8782

          k =-0.1667 0.1667-0.1667 (   171 PWs)   bands (ev):

    -2.5004  14.5036  19.2059  19.2059  22.4128  23.8598

          k =-0.3333 0.3333-0.3333 (   165 PWs)   bands (ev):

    -0.2691   8.3579  18.6146  18.6146  21.2277  21.2277

          k = 0.5000-0.5000 0.5000 (   168 PWs)   bands (ev):

     3.2773   3.4840  19.1968  19.1968  19.3824  19.3824

          k = 0.0000 0.3333 0.0000 (   169 PWs)   bands (ev):

    -2.2507  16.8561  16.8561  17.0698  20.0611  20.3674

          k =-0.1667 0.5000-0.1667 (   169 PWs)   bands (ev):

    -0.5160  10.8629  15.7920  16.5463  17.4580  22.3366

          k = 0.6667-0.3333 0.6667 (   168 PWs)   bands (ev):

     2.6495   5.5296  14.0729  16.0204  17.8204  23.8553

          k = 0.5000-0.1667 0.5000 (   166 PWs)   bands (ev):

     1.4423   7.1594  12.9590  17.5409  19.4802  22.7851

          k = 0.3333 0.0000 0.3333 (   164 PWs)   bands (ev):

    -1.2566  12.3544  13.7413  20.3063  22.3326  22.4823

          k = 0.0000 0.6667 0.0000 (   170 PWs)   bands (ev):

     0.7088  12.2378  14.1614  14.2811  14.2811  17.7797

          k = 0.8333-0.1667 0.8333 (   172 PWs)   bands (ev):

     3.3509   8.9010   9.3570  14.0690  15.6158  20.7639

          k = 0.6667-0.0000 0.6667 (   172 PWs)   bands (ev):

     4.5598   6.7870   8.2477  15.1530  16.9473  26.5371

          k = 0.0000-1.0000 0.0000 (   174 PWs)   bands (ev):

     4.9382   6.2630  13.1692  13.4218  13.4218  16.8885

          k = 0.6667-0.3333 1.0000 (   171 PWs)   bands (ev):

     1.6826   9.5715  11.0164  13.2192  20.6945  22.2745

          k = 0.5000-0.1667 0.8333 (   172 PWs)   bands (ev):

     5.1318   5.3906  10.8725  11.4105  21.8542  22.3938

          k =-0.3333-1.0000 0.0000 (   172 PWs)   bands (ev):

     5.8620   7.2133   8.6436  10.1901  19.8050  21.5947

     the Fermi energy is     8.2158 ev

!    total energy              =     -39.50673352 Ry
     Harris-Foulkes estimate   =     -39.50673353 Ry
     estimated scf accuracy    <          4.2E-10 Ry

     total all-electron energy =      -485.649514 Ry

     The total energy is the sum of the following terms:

     one-electron contribution =       3.14862231 Ry
     hartree contribution      =       0.00560240 Ry
     xc contribution           =      -2.58812878 Ry
     ewald contribution        =      -5.39395546 Ry
     one-center paw contrib.   =     -34.67850712 Ry
     smearing contrib. (-TS)   =      -0.00036687 Ry

     convergence has been achieved in   6 iterations

     Forces acting on atoms (cartesian axes, Ry/au):

     atom    1 type  1   force =     0.00000000    0.00000000    0.00000000

     Total force =     0.000000     Total SCF correction =     0.000000


     Computing stress (Cartesian axis) and pressure

          total   stress  (Ry/bohr**3)                   (kbar)     P=   -0.17
  -0.00000115   0.00000000   0.00000000         -0.17      0.00      0.00
   0.00000000  -0.00000115  -0.00000000          0.00     -0.17     -0.00
   0.00000000  -0.00000000  -0.00000115          0.00     -0.00     -0.17


     Writing output data file Al.save/

     init_run     :      0.08s CPU      0.09s WALL (       1 calls)
     electrons    :      0.43s CPU      0.50s WALL (       1 calls)
     forces       :      0.01s CPU      0.01s WALL (       1 calls)
     stress       :      0.02s CPU      0.02s WALL (       1 calls)

     Called by init_run:
     wfcinit      :      0.01s CPU      0.01s WALL (       1 calls)
     potinit      :      0.03s CPU      0.03s WALL (       1 calls)
     hinit0       :      0.04s CPU      0.04s WALL (       1 calls)

     Called by electrons:
     c_bands      :      0.20s CPU      0.23s WALL (       7 calls)
     sum_band     :      0.04s CPU      0.04s WALL (       7 calls)
     v_of_rho     :      0.01s CPU      0.01s WALL (       7 calls)
     newd         :      0.00s CPU      0.00s WALL (       7 calls)
     PAW_pot      :      0.20s CPU      0.25s WALL (       7 calls)
     mix_rho      :      0.00s CPU      0.00s WALL (       7 calls)

     Called by c_bands:
     init_us_2    :      0.01s CPU      0.01s WALL (     272 calls)
     cegterg      :      0.20s CPU      0.22s WALL (     112 calls)

     Called by sum_band:
     sum_band:bec :      0.00s CPU      0.00s WALL (     112 calls)
     addusdens    :      0.00s CPU      0.00s WALL (       7 calls)

     Called by *egterg:
     h_psi        :      0.14s CPU      0.15s WALL (     355 calls)
     s_psi        :      0.00s CPU      0.00s WALL (     355 calls)
     g_psi        :      0.00s CPU      0.00s WALL (     227 calls)
     cdiaghg      :      0.03s CPU      0.03s WALL (     323 calls)

     Called by h_psi:
     h_psi:pot    :      0.14s CPU      0.15s WALL (     355 calls)
     h_psi:calbec :      0.01s CPU      0.01s WALL (     355 calls)
     vloc_psi     :      0.12s CPU      0.13s WALL (     355 calls)
     add_vuspsi   :      0.00s CPU      0.00s WALL (     355 calls)

     General routines
     calbec       :      0.02s CPU      0.02s WALL (     547 calls)
     fft          :      0.01s CPU      0.01s WALL (     104 calls)
     ffts         :      0.00s CPU      0.00s WALL (       7 calls)
     fftw         :      0.13s CPU      0.14s WALL (    4092 calls)

     Parallel routines
     fft_scatt_xy :      0.01s CPU      0.01s WALL (    4203 calls)
     fft_scatt_yz :      0.08s CPU      0.08s WALL (    4203 calls)

     PWSCF        :     1.24s CPU         1.37s WALL


   This run was terminated on:  19:55:53  25Mar2024            

=------------------------------------------------------------------------------=
   JOB DONE.
=------------------------------------------------------------------------------=
