
     Program PWSCF v.6.3MaX starts on 25Mar2024 at 19:55: 7 

     This program is part of the open-source Quantum ESPRESSO suite
     for quantum simulation of materials; please cite
         "P. Giannozzi et al., J. Phys.:Condens. Matter 21 395502 (2009);
         "P. Giannozzi et al., J. Phys.:Condens. Matter 29 465901 (2017);
          URL http://www.quantum-espresso.org", 
     in publications or presentations arising from this work. More details at
     http://www.quantum-espresso.org/quote

     Parallel version (MPI), running on     5 processors

     MPI processes distributed on     1 nodes
     R & G space division:  proc/nbgrp/npool/nimage =       5
     Waiting for input...
     Reading input from standard input

     Current dimensions of program PWSCF are:
     Max number of different atomic species (ntypx) = 10
     Max number of k-points (npk) =  40000
     Max angular momentum in pseudopotentials (lmaxx) =  3
               file Al.pbe-n-kjpaw_psl.1.0.0.UPF: wavefunction(s)  3S 3P renormalized

     Subspace diagonalization in iterative solution of the eigenvalue problem:
     a serial algorithm will be used


     Parallelization info
     --------------------
     sticks:   dense  smooth     PW     G-vecs:    dense   smooth      PW
     Min          24      24     11                  178      178      45
     Max          25      25     11                  181      181      46
     Sum         121     121     55                  893      893     229



     bravais-lattice index     =            2
     lattice parameter (alat)  =       7.6500  a.u.
     unit-cell volume          =     111.9243 (a.u.)^3
     number of atoms/cell      =            1
     number of atomic types    =            1
     number of electrons       =         3.00
     number of Kohn-Sham states=            6
     kinetic-energy cutoff     =      15.0000  Ry
     charge density cutoff     =      60.0000  Ry
     convergence threshold     =      1.0E-08
     mixing beta               =       0.7000
     number of iterations used =            8  plain     mixing
     Exchange-correlation      = SLA PW PBX PBC ( 1  4  3  4 0 0)

     celldm(1)=   7.650000  celldm(2)=   0.000000  celldm(3)=   0.000000
     celldm(4)=   0.000000  celldm(5)=   0.000000  celldm(6)=   0.000000

     crystal axes: (cart. coord. in units of alat)
               a(1) = (  -0.500000   0.000000   0.500000 )  
               a(2) = (   0.000000   0.500000   0.500000 )  
               a(3) = (  -0.500000   0.500000   0.000000 )  

     reciprocal axes: (cart. coord. in units 2 pi/alat)
               b(1) = ( -1.000000 -1.000000  1.000000 )  
               b(2) = (  1.000000  1.000000  1.000000 )  
               b(3) = ( -1.000000  1.000000 -1.000000 )  


     PseudoPot. # 1 for Al read from file:
     /home/lorenzo/pseudos/Al/Al.pbe-n-kjpaw_psl.1.0.0.UPF
     MD5 check sum: 502b6b27b9c6270cab5dd1084b96fa6d
     Pseudo is Projector augmented-wave + core cor, Zval =  3.0
     Generated using "atomic" code by A. Dal Corso v.6.3
     Shape of augmentation charge: PSQ
     Using radial grid of 1135 points,  6 beta functions with: 
                l(1) =   0
                l(2) =   0
                l(3) =   1
                l(4) =   1
                l(5) =   2
                l(6) =   2
     Q(r) pseudized with 0 coefficients 


     atomic species   valence    mass     pseudopotential
        Al             3.00    26.98150     Al( 1.00)

     48 Sym. Ops., with inversion, found



   Cartesian axes

     site n.     atom                  positions (alat units)
         1           Al  tau(   1) = (   0.0000000   0.0000000   0.0000000  )

     number of k points=    35  gaussian smearing, width (Ry)=  0.0100
                       cart. coord. in units 2pi/alat
        k(    1) = (   0.0000000   0.0000000   0.0000000), wk =   0.0027435
        k(    2) = (  -0.1111111   0.1111111  -0.1111111), wk =   0.0219479
        k(    3) = (  -0.2222222   0.2222222  -0.2222222), wk =   0.0219479
        k(    4) = (  -0.3333333   0.3333333  -0.3333333), wk =   0.0219479
        k(    5) = (  -0.4444444   0.4444444  -0.4444444), wk =   0.0219479
        k(    6) = (   0.0000000   0.2222222   0.0000000), wk =   0.0164609
        k(    7) = (  -0.1111111   0.3333333  -0.1111111), wk =   0.0658436
        k(    8) = (  -0.2222222   0.4444444  -0.2222222), wk =   0.0658436
        k(    9) = (  -0.3333333   0.5555556  -0.3333333), wk =   0.0658436
        k(   10) = (   0.5555556  -0.3333333   0.5555556), wk =   0.0658436
        k(   11) = (   0.4444444  -0.2222222   0.4444444), wk =   0.0658436
        k(   12) = (   0.3333333  -0.1111111   0.3333333), wk =   0.0658436
        k(   13) = (   0.2222222  -0.0000000   0.2222222), wk =   0.0329218
        k(   14) = (   0.0000000   0.4444444   0.0000000), wk =   0.0164609
        k(   15) = (  -0.1111111   0.5555556  -0.1111111), wk =   0.0658436
        k(   16) = (  -0.2222222   0.6666667  -0.2222222), wk =   0.0658436
        k(   17) = (   0.6666667  -0.2222222   0.6666667), wk =   0.0658436
        k(   18) = (   0.5555556  -0.1111111   0.5555556), wk =   0.0658436
        k(   19) = (   0.4444444   0.0000000   0.4444444), wk =   0.0329218
        k(   20) = (   0.0000000   0.6666667   0.0000000), wk =   0.0164609
        k(   21) = (  -0.1111111   0.7777778  -0.1111111), wk =   0.0658436
        k(   22) = (   0.7777778  -0.1111111   0.7777778), wk =   0.0658436
        k(   23) = (   0.6666667  -0.0000000   0.6666667), wk =   0.0329218
        k(   24) = (   0.0000000   0.8888889   0.0000000), wk =   0.0164609
        k(   25) = (   0.8888889   0.0000000   0.8888889), wk =   0.0329218
        k(   26) = (  -0.2222222   0.4444444   0.0000000), wk =   0.0658436
        k(   27) = (  -0.3333333   0.5555556  -0.1111111), wk =   0.1316872
        k(   28) = (   0.5555556  -0.3333333   0.7777778), wk =   0.1316872
        k(   29) = (  -0.2222222   0.6666667   0.0000000), wk =   0.0658436
        k(   30) = (   0.6666667  -0.2222222   0.8888889), wk =   0.1316872
        k(   31) = (   0.5555556  -0.1111111   0.7777778), wk =   0.1316872
        k(   32) = (   0.4444444   0.0000000   0.6666667), wk =   0.0658436
        k(   33) = (   0.7777778  -0.1111111   1.0000000), wk =   0.0658436
        k(   34) = (   0.6666667  -0.0000000   0.8888889), wk =   0.0658436
        k(   35) = (   0.5555556  -0.1111111   1.0000000), wk =   0.0658436

     Dense  grid:      893 G-vectors     FFT dimensions: (  15,  15,  15)

     Estimated max dynamical RAM per process >       1.51 MB

     Estimated total dynamical RAM >       7.57 MB

     Initial potential from superposition of free atoms

     starting charge    2.99771, renormalised to    3.00000
     Starting wfcs are    4 randomized atomic wfcs +    2 random wfcs
     Checking if some PAW data can be deallocated... 

     total cpu time spent up to now is        1.3 secs

     Self-consistent Calculation

     iteration #  1     ecut=    15.00 Ry     beta= 0.70
     Davidson diagonalization with overlap
     ethr =  1.00E-02,  avg # of iterations =  4.5

     Threshold (ethr) on eigenvalues was too large:
     Diagonalizing with lowered threshold

     Davidson diagonalization with overlap
     ethr =  1.82E-04,  avg # of iterations =  1.3

     total cpu time spent up to now is        1.7 secs

     total energy              =     -39.49959249 Ry
     Harris-Foulkes estimate   =     -39.50072419 Ry
     estimated scf accuracy    <       0.00540417 Ry

     iteration #  2     ecut=    15.00 Ry     beta= 0.70
     Davidson diagonalization with overlap
     ethr =  1.80E-04,  avg # of iterations =  1.0

     total cpu time spent up to now is        2.0 secs

     total energy              =     -39.49954823 Ry
     Harris-Foulkes estimate   =     -39.49963631 Ry
     estimated scf accuracy    <       0.00039857 Ry

     iteration #  3     ecut=    15.00 Ry     beta= 0.70
     Davidson diagonalization with overlap
     ethr =  1.33E-05,  avg # of iterations =  1.6

     total cpu time spent up to now is        2.2 secs

     total energy              =     -39.49955598 Ry
     Harris-Foulkes estimate   =     -39.49955612 Ry
     estimated scf accuracy    <       0.00000044 Ry

     iteration #  4     ecut=    15.00 Ry     beta= 0.70
     Davidson diagonalization with overlap
     ethr =  1.46E-08,  avg # of iterations =  3.1

     total cpu time spent up to now is        2.5 secs

     total energy              =     -39.49955715 Ry
     Harris-Foulkes estimate   =     -39.49955716 Ry
     estimated scf accuracy    <       0.00000001 Ry

     iteration #  5     ecut=    15.00 Ry     beta= 0.70
     Davidson diagonalization with overlap
     ethr =  4.57E-10,  avg # of iterations =  1.3

     total cpu time spent up to now is        2.8 secs

     End of self-consistent calculation

          k = 0.0000 0.0000 0.0000 (   113 PWs)   bands (ev):

    -3.2449  20.5270  20.5270  21.8966  21.8967  21.8967

          k =-0.1111 0.1111-0.1111 (   113 PWs)   bands (ev):

    -2.9108  16.7457  19.6627  19.6627  22.5913  23.2508

          k =-0.2222 0.2222-0.2222 (   107 PWs)   bands (ev):

    -1.9122  12.3454  18.8800  18.8800  22.2763  23.1247

          k =-0.3333 0.3333-0.3333 (   111 PWs)   bands (ev):

    -0.2636   8.3583  18.6158  18.6158  21.2224  21.2224

          k =-0.4444 0.4444-0.4444 (   108 PWs)   bands (ev):

     2.0131   4.9043  18.9204  18.9204  19.8066  19.8066

          k = 0.0000 0.2222 0.0000 (   113 PWs)   bands (ev):

    -2.7996  18.0883  18.0883  18.4052  20.9540  23.2408

          k =-0.1111 0.3333-0.1111 (   112 PWs)   bands (ev):

    -2.0231  13.9855  17.0566  18.5443  20.4452  21.9482

          k =-0.2222 0.4444-0.2222 (   109 PWs)   bands (ev):

    -0.5920   9.8911  16.5925  18.1602  18.3258  24.3328

          k =-0.3333 0.5556-0.3333 (   110 PWs)   bands (ev):

     1.4739   6.2697  16.5369  16.6981  18.4283  22.7787

          k = 0.5556-0.3333 0.5556 (   112 PWs)   bands (ev):

     3.1838   4.1678  15.4425  17.3745  19.1716  21.7323

          k = 0.4444-0.2222 0.4444 (   109 PWs)   bands (ev):

     0.7165   7.4131  14.9454  18.6247  20.4925  21.2616

          k = 0.3333-0.1111 0.3333 (   106 PWs)   bands (ev):

    -1.1405  11.1874  15.0715  20.3869  21.3524  22.3470

          k = 0.2222-0.0000 0.2222 (   115 PWs)   bands (ev):

    -2.3556  15.0147  16.1606  21.3967  22.1430  23.4153

          k = 0.0000 0.4444 0.0000 (   113 PWs)   bands (ev):

    -1.4713  15.8136  15.8136  15.8960  17.4993  19.2397

          k =-0.1111 0.5556-0.1111 (   115 PWs)   bands (ev):

    -0.2645  11.9465  14.9809  15.1500  16.6138  20.2556

          k =-0.2222 0.6667-0.2222 (   111 PWs)   bands (ev):

     1.5794   8.2286  13.0667  15.0615  16.7499  23.2879

          k = 0.6667-0.2222 0.6667 (   109 PWs)   bands (ev):

     4.0209   5.0148  11.7540  15.5465  17.3435  25.1156

          k = 0.5556-0.1111 0.5556 (   109 PWs)   bands (ev):

     2.3343   7.0469  11.0935  16.6055  18.5230  24.4528

          k = 0.4444 0.0000 0.4444 (   113 PWs)   bands (ev):

     0.2814  10.0831  11.5720  18.2328  20.2483  24.0003

          k = 0.0000 0.6667 0.0000 (   113 PWs)   bands (ev):

     0.7138  12.2350  14.1344  14.2907  14.2907  17.7798

          k =-0.1111 0.7778-0.1111 (   110 PWs)   bands (ev):

     2.3249  10.0474  10.7599  14.0057  15.3593  19.1570

          k = 0.7778-0.1111 0.7778 (   108 PWs)   bands (ev):

     4.5175   7.3676   8.6223  14.2958  15.9202  22.6065

          k = 0.6667-0.0000 0.6667 (   108 PWs)   bands (ev):

     4.5627   6.7902   8.2506  15.1625  16.9458  26.5345

          k = 0.0000 0.8889 0.0000 (   112 PWs)   bands (ev):

     3.6752   7.7270  13.2552  13.5273  13.5273  16.9894

          k = 0.8889 0.0000 0.8889 (   110 PWs)   bands (ev):

     5.1481   6.4800  10.3181  13.6237  14.9329  18.7760

          k =-0.2222 0.4444 0.0000 (   112 PWs)   bands (ev):

    -1.0309  12.5579  13.8934  17.8765  19.9115  21.6737

          k =-0.3333 0.5556-0.1111 (   109 PWs)   bands (ev):

     0.6073   9.1227  13.0958  15.7999  20.3470  23.0387

          k = 0.5556-0.3333 0.7778 (   110 PWs)   bands (ev):

     2.8675   5.7359  13.3292  14.3202  20.7178  21.7354

          k =-0.2222 0.6667 0.0000 (   112 PWs)   bands (ev):

     1.1471  10.9088  12.1616  12.8241  18.3437  20.3540

          k = 0.6667-0.2222 0.8889 (   108 PWs)   bands (ev):

     3.1800   7.8706  10.8799  11.9714  19.2286  23.0539

          k = 0.5556-0.1111 0.7778 (   107 PWs)   bands (ev):

     4.8638   5.8032   9.8409  12.5964  20.0452  24.2890

          k = 0.4444 0.0000 0.6667 (   110 PWs)   bands (ev):

     2.4398   8.4365   9.9175  13.8962  21.3273  23.2276

          k = 0.7778-0.1111 1.0000 (   108 PWs)   bands (ev):

     4.0975   8.1388  10.0847  11.5511  17.5336  19.6345

          k = 0.6667-0.0000 0.8889 (   106 PWs)   bands (ev):

     5.9686   7.1681   7.6507  11.5210  18.8370  22.7403

          k = 0.5556-0.1111 1.0000 (   107 PWs)   bands (ev):

     5.3563   7.6126   8.8728   9.6850  22.4638  23.4394

     the Fermi energy is     7.8310 ev

!    total energy              =     -39.49955715 Ry
     Harris-Foulkes estimate   =     -39.49955715 Ry
     estimated scf accuracy    <          5.6E-10 Ry

     total all-electron energy =      -485.642337 Ry

     The total energy is the sum of the following terms:

     one-electron contribution =       3.15636513 Ry
     hartree contribution      =       0.00594403 Ry
     xc contribution           =      -2.58822432 Ry
     ewald contribution        =      -5.39395544 Ry
     one-center paw contrib.   =     -34.67927198 Ry
     smearing contrib. (-TS)   =      -0.00041457 Ry

     convergence has been achieved in   5 iterations

     Forces acting on atoms (cartesian axes, Ry/au):

     atom    1 type  1   force =     0.00000000    0.00000000    0.00000000

     Total force =     0.000000     Total SCF correction =     0.000000


     Computing stress (Cartesian axis) and pressure

          total   stress  (Ry/bohr**3)                   (kbar)     P=   -1.67
  -0.00001133  -0.00000000  -0.00000000         -1.67     -0.00     -0.00
  -0.00000000  -0.00001133   0.00000000         -0.00     -1.67      0.00
  -0.00000000   0.00000000  -0.00001133         -0.00      0.00     -1.67


     Writing output data file Al.save/

     init_run     :      0.37s CPU      0.40s WALL (       1 calls)
     electrons    :      1.35s CPU      1.54s WALL (       1 calls)
     forces       :      0.01s CPU      0.02s WALL (       1 calls)
     stress       :      0.03s CPU      0.03s WALL (       1 calls)

     Called by init_run:
     wfcinit      :      0.05s CPU      0.06s WALL (       1 calls)
     potinit      :      0.18s CPU      0.19s WALL (       1 calls)
     hinit0       :      0.11s CPU      0.12s WALL (       1 calls)

     Called by electrons:
     c_bands      :      0.54s CPU      0.61s WALL (       6 calls)
     sum_band     :      0.10s CPU      0.12s WALL (       6 calls)
     v_of_rho     :      0.01s CPU      0.01s WALL (       6 calls)
     newd         :      0.01s CPU      0.01s WALL (       6 calls)
     PAW_pot      :      0.85s CPU      0.96s WALL (       6 calls)
     mix_rho      :      0.00s CPU      0.00s WALL (       6 calls)

     Called by c_bands:
     init_us_2    :      0.01s CPU      0.01s WALL (     525 calls)
     cegterg      :      0.52s CPU      0.58s WALL (     210 calls)

     Called by sum_band:
     sum_band:bec :      0.00s CPU      0.00s WALL (     210 calls)
     addusdens    :      0.01s CPU      0.01s WALL (       6 calls)

     Called by *egterg:
     h_psi        :      0.38s CPU      0.42s WALL (     696 calls)
     s_psi        :      0.01s CPU      0.01s WALL (     696 calls)
     g_psi        :      0.00s CPU      0.00s WALL (     451 calls)
     cdiaghg      :      0.08s CPU      0.09s WALL (     626 calls)

     Called by h_psi:
     h_psi:pot    :      0.38s CPU      0.42s WALL (     696 calls)
     h_psi:calbec :      0.04s CPU      0.04s WALL (     696 calls)
     vloc_psi     :      0.33s CPU      0.36s WALL (     696 calls)
     add_vuspsi   :      0.01s CPU      0.01s WALL (     696 calls)

     General routines
     calbec       :      0.05s CPU      0.05s WALL (    1081 calls)
     fft          :      0.01s CPU      0.01s WALL (      93 calls)
     ffts         :      0.00s CPU      0.00s WALL (       6 calls)
     fftw         :      0.36s CPU      0.41s WALL (    7874 calls)

     Parallel routines
     fft_scatt_xy :      0.02s CPU      0.03s WALL (    7973 calls)
     fft_scatt_yz :      0.23s CPU      0.25s WALL (    7973 calls)

     PWSCF        :     2.66s CPU         2.97s WALL


   This run was terminated on:  19:55:10  25Mar2024            

=------------------------------------------------------------------------------=
   JOB DONE.
=------------------------------------------------------------------------------=
