
     Program PWSCF v.6.3MaX starts on 25Mar2024 at 20: 1:18 

     This program is part of the open-source Quantum ESPRESSO suite
     for quantum simulation of materials; please cite
         "P. Giannozzi et al., J. Phys.:Condens. Matter 21 395502 (2009);
         "P. Giannozzi et al., J. Phys.:Condens. Matter 29 465901 (2017);
          URL http://www.quantum-espresso.org", 
     in publications or presentations arising from this work. More details at
     http://www.quantum-espresso.org/quote

     Parallel version (MPI), running on     5 processors

     MPI processes distributed on     1 nodes
     R & G space division:  proc/nbgrp/npool/nimage =       5
     Waiting for input...
     Reading input from standard input

     Current dimensions of program PWSCF are:
     Max number of different atomic species (ntypx) = 10
     Max number of k-points (npk) =  40000
     Max angular momentum in pseudopotentials (lmaxx) =  3
               file Al.pbe-n-kjpaw_psl.1.0.0.UPF: wavefunction(s)  3S 3P renormalized

     Subspace diagonalization in iterative solution of the eigenvalue problem:
     a serial algorithm will be used


     Parallelization info
     --------------------
     sticks:   dense  smooth     PW     G-vecs:    dense   smooth      PW
     Min          72      72     24                  914      914     178
     Max          73      73     25                  916      916     181
     Sum         361     361    121                 4573     4573     893



     bravais-lattice index     =            2
     lattice parameter (alat)  =       7.6500  a.u.
     unit-cell volume          =     111.9243 (a.u.)^3
     number of atoms/cell      =            1
     number of atomic types    =            1
     number of electrons       =         3.00
     number of Kohn-Sham states=            6
     kinetic-energy cutoff     =      45.0000  Ry
     charge density cutoff     =     180.0000  Ry
     convergence threshold     =      1.0E-08
     mixing beta               =       0.7000
     number of iterations used =            8  plain     mixing
     Exchange-correlation      = SLA PW PBX PBC ( 1  4  3  4 0 0)

     celldm(1)=   7.650000  celldm(2)=   0.000000  celldm(3)=   0.000000
     celldm(4)=   0.000000  celldm(5)=   0.000000  celldm(6)=   0.000000

     crystal axes: (cart. coord. in units of alat)
               a(1) = (  -0.500000   0.000000   0.500000 )  
               a(2) = (   0.000000   0.500000   0.500000 )  
               a(3) = (  -0.500000   0.500000   0.000000 )  

     reciprocal axes: (cart. coord. in units 2 pi/alat)
               b(1) = ( -1.000000 -1.000000  1.000000 )  
               b(2) = (  1.000000  1.000000  1.000000 )  
               b(3) = ( -1.000000  1.000000 -1.000000 )  


     PseudoPot. # 1 for Al read from file:
     /home/lorenzo/pseudos/Al/Al.pbe-n-kjpaw_psl.1.0.0.UPF
     MD5 check sum: 502b6b27b9c6270cab5dd1084b96fa6d
     Pseudo is Projector augmented-wave + core cor, Zval =  3.0
     Generated using "atomic" code by A. Dal Corso v.6.3
     Shape of augmentation charge: PSQ
     Using radial grid of 1135 points,  6 beta functions with: 
                l(1) =   0
                l(2) =   0
                l(3) =   1
                l(4) =   1
                l(5) =   2
                l(6) =   2
     Q(r) pseudized with 0 coefficients 


     atomic species   valence    mass     pseudopotential
        Al             3.00    26.98150     Al( 1.00)

     48 Sym. Ops., with inversion, found



   Cartesian axes

     site n.     atom                  positions (alat units)
         1           Al  tau(   1) = (   0.0000000   0.0000000   0.0000000  )

     number of k points=    29  gaussian smearing, width (Ry)=  0.0100
                       cart. coord. in units 2pi/alat
        k(    1) = (   0.0000000   0.0000000   0.0000000), wk =   0.0039062
        k(    2) = (  -0.1250000   0.1250000  -0.1250000), wk =   0.0312500
        k(    3) = (  -0.2500000   0.2500000  -0.2500000), wk =   0.0312500
        k(    4) = (  -0.3750000   0.3750000  -0.3750000), wk =   0.0312500
        k(    5) = (   0.5000000  -0.5000000   0.5000000), wk =   0.0156250
        k(    6) = (   0.0000000   0.2500000   0.0000000), wk =   0.0234375
        k(    7) = (  -0.1250000   0.3750000  -0.1250000), wk =   0.0937500
        k(    8) = (  -0.2500000   0.5000000  -0.2500000), wk =   0.0937500
        k(    9) = (   0.6250000  -0.3750000   0.6250000), wk =   0.0937500
        k(   10) = (   0.5000000  -0.2500000   0.5000000), wk =   0.0937500
        k(   11) = (   0.3750000  -0.1250000   0.3750000), wk =   0.0937500
        k(   12) = (   0.2500000   0.0000000   0.2500000), wk =   0.0468750
        k(   13) = (   0.0000000   0.5000000   0.0000000), wk =   0.0234375
        k(   14) = (  -0.1250000   0.6250000  -0.1250000), wk =   0.0937500
        k(   15) = (   0.7500000  -0.2500000   0.7500000), wk =   0.0937500
        k(   16) = (   0.6250000  -0.1250000   0.6250000), wk =   0.0937500
        k(   17) = (   0.5000000   0.0000000   0.5000000), wk =   0.0468750
        k(   18) = (   0.0000000   0.7500000   0.0000000), wk =   0.0234375
        k(   19) = (   0.8750000  -0.1250000   0.8750000), wk =   0.0937500
        k(   20) = (   0.7500000   0.0000000   0.7500000), wk =   0.0468750
        k(   21) = (   0.0000000  -1.0000000   0.0000000), wk =   0.0117188
        k(   22) = (  -0.2500000   0.5000000   0.0000000), wk =   0.0937500
        k(   23) = (   0.6250000  -0.3750000   0.8750000), wk =   0.1875000
        k(   24) = (   0.5000000  -0.2500000   0.7500000), wk =   0.0937500
        k(   25) = (   0.7500000  -0.2500000   1.0000000), wk =   0.0937500
        k(   26) = (   0.6250000  -0.1250000   0.8750000), wk =   0.1875000
        k(   27) = (   0.5000000   0.0000000   0.7500000), wk =   0.0937500
        k(   28) = (  -0.2500000  -1.0000000   0.0000000), wk =   0.0468750
        k(   29) = (  -0.5000000  -1.0000000   0.0000000), wk =   0.0234375

     Dense  grid:     4573 G-vectors     FFT dimensions: (  24,  24,  24)

     Estimated max dynamical RAM per process >       5.04 MB

     Estimated total dynamical RAM >      25.20 MB

     Initial potential from superposition of free atoms

     starting charge    2.99771, renormalised to    3.00000
     Starting wfcs are    4 randomized atomic wfcs +    2 random wfcs
     Checking if some PAW data can be deallocated... 

     total cpu time spent up to now is        1.0 secs

     Self-consistent Calculation

     iteration #  1     ecut=    45.00 Ry     beta= 0.70
     Davidson diagonalization with overlap
     ethr =  1.00E-02,  avg # of iterations =  4.8

     Threshold (ethr) on eigenvalues was too large:
     Diagonalizing with lowered threshold

     Davidson diagonalization with overlap
     ethr =  1.86E-04,  avg # of iterations =  2.0

     total cpu time spent up to now is        1.4 secs

     total energy              =     -39.50256380 Ry
     Harris-Foulkes estimate   =     -39.50369398 Ry
     estimated scf accuracy    <       0.00550272 Ry

     iteration #  2     ecut=    45.00 Ry     beta= 0.70
     Davidson diagonalization with overlap
     ethr =  1.83E-04,  avg # of iterations =  1.0

     total cpu time spent up to now is        1.6 secs

     total energy              =     -39.50252084 Ry
     Harris-Foulkes estimate   =     -39.50260851 Ry
     estimated scf accuracy    <       0.00040928 Ry

     iteration #  3     ecut=    45.00 Ry     beta= 0.70
     Davidson diagonalization with overlap
     ethr =  1.36E-05,  avg # of iterations =  1.7

     total cpu time spent up to now is        1.9 secs

     total energy              =     -39.50252935 Ry
     Harris-Foulkes estimate   =     -39.50252945 Ry
     estimated scf accuracy    <       0.00000046 Ry

     iteration #  4     ecut=    45.00 Ry     beta= 0.70
     Davidson diagonalization with overlap
     ethr =  1.53E-08,  avg # of iterations =  2.8

     total cpu time spent up to now is        2.1 secs

     total energy              =     -39.50253098 Ry
     Harris-Foulkes estimate   =     -39.50253101 Ry
     estimated scf accuracy    <       0.00000004 Ry

     iteration #  5     ecut=    45.00 Ry     beta= 0.70
     Davidson diagonalization with overlap
     ethr =  1.25E-09,  avg # of iterations =  1.2

     total cpu time spent up to now is        2.3 secs

     End of self-consistent calculation

          k = 0.0000 0.0000 0.0000 (   537 PWs)   bands (ev):

    -3.2488  20.4351  20.4351  21.8950  21.8950  21.8950

          k =-0.1250 0.1250-0.1250 (   567 PWs)   bands (ev):

    -2.8257  16.1467  19.4876  19.4876  22.5334  23.4315

          k =-0.2500 0.2500-0.2500 (   573 PWs)   bands (ev):

    -1.5641  11.2841  18.7230  18.7230  22.1779  22.5519

          k =-0.3750 0.3750-0.3750 (   580 PWs)   bands (ev):

     0.5142   6.9894  18.6318  18.6318  20.5725  20.5725

          k = 0.5000-0.5000 0.5000 (   568 PWs)   bands (ev):

     3.2787   3.4811  19.2128  19.2128  19.2831  19.2831

          k = 0.0000 0.2500 0.0000 (   564 PWs)   bands (ev):

    -2.6850  17.7321  17.7321  17.9954  20.7432  22.4492

          k =-0.1250 0.3750-0.1250 (   571 PWs)   bands (ev):

    -1.7037  13.1421  16.6703  18.1907  19.4193  21.9475

          k =-0.2500 0.5000-0.2500 (   579 PWs)   bands (ev):

     0.1007   8.6855  16.3232  17.0486  18.0273  24.0345

          k = 0.6250-0.3750 0.6250 (   573 PWs)   bands (ev):

     2.6953   4.8625  15.4244  16.6948  18.4655  22.5261

          k = 0.5000-0.2500 0.5000 (   575 PWs)   bands (ev):

     1.7464   6.0547  14.5446  17.7862  19.6483  21.6853

          k = 0.3750-0.1250 0.3750 (   574 PWs)   bands (ev):

    -0.5906  10.0843  14.4453  19.5785  21.5325  21.5325

          k = 0.2500 0.0000 0.2500 (   560 PWs)   bands (ev):

    -2.1235  14.2878  15.5214  21.5337  21.8333  23.1731

          k = 0.0000 0.5000 0.0000 (   576 PWs)   bands (ev):

    -1.0071  15.3269  15.3476  15.3476  16.0902  18.8091

          k =-0.1250 0.6250-0.1250 (   571 PWs)   bands (ev):

     0.5127  11.0698  13.4221  14.7513  16.2169  20.2252

          k = 0.7500-0.2500 0.7500 (   573 PWs)   bands (ev):

     2.8252   7.1008  11.4990  14.8777  16.5583  23.8908

          k = 0.6250-0.1250 0.6250 (   570 PWs)   bands (ev):

     3.7716   5.8827  10.3777  15.7271  17.5489  25.4409

          k = 0.5000 0.0000 0.5000 (   574 PWs)   bands (ev):

     1.1998   9.0928  10.5930  17.3001  19.2645  25.4113

          k = 0.0000 0.7500 0.0000 (   568 PWs)   bands (ev):

     1.7396  10.4331  13.6680  13.9096  13.9096  17.3770

          k = 0.8750-0.1250 0.8750 (   570 PWs)   bands (ev):

     3.7374   8.2249  10.0596  13.7918  15.1521  19.2870

          k = 0.7500 0.0000 0.7500 (   572 PWs)   bands (ev):

     5.9770   6.5011   7.4482  14.3966  16.0327  23.4758

          k = 0.0000-1.0000 0.0000 (   588 PWs)   bands (ev):

     4.9420   6.2530  13.1104  13.4307  13.4307  16.8660

          k =-0.2500 0.5000 0.0000 (   570 PWs)   bands (ev):

    -0.4522  11.6960  13.0926  16.6063  19.9660  21.7207

          k = 0.6250-0.3750 0.8750 (   570 PWs)   bands (ev):

     1.6087   7.9894  12.4187  14.4737  20.5871  22.6680

          k = 0.5000-0.2500 0.7500 (   560 PWs)   bands (ev):

     4.3222   4.5712  12.8171  13.2790  21.1142  21.5353

          k = 0.7500-0.2500 1.0000 (   577 PWs)   bands (ev):

     2.2835  10.1349  10.8459  11.7291  18.4763  20.4680

          k = 0.6250-0.1250 0.8750 (   567 PWs)   bands (ev):

     4.8015   6.9282   9.3061  11.4626  19.6553  23.7756

          k = 0.5000 0.0000 0.7500 (   565 PWs)   bands (ev):

     3.9021   7.5333   8.9973  12.5662  20.8680  24.1090

          k =-0.2500-1.0000 0.0000 (   576 PWs)   bands (ev):

     5.4592   6.7941   9.6141  11.1166  17.9682  20.0128

          k =-0.5000-1.0000 0.0000 (   560 PWs)   bands (ev):

     7.0141   7.0141   8.0306   8.9357  23.6368  23.6368

     the Fermi energy is     7.8844 ev

!    total energy              =     -39.50253098 Ry
     Harris-Foulkes estimate   =     -39.50253098 Ry
     estimated scf accuracy    <          1.6E-10 Ry

     total all-electron energy =      -485.645311 Ry

     The total energy is the sum of the following terms:

     one-electron contribution =       3.15283822 Ry
     hartree contribution      =       0.00618365 Ry
     xc contribution           =      -2.58822750 Ry
     ewald contribution        =      -5.39395545 Ry
     one-center paw contrib.   =     -34.67905634 Ry
     smearing contrib. (-TS)   =      -0.00031357 Ry

     convergence has been achieved in   5 iterations

     Forces acting on atoms (cartesian axes, Ry/au):

     atom    1 type  1   force =     0.00000000    0.00000000    0.00000000

     Total force =     0.000000     Total SCF correction =     0.000000


     Computing stress (Cartesian axis) and pressure

          total   stress  (Ry/bohr**3)                   (kbar)     P=   -4.07
  -0.00002764   0.00000000   0.00000000         -4.07      0.00      0.00
   0.00000000  -0.00002764  -0.00000000          0.00     -4.07     -0.00
   0.00000000  -0.00000000  -0.00002764          0.00     -0.00     -4.07


     Writing output data file Al.save/

     init_run     :      0.29s CPU      0.31s WALL (       1 calls)
     electrons    :      1.21s CPU      1.34s WALL (       1 calls)
     forces       :      0.04s CPU      0.04s WALL (       1 calls)
     stress       :      0.11s CPU      0.11s WALL (       1 calls)

     Called by init_run:
     wfcinit      :      0.04s CPU      0.04s WALL (       1 calls)
     potinit      :      0.10s CPU      0.11s WALL (       1 calls)
     hinit0       :      0.13s CPU      0.14s WALL (       1 calls)

     Called by electrons:
     c_bands      :      0.59s CPU      0.64s WALL (       6 calls)
     sum_band     :      0.14s CPU      0.15s WALL (       6 calls)
     v_of_rho     :      0.02s CPU      0.02s WALL (       6 calls)
     newd         :      0.03s CPU      0.03s WALL (       6 calls)
     PAW_pot      :      0.53s CPU      0.60s WALL (       6 calls)
     mix_rho      :      0.00s CPU      0.00s WALL (       6 calls)

     Called by c_bands:
     init_us_2    :      0.03s CPU      0.04s WALL (     435 calls)
     cegterg      :      0.54s CPU      0.58s WALL (     174 calls)

     Called by sum_band:
     sum_band:bec :      0.00s CPU      0.00s WALL (     174 calls)
     addusdens    :      0.03s CPU      0.03s WALL (       6 calls)

     Called by *egterg:
     h_psi        :      0.45s CPU      0.48s WALL (     593 calls)
     s_psi        :      0.01s CPU      0.02s WALL (     593 calls)
     g_psi        :      0.00s CPU      0.00s WALL (     390 calls)
     cdiaghg      :      0.04s CPU      0.05s WALL (     535 calls)

     Called by h_psi:
     h_psi:pot    :      0.45s CPU      0.48s WALL (     593 calls)
     h_psi:calbec :      0.03s CPU      0.03s WALL (     593 calls)
     vloc_psi     :      0.40s CPU      0.43s WALL (     593 calls)
     add_vuspsi   :      0.01s CPU      0.02s WALL (     593 calls)

     General routines
     calbec       :      0.05s CPU      0.05s WALL (     912 calls)
     fft          :      0.01s CPU      0.01s WALL (      93 calls)
     ffts         :      0.00s CPU      0.00s WALL (       6 calls)
     fftw         :      0.45s CPU      0.48s WALL (    6592 calls)

     Parallel routines
     fft_scatt_xy :      0.04s CPU      0.04s WALL (    6691 calls)
     fft_scatt_yz :      0.15s CPU      0.16s WALL (    6691 calls)

     PWSCF        :     2.35s CPU         2.53s WALL


   This run was terminated on:  20: 1:20  25Mar2024            

=------------------------------------------------------------------------------=
   JOB DONE.
=------------------------------------------------------------------------------=
