
     Program PWSCF v.6.3MaX starts on 25Mar2024 at 20:13:45 

     This program is part of the open-source Quantum ESPRESSO suite
     for quantum simulation of materials; please cite
         "P. Giannozzi et al., J. Phys.:Condens. Matter 21 395502 (2009);
         "P. Giannozzi et al., J. Phys.:Condens. Matter 29 465901 (2017);
          URL http://www.quantum-espresso.org", 
     in publications or presentations arising from this work. More details at
     http://www.quantum-espresso.org/quote

     Parallel version (MPI), running on     5 processors

     MPI processes distributed on     1 nodes
     R & G space division:  proc/nbgrp/npool/nimage =       5
     Waiting for input...
     Reading input from standard input

     Current dimensions of program PWSCF are:
     Max number of different atomic species (ntypx) = 10
     Max number of k-points (npk) =  40000
     Max angular momentum in pseudopotentials (lmaxx) =  3
               file Al.pbe-nl-kjpaw_psl.1.0.0.UPF: wavefunction(s)  3S 3P renormalized

     Subspace diagonalization in iterative solution of the eigenvalue problem:
     a serial algorithm will be used


     Parallelization info
     --------------------
     sticks:   dense  smooth     PW     G-vecs:    dense   smooth      PW
     Min         146     146     42                 2587     2587     421
     Max         147     147     43                 2588     2588     422
     Sum         733     733    211                12939    12939    2109



     bravais-lattice index     =            2
     lattice parameter (alat)  =       7.6500  a.u.
     unit-cell volume          =     111.9243 (a.u.)^3
     number of atoms/cell      =            1
     number of atomic types    =            1
     number of electrons       =         3.00
     number of Kohn-Sham states=            6
     kinetic-energy cutoff     =      90.0000  Ry
     charge density cutoff     =     360.0000  Ry
     convergence threshold     =      1.0E-08
     mixing beta               =       0.7000
     number of iterations used =            8  plain     mixing
     Exchange-correlation      = SLA PW PBX PBC ( 1  4  3  4 0 0)

     celldm(1)=   7.650000  celldm(2)=   0.000000  celldm(3)=   0.000000
     celldm(4)=   0.000000  celldm(5)=   0.000000  celldm(6)=   0.000000

     crystal axes: (cart. coord. in units of alat)
               a(1) = (  -0.500000   0.000000   0.500000 )  
               a(2) = (   0.000000   0.500000   0.500000 )  
               a(3) = (  -0.500000   0.500000   0.000000 )  

     reciprocal axes: (cart. coord. in units 2 pi/alat)
               b(1) = ( -1.000000 -1.000000  1.000000 )  
               b(2) = (  1.000000  1.000000  1.000000 )  
               b(3) = ( -1.000000  1.000000 -1.000000 )  


     PseudoPot. # 1 for Al read from file:
     /home/lorenzo/pseudos/Al/Al.pbe-nl-kjpaw_psl.1.0.0.UPF
     MD5 check sum: 8cf6d98cc7ef3f4b729b574060f3a10f
     Pseudo is Projector augmented-wave + core cor, Zval =  3.0
     Generated using "atomic" code by A. Dal Corso v.6.3
     Shape of augmentation charge: PSQ
     Using radial grid of 1135 points,  4 beta functions with: 
                l(1) =   0
                l(2) =   0
                l(3) =   1
                l(4) =   1
     Q(r) pseudized with 0 coefficients 


     atomic species   valence    mass     pseudopotential
        Al             3.00    26.98150     Al( 1.00)

     48 Sym. Ops., with inversion, found



   Cartesian axes

     site n.     atom                  positions (alat units)
         1           Al  tau(   1) = (   0.0000000   0.0000000   0.0000000  )

     number of k points=    10  gaussian smearing, width (Ry)=  0.0100
                       cart. coord. in units 2pi/alat
        k(    1) = (   0.0000000   0.0000000   0.0000000), wk =   0.0160000
        k(    2) = (  -0.2000000   0.2000000  -0.2000000), wk =   0.1280000
        k(    3) = (  -0.4000000   0.4000000  -0.4000000), wk =   0.1280000
        k(    4) = (   0.0000000   0.4000000   0.0000000), wk =   0.0960000
        k(    5) = (  -0.2000000   0.6000000  -0.2000000), wk =   0.3840000
        k(    6) = (   0.6000000  -0.2000000   0.6000000), wk =   0.3840000
        k(    7) = (   0.4000000   0.0000000   0.4000000), wk =   0.1920000
        k(    8) = (   0.0000000   0.8000000   0.0000000), wk =   0.0960000
        k(    9) = (   0.8000000   0.0000000   0.8000000), wk =   0.1920000
        k(   10) = (   0.6000000  -0.2000000   1.0000000), wk =   0.3840000

     Dense  grid:    12939 G-vectors     FFT dimensions: (  36,  36,  36)

     Estimated max dynamical RAM per process >       4.65 MB

     Estimated total dynamical RAM >      23.27 MB

     Initial potential from superposition of free atoms

     starting charge    2.99771, renormalised to    3.00000
     Starting wfcs are    4 randomized atomic wfcs +    2 random wfcs
     Checking if some PAW data can be deallocated... 

     total cpu time spent up to now is        0.8 secs

     Self-consistent Calculation

     iteration #  1     ecut=    90.00 Ry     beta= 0.70
     Davidson diagonalization with overlap
     ethr =  1.00E-02,  avg # of iterations =  4.9

     Threshold (ethr) on eigenvalues was too large:
     Diagonalizing with lowered threshold

     Davidson diagonalization with overlap
     ethr =  1.72E-04,  avg # of iterations =  1.8

     total cpu time spent up to now is        1.1 secs

     total energy              =     -39.49882680 Ry
     Harris-Foulkes estimate   =     -39.50020751 Ry
     estimated scf accuracy    <       0.00510034 Ry

     iteration #  2     ecut=    90.00 Ry     beta= 0.70
     Davidson diagonalization with overlap
     ethr =  1.70E-04,  avg # of iterations =  1.0

     total cpu time spent up to now is        1.3 secs

     total energy              =     -39.49881507 Ry
     Harris-Foulkes estimate   =     -39.49890425 Ry
     estimated scf accuracy    <       0.00035596 Ry

     iteration #  3     ecut=    90.00 Ry     beta= 0.70
     Davidson diagonalization with overlap
     ethr =  1.19E-05,  avg # of iterations =  1.4

     total cpu time spent up to now is        1.4 secs

     total energy              =     -39.49883451 Ry
     Harris-Foulkes estimate   =     -39.49883507 Ry
     estimated scf accuracy    <       0.00000141 Ry

     iteration #  4     ecut=    90.00 Ry     beta= 0.70
     Davidson diagonalization with overlap
     ethr =  4.69E-08,  avg # of iterations =  3.6

     total cpu time spent up to now is        1.7 secs

     total energy              =     -39.49883646 Ry
     Harris-Foulkes estimate   =     -39.49883644 Ry
     estimated scf accuracy    <       0.00000011 Ry

     iteration #  5     ecut=    90.00 Ry     beta= 0.70
     Davidson diagonalization with overlap
     ethr =  3.57E-09,  avg # of iterations =  1.0

     total cpu time spent up to now is        1.9 secs

     total energy              =     -39.49883645 Ry
     Harris-Foulkes estimate   =     -39.49883646 Ry
     estimated scf accuracy    <       0.00000004 Ry

     iteration #  6     ecut=    90.00 Ry     beta= 0.70
     Davidson diagonalization with overlap
     ethr =  1.24E-09,  avg # of iterations =  1.0

     total cpu time spent up to now is        2.0 secs

     End of self-consistent calculation

          k = 0.0000 0.0000 0.0000 (  1639 PWs)   bands (ev):

    -3.2516  20.4390  20.4390  21.8795  21.8796  21.8796

          k =-0.2000 0.2000-0.2000 (  1606 PWs)   bands (ev):

    -2.1713  13.1713  18.9484  18.9484  22.2749  23.4250

          k =-0.4000 0.4000-0.4000 (  1616 PWs)   bands (ev):

     1.0224   6.2098  18.6924  18.6924  20.2475  20.2475

          k = 0.0000 0.4000 0.0000 (  1607 PWs)   bands (ev):

    -1.8130  16.1857  16.1857  16.2820  18.5663  19.5590

          k =-0.2000 0.6000-0.2000 (  1619 PWs)   bands (ev):

     0.6698   9.2072  14.3798  15.2731  16.9346  22.7955

          k = 0.6000-0.2000 0.6000 (  1596 PWs)   bands (ev):

     3.4525   5.1745  12.1056  16.2107  18.0567  23.9882

          k = 0.4000 0.0000 0.4000 (  1610 PWs)   bands (ev):

    -0.3885  10.9243  12.3907  18.9874  21.0050  23.2260

          k = 0.0000 0.8000 0.0000 (  1624 PWs)   bands (ev):

     2.4053   9.4124  13.4711  13.7287  13.7287  17.1928

          k = 0.8000 0.0000 0.8000 (  1622 PWs)   bands (ev):

     5.6013   6.9086   7.9331  14.0406  15.5949  21.6708

          k = 0.6000-0.2000 1.0000 (  1616 PWs)   bands (ev):

     3.7862   8.2604   9.6574  10.8953  21.5643  22.9222

     the Fermi energy is     8.2021 ev

!    total energy              =     -39.49883645 Ry
     Harris-Foulkes estimate   =     -39.49883645 Ry
     estimated scf accuracy    <          3.0E-10 Ry

     total all-electron energy =      -485.641617 Ry

     The total energy is the sum of the following terms:

     one-electron contribution =       3.15736798 Ry
     hartree contribution      =       0.00584229 Ry
     xc contribution           =      -2.58883026 Ry
     ewald contribution        =      -5.39395538 Ry
     one-center paw contrib.   =     -34.67834887 Ry
     smearing contrib. (-TS)   =      -0.00091220 Ry

     convergence has been achieved in   6 iterations

     Forces acting on atoms (cartesian axes, Ry/au):

     atom    1 type  1   force =     0.00000000    0.00000000    0.00000000

     Total force =     0.000000     Total SCF correction =     0.000000


     Computing stress (Cartesian axis) and pressure

          total   stress  (Ry/bohr**3)                   (kbar)     P=   14.16
   0.00009626  -0.00000000  -0.00000000         14.16     -0.00     -0.00
  -0.00000000   0.00009626   0.00000000         -0.00     14.16      0.00
  -0.00000000   0.00000000   0.00009626         -0.00      0.00     14.16


     Writing output data file Al.save/

     init_run     :      0.19s CPU      0.20s WALL (       1 calls)
     electrons    :      1.12s CPU      1.20s WALL (       1 calls)
     forces       :      0.04s CPU      0.04s WALL (       1 calls)
     stress       :      0.10s CPU      0.10s WALL (       1 calls)

     Called by init_run:
     wfcinit      :      0.03s CPU      0.03s WALL (       1 calls)
     potinit      :      0.04s CPU      0.05s WALL (       1 calls)
     hinit0       :      0.11s CPU      0.11s WALL (       1 calls)

     Called by electrons:
     c_bands      :      0.66s CPU      0.70s WALL (       7 calls)
     sum_band     :      0.18s CPU      0.19s WALL (       7 calls)
     v_of_rho     :      0.08s CPU      0.08s WALL (       7 calls)
     newd         :      0.03s CPU      0.03s WALL (       7 calls)
     PAW_pot      :      0.20s CPU      0.23s WALL (       7 calls)
     mix_rho      :      0.01s CPU      0.01s WALL (       7 calls)

     Called by c_bands:
     init_us_2    :      0.02s CPU      0.02s WALL (     170 calls)
     cegterg      :      0.64s CPU      0.68s WALL (      70 calls)

     Called by sum_band:
     sum_band:bec :      0.00s CPU      0.00s WALL (      70 calls)
     addusdens    :      0.02s CPU      0.02s WALL (       7 calls)

     Called by *egterg:
     h_psi        :      0.57s CPU      0.61s WALL (     227 calls)
     s_psi        :      0.01s CPU      0.01s WALL (     227 calls)
     g_psi        :      0.00s CPU      0.00s WALL (     147 calls)
     cdiaghg      :      0.02s CPU      0.02s WALL (     207 calls)

     Called by h_psi:
     h_psi:pot    :      0.57s CPU      0.61s WALL (     227 calls)
     h_psi:calbec :      0.02s CPU      0.02s WALL (     227 calls)
     vloc_psi     :      0.54s CPU      0.58s WALL (     227 calls)
     add_vuspsi   :      0.01s CPU      0.01s WALL (     227 calls)

     General routines
     calbec       :      0.03s CPU      0.03s WALL (     347 calls)
     fft          :      0.06s CPU      0.06s WALL (     104 calls)
     ffts         :      0.00s CPU      0.00s WALL (       7 calls)
     fftw         :      0.63s CPU      0.67s WALL (    2608 calls)

     Parallel routines
     fft_scatt_xy :      0.05s CPU      0.05s WALL (    2719 calls)
     fft_scatt_yz :      0.26s CPU      0.27s WALL (    2719 calls)

     PWSCF        :     2.09s CPU         2.22s WALL


   This run was terminated on:  20:13:47  25Mar2024            

=------------------------------------------------------------------------------=
   JOB DONE.
=------------------------------------------------------------------------------=
