
     Program PWSCF v.6.3MaX starts on 25Mar2024 at 19:53:49 

     This program is part of the open-source Quantum ESPRESSO suite
     for quantum simulation of materials; please cite
         "P. Giannozzi et al., J. Phys.:Condens. Matter 21 395502 (2009);
         "P. Giannozzi et al., J. Phys.:Condens. Matter 29 465901 (2017);
          URL http://www.quantum-espresso.org", 
     in publications or presentations arising from this work. More details at
     http://www.quantum-espresso.org/quote

     Parallel version (MPI), running on     5 processors

     MPI processes distributed on     1 nodes
     R & G space division:  proc/nbgrp/npool/nimage =       5
     Waiting for input...
     Reading input from standard input

     Current dimensions of program PWSCF are:
     Max number of different atomic species (ntypx) = 10
     Max number of k-points (npk) =  40000
     Max angular momentum in pseudopotentials (lmaxx) =  3
               file Al.pbe-n-kjpaw_psl.1.0.0.UPF: wavefunction(s)  3S 3P renormalized

     Subspace diagonalization in iterative solution of the eigenvalue problem:
     a serial algorithm will be used


     Parallelization info
     --------------------
     sticks:   dense  smooth     PW     G-vecs:    dense   smooth      PW
     Min          17      17      7                  106      106      27
     Max          17      17      8                  107      107      28
     Sum          85      85     37                  531      531     137



     bravais-lattice index     =            2
     lattice parameter (alat)  =       7.6500  a.u.
     unit-cell volume          =     111.9243 (a.u.)^3
     number of atoms/cell      =            1
     number of atomic types    =            1
     number of electrons       =         3.00
     number of Kohn-Sham states=            6
     kinetic-energy cutoff     =      10.0000  Ry
     charge density cutoff     =      40.0000  Ry
     convergence threshold     =      1.0E-08
     mixing beta               =       0.7000
     number of iterations used =            8  plain     mixing
     Exchange-correlation      = SLA PW PBX PBC ( 1  4  3  4 0 0)

     celldm(1)=   7.650000  celldm(2)=   0.000000  celldm(3)=   0.000000
     celldm(4)=   0.000000  celldm(5)=   0.000000  celldm(6)=   0.000000

     crystal axes: (cart. coord. in units of alat)
               a(1) = (  -0.500000   0.000000   0.500000 )  
               a(2) = (   0.000000   0.500000   0.500000 )  
               a(3) = (  -0.500000   0.500000   0.000000 )  

     reciprocal axes: (cart. coord. in units 2 pi/alat)
               b(1) = ( -1.000000 -1.000000  1.000000 )  
               b(2) = (  1.000000  1.000000  1.000000 )  
               b(3) = ( -1.000000  1.000000 -1.000000 )  


     PseudoPot. # 1 for Al read from file:
     /home/lorenzo/pseudos/Al/Al.pbe-n-kjpaw_psl.1.0.0.UPF
     MD5 check sum: 502b6b27b9c6270cab5dd1084b96fa6d
     Pseudo is Projector augmented-wave + core cor, Zval =  3.0
     Generated using "atomic" code by A. Dal Corso v.6.3
     Shape of augmentation charge: PSQ
     Using radial grid of 1135 points,  6 beta functions with: 
                l(1) =   0
                l(2) =   0
                l(3) =   1
                l(4) =   1
                l(5) =   2
                l(6) =   2
     Q(r) pseudized with 0 coefficients 


     atomic species   valence    mass     pseudopotential
        Al             3.00    26.98150     Al( 1.00)

     48 Sym. Ops., with inversion, found



   Cartesian axes

     site n.     atom                  positions (alat units)
         1           Al  tau(   1) = (   0.0000000   0.0000000   0.0000000  )

     number of k points=     8  gaussian smearing, width (Ry)=  0.0100
                       cart. coord. in units 2pi/alat
        k(    1) = (   0.0000000   0.0000000   0.0000000), wk =   0.0312500
        k(    2) = (  -0.2500000   0.2500000  -0.2500000), wk =   0.2500000
        k(    3) = (   0.5000000  -0.5000000   0.5000000), wk =   0.1250000
        k(    4) = (   0.0000000   0.5000000   0.0000000), wk =   0.1875000
        k(    5) = (   0.7500000  -0.2500000   0.7500000), wk =   0.7500000
        k(    6) = (   0.5000000   0.0000000   0.5000000), wk =   0.3750000
        k(    7) = (   0.0000000  -1.0000000   0.0000000), wk =   0.0937500
        k(    8) = (  -0.5000000  -1.0000000   0.0000000), wk =   0.1875000

     Dense  grid:      531 G-vectors     FFT dimensions: (  12,  12,  12)

     Estimated max dynamical RAM per process >       1.04 MB

     Estimated total dynamical RAM >       5.18 MB

     Initial potential from superposition of free atoms

     starting charge    2.99771, renormalised to    3.00000
     Starting wfcs are    4 randomized atomic wfcs +    2 random wfcs
     Checking if some PAW data can be deallocated... 

     total cpu time spent up to now is        0.8 secs

     Self-consistent Calculation

     iteration #  1     ecut=    10.00 Ry     beta= 0.70
     Davidson diagonalization with overlap
     ethr =  1.00E-02,  avg # of iterations =  3.9

     Threshold (ethr) on eigenvalues was too large:
     Diagonalizing with lowered threshold

     Davidson diagonalization with overlap
     ethr =  2.08E-04,  avg # of iterations =  1.2

     total cpu time spent up to now is        1.0 secs

     total energy              =     -39.47880701 Ry
     Harris-Foulkes estimate   =     -39.47995554 Ry
     estimated scf accuracy    <       0.00612632 Ry

     iteration #  2     ecut=    10.00 Ry     beta= 0.70
     Davidson diagonalization with overlap
     ethr =  2.04E-04,  avg # of iterations =  1.5

     total cpu time spent up to now is        1.1 secs

     total energy              =     -39.47875412 Ry
     Harris-Foulkes estimate   =     -39.47884949 Ry
     estimated scf accuracy    <       0.00046926 Ry

     iteration #  3     ecut=    10.00 Ry     beta= 0.70
     Davidson diagonalization with overlap
     ethr =  1.56E-05,  avg # of iterations =  2.0

     total cpu time spent up to now is        1.2 secs

     total energy              =     -39.47876223 Ry
     Harris-Foulkes estimate   =     -39.47876246 Ry
     estimated scf accuracy    <       0.00000049 Ry

     iteration #  4     ecut=    10.00 Ry     beta= 0.70
     Davidson diagonalization with overlap
     ethr =  1.64E-08,  avg # of iterations =  3.0

     total cpu time spent up to now is        1.3 secs

     total energy              =     -39.47876324 Ry
     Harris-Foulkes estimate   =     -39.47876324 Ry
     estimated scf accuracy    <       0.00000001 Ry

     iteration #  5     ecut=    10.00 Ry     beta= 0.70
     Davidson diagonalization with overlap
     ethr =  3.51E-10,  avg # of iterations =  1.1

     total cpu time spent up to now is        1.4 secs

     End of self-consistent calculation

          k = 0.0000 0.0000 0.0000 (    59 PWs)   bands (ev):

    -3.2432  20.7251  20.7251  21.8969  21.8969  21.8969

          k =-0.2500 0.2500-0.2500 (    61 PWs)   bands (ev):

    -1.5594  11.3392  18.8311  18.8311  22.3472  22.7562

          k = 0.5000-0.5000 0.5000 (    70 PWs)   bands (ev):

     3.2808   3.5017  19.2126  19.2126  19.5040  19.5040

          k = 0.0000 0.5000 0.0000 (    60 PWs)   bands (ev):

    -1.0017  15.3856  15.3856  15.5082  16.1920  18.9012

          k = 0.7500-0.2500 0.7500 (    59 PWs)   bands (ev):

     2.8353   7.1326  11.5587  14.9088  16.7312  24.1101

          k = 0.5000 0.0000 0.5000 (    59 PWs)   bands (ev):

     1.2070   9.1395  10.6275  17.3714  19.4373  25.1589

          k = 0.0000-1.0000 0.0000 (    64 PWs)   bands (ev):

     4.9452   6.2949  13.2761  13.4319  13.4319  16.9961

          k =-0.5000-1.0000 0.0000 (    56 PWs)   bands (ev):

     7.0411   7.0411   8.0825   8.9674  23.9210  23.9210

     the Fermi energy is     7.2166 ev

!    total energy              =     -39.47876324 Ry
     Harris-Foulkes estimate   =     -39.47876324 Ry
     estimated scf accuracy    <          1.3E-09 Ry

     total all-electron energy =      -485.621543 Ry

     The total energy is the sum of the following terms:

     one-electron contribution =       3.17564350 Ry
     hartree contribution      =       0.00740354 Ry
     xc contribution           =      -2.58819476 Ry
     ewald contribution        =      -5.39395546 Ry
     one-center paw contrib.   =     -34.67801450 Ry
     smearing contrib. (-TS)   =      -0.00164556 Ry

     convergence has been achieved in   5 iterations

     Forces acting on atoms (cartesian axes, Ry/au):

     atom    1 type  1   force =     0.00000000    0.00000000    0.00000000

     Total force =     0.000000     Total SCF correction =     0.000000


     Computing stress (Cartesian axis) and pressure

          total   stress  (Ry/bohr**3)                   (kbar)     P=    3.01
   0.00002045  -0.00000000  -0.00000000          3.01     -0.00     -0.00
  -0.00000000   0.00002045   0.00000000         -0.00      3.01      0.00
  -0.00000000   0.00000000   0.00002045         -0.00      0.00      3.01


     Writing output data file Al.save/

     init_run     :      0.15s CPU      0.16s WALL (       1 calls)
     electrons    :      0.50s CPU      0.59s WALL (       1 calls)
     forces       :      0.00s CPU      0.00s WALL (       1 calls)
     stress       :      0.01s CPU      0.01s WALL (       1 calls)

     Called by init_run:
     wfcinit      :      0.00s CPU      0.00s WALL (       1 calls)
     potinit      :      0.09s CPU      0.10s WALL (       1 calls)
     hinit0       :      0.04s CPU      0.04s WALL (       1 calls)

     Called by electrons:
     c_bands      :      0.05s CPU      0.06s WALL (       6 calls)
     sum_band     :      0.01s CPU      0.02s WALL (       6 calls)
     v_of_rho     :      0.00s CPU      0.00s WALL (       6 calls)
     newd         :      0.00s CPU      0.00s WALL (       6 calls)
     PAW_pot      :      0.51s CPU      0.58s WALL (       6 calls)
     mix_rho      :      0.00s CPU      0.00s WALL (       6 calls)

     Called by c_bands:
     init_us_2    :      0.00s CPU      0.00s WALL (     120 calls)
     cegterg      :      0.05s CPU      0.06s WALL (      48 calls)

     Called by sum_band:
     sum_band:bec :      0.00s CPU      0.00s WALL (      48 calls)
     addusdens    :      0.00s CPU      0.00s WALL (       6 calls)

     Called by *egterg:
     h_psi        :      0.03s CPU      0.04s WALL (     158 calls)
     s_psi        :      0.00s CPU      0.00s WALL (     158 calls)
     g_psi        :      0.00s CPU      0.00s WALL (     102 calls)
     cdiaghg      :      0.01s CPU      0.01s WALL (     142 calls)

     Called by h_psi:
     h_psi:pot    :      0.03s CPU      0.04s WALL (     158 calls)
     h_psi:calbec :      0.00s CPU      0.00s WALL (     158 calls)
     vloc_psi     :      0.02s CPU      0.03s WALL (     158 calls)
     add_vuspsi   :      0.00s CPU      0.00s WALL (     158 calls)

     General routines
     calbec       :      0.00s CPU      0.00s WALL (     246 calls)
     fft          :      0.00s CPU      0.00s WALL (      93 calls)
     ffts         :      0.00s CPU      0.00s WALL (       6 calls)
     fftw         :      0.03s CPU      0.03s WALL (    1766 calls)

     Parallel routines
     fft_scatt_xy :      0.00s CPU      0.00s WALL (    1865 calls)
     fft_scatt_yz :      0.01s CPU      0.02s WALL (    1865 calls)

     PWSCF        :     1.34s CPU         1.48s WALL


   This run was terminated on:  19:53:51  25Mar2024            

=------------------------------------------------------------------------------=
   JOB DONE.
=------------------------------------------------------------------------------=
