
     Program PWSCF v.6.3MaX starts on 25Mar2024 at 19:56:44 

     This program is part of the open-source Quantum ESPRESSO suite
     for quantum simulation of materials; please cite
         "P. Giannozzi et al., J. Phys.:Condens. Matter 21 395502 (2009);
         "P. Giannozzi et al., J. Phys.:Condens. Matter 29 465901 (2017);
          URL http://www.quantum-espresso.org", 
     in publications or presentations arising from this work. More details at
     http://www.quantum-espresso.org/quote

     Parallel version (MPI), running on     5 processors

     MPI processes distributed on     1 nodes
     R & G space division:  proc/nbgrp/npool/nimage =       5
     Waiting for input...
     Reading input from standard input

     Current dimensions of program PWSCF are:
     Max number of different atomic species (ntypx) = 10
     Max number of k-points (npk) =  40000
     Max angular momentum in pseudopotentials (lmaxx) =  3
               file Al.pbe-n-kjpaw_psl.1.0.0.UPF: wavefunction(s)  3S 3P renormalized

     Subspace diagonalization in iterative solution of the eigenvalue problem:
     a serial algorithm will be used


     Parallelization info
     --------------------
     sticks:   dense  smooth     PW     G-vecs:    dense   smooth      PW
     Min          39      39     14                  381      381      82
     Max          40      40     15                  384      384      83
     Sum         199     199     73                 1917     1917     411



     bravais-lattice index     =            2
     lattice parameter (alat)  =       7.6500  a.u.
     unit-cell volume          =     111.9243 (a.u.)^3
     number of atoms/cell      =            1
     number of atomic types    =            1
     number of electrons       =         3.00
     number of Kohn-Sham states=            6
     kinetic-energy cutoff     =      25.0000  Ry
     charge density cutoff     =     100.0000  Ry
     convergence threshold     =      1.0E-08
     mixing beta               =       0.7000
     number of iterations used =            8  plain     mixing
     Exchange-correlation      = SLA PW PBX PBC ( 1  4  3  4 0 0)

     celldm(1)=   7.650000  celldm(2)=   0.000000  celldm(3)=   0.000000
     celldm(4)=   0.000000  celldm(5)=   0.000000  celldm(6)=   0.000000

     crystal axes: (cart. coord. in units of alat)
               a(1) = (  -0.500000   0.000000   0.500000 )  
               a(2) = (   0.000000   0.500000   0.500000 )  
               a(3) = (  -0.500000   0.500000   0.000000 )  

     reciprocal axes: (cart. coord. in units 2 pi/alat)
               b(1) = ( -1.000000 -1.000000  1.000000 )  
               b(2) = (  1.000000  1.000000  1.000000 )  
               b(3) = ( -1.000000  1.000000 -1.000000 )  


     PseudoPot. # 1 for Al read from file:
     /home/lorenzo/pseudos/Al/Al.pbe-n-kjpaw_psl.1.0.0.UPF
     MD5 check sum: 502b6b27b9c6270cab5dd1084b96fa6d
     Pseudo is Projector augmented-wave + core cor, Zval =  3.0
     Generated using "atomic" code by A. Dal Corso v.6.3
     Shape of augmentation charge: PSQ
     Using radial grid of 1135 points,  6 beta functions with: 
                l(1) =   0
                l(2) =   0
                l(3) =   1
                l(4) =   1
                l(5) =   2
                l(6) =   2
     Q(r) pseudized with 0 coefficients 


     atomic species   valence    mass     pseudopotential
        Al             3.00    26.98150     Al( 1.00)

     48 Sym. Ops., with inversion, found



   Cartesian axes

     site n.     atom                  positions (alat units)
         1           Al  tau(   1) = (   0.0000000   0.0000000   0.0000000  )

     number of k points=    16  gaussian smearing, width (Ry)=  0.0100
                       cart. coord. in units 2pi/alat
        k(    1) = (   0.0000000   0.0000000   0.0000000), wk =   0.0092593
        k(    2) = (  -0.1666667   0.1666667  -0.1666667), wk =   0.0740741
        k(    3) = (  -0.3333333   0.3333333  -0.3333333), wk =   0.0740741
        k(    4) = (   0.5000000  -0.5000000   0.5000000), wk =   0.0370370
        k(    5) = (   0.0000000   0.3333333   0.0000000), wk =   0.0555556
        k(    6) = (  -0.1666667   0.5000000  -0.1666667), wk =   0.2222222
        k(    7) = (   0.6666667  -0.3333333   0.6666667), wk =   0.2222222
        k(    8) = (   0.5000000  -0.1666667   0.5000000), wk =   0.2222222
        k(    9) = (   0.3333333   0.0000000   0.3333333), wk =   0.1111111
        k(   10) = (   0.0000000   0.6666667   0.0000000), wk =   0.0555556
        k(   11) = (   0.8333333  -0.1666667   0.8333333), wk =   0.2222222
        k(   12) = (   0.6666667  -0.0000000   0.6666667), wk =   0.1111111
        k(   13) = (   0.0000000  -1.0000000   0.0000000), wk =   0.0277778
        k(   14) = (   0.6666667  -0.3333333   1.0000000), wk =   0.2222222
        k(   15) = (   0.5000000  -0.1666667   0.8333333), wk =   0.2222222
        k(   16) = (  -0.3333333  -1.0000000   0.0000000), wk =   0.1111111

     Dense  grid:     1917 G-vectors     FFT dimensions: (  18,  18,  18)

     Estimated max dynamical RAM per process >       2.48 MB

     Estimated total dynamical RAM >      12.40 MB

     Initial potential from superposition of free atoms

     starting charge    2.99771, renormalised to    3.00000
     Starting wfcs are    4 randomized atomic wfcs +    2 random wfcs
     Checking if some PAW data can be deallocated... 

     total cpu time spent up to now is        0.9 secs

     Self-consistent Calculation

     iteration #  1     ecut=    25.00 Ry     beta= 0.70
     Davidson diagonalization with overlap
     ethr =  1.00E-02,  avg # of iterations =  4.6

     Threshold (ethr) on eigenvalues was too large:
     Diagonalizing with lowered threshold

     Davidson diagonalization with overlap
     ethr =  1.74E-04,  avg # of iterations =  1.4

     total cpu time spent up to now is        1.1 secs

     total energy              =     -39.50773054 Ry
     Harris-Foulkes estimate   =     -39.50890453 Ry
     estimated scf accuracy    <       0.00514693 Ry

     iteration #  2     ecut=    25.00 Ry     beta= 0.70
     Davidson diagonalization with overlap
     ethr =  1.72E-04,  avg # of iterations =  1.0

     total cpu time spent up to now is        1.3 secs

     total energy              =     -39.50768765 Ry
     Harris-Foulkes estimate   =     -39.50777633 Ry
     estimated scf accuracy    <       0.00037113 Ry

     iteration #  3     ecut=    25.00 Ry     beta= 0.70
     Davidson diagonalization with overlap
     ethr =  1.24E-05,  avg # of iterations =  2.1

     total cpu time spent up to now is        1.4 secs

     total energy              =     -39.50769665 Ry
     Harris-Foulkes estimate   =     -39.50769679 Ry
     estimated scf accuracy    <       0.00000045 Ry

     iteration #  4     ecut=    25.00 Ry     beta= 0.70
     Davidson diagonalization with overlap
     ethr =  1.49E-08,  avg # of iterations =  2.8

     total cpu time spent up to now is        1.6 secs

     total energy              =     -39.50769828 Ry
     Harris-Foulkes estimate   =     -39.50769829 Ry
     estimated scf accuracy    <       0.00000002 Ry

     iteration #  5     ecut=    25.00 Ry     beta= 0.70
     Davidson diagonalization with overlap
     ethr =  7.63E-10,  avg # of iterations =  1.2

     total cpu time spent up to now is        1.7 secs

     End of self-consistent calculation

          k = 0.0000 0.0000 0.0000 (   259 PWs)   bands (ev):

    -3.2504  20.4340  20.4340  21.8937  21.8938  21.8938

          k =-0.1667 0.1667-0.1667 (   238 PWs)   bands (ev):

    -2.4991  14.4769  19.1630  19.1630  22.4054  23.8014

          k =-0.3333 0.3333-0.3333 (   232 PWs)   bands (ev):

    -0.2690   8.3465  18.5841  18.5841  21.1672  21.1672

          k = 0.5000-0.5000 0.5000 (   242 PWs)   bands (ev):

     3.2777   3.4786  19.2104  19.2104  19.2844  19.2844

          k = 0.0000 0.3333 0.0000 (   234 PWs)   bands (ev):

    -2.2495  16.8350  16.8350  17.0083  20.0706  20.3083

          k =-0.1667 0.5000-0.1667 (   237 PWs)   bands (ev):

    -0.5153  10.8457  15.7802  16.5128  17.4248  22.3058

          k = 0.6667-0.3333 0.6667 (   241 PWs)   bands (ev):

     2.6479   5.5246  14.0525  16.0063  17.7870  23.7723

          k = 0.5000-0.1667 0.5000 (   236 PWs)   bands (ev):

     1.4414   7.1512  12.9435  17.5153  19.4458  22.7104

          k = 0.3333 0.0000 0.3333 (   236 PWs)   bands (ev):

    -1.2559  12.3285  13.7310  20.2642  22.2913  22.3850

          k = 0.0000 0.6667 0.0000 (   238 PWs)   bands (ev):

     0.7087  12.2199  14.0978  14.2810  14.2810  17.7638

          k = 0.8333-0.1667 0.8333 (   235 PWs)   bands (ev):

     3.3492   8.8848   9.3488  14.0716  15.5737  20.7304

          k = 0.6667-0.0000 0.6667 (   236 PWs)   bands (ev):

     4.5561   6.7809   8.2395  15.1479  16.9092  26.4617

          k = 0.0000-1.0000 0.0000 (   230 PWs)   bands (ev):

     4.9394   6.2532  13.1089  13.4293  13.4293  16.8671

          k = 0.6667-0.3333 1.0000 (   237 PWs)   bands (ev):

     1.6818   9.5538  11.0082  13.2070  20.6409  22.2572

          k = 0.5000-0.1667 0.8333 (   238 PWs)   bands (ev):

     5.1275   5.3866  10.8517  11.4099  21.8346  22.3149

          k =-0.3333-1.0000 0.0000 (   230 PWs)   bands (ev):

     5.8593   7.2030   8.6287  10.1899  19.7545  21.5693

     the Fermi energy is     8.2070 ev

!    total energy              =     -39.50769828 Ry
     Harris-Foulkes estimate   =     -39.50769828 Ry
     estimated scf accuracy    <          3.0E-10 Ry

     total all-electron energy =      -485.650478 Ry

     The total energy is the sum of the following terms:

     one-electron contribution =       3.14894659 Ry
     hartree contribution      =       0.00531569 Ry
     xc contribution           =      -2.58790442 Ry
     ewald contribution        =      -5.39395546 Ry
     one-center paw contrib.   =     -34.67973159 Ry
     smearing contrib. (-TS)   =      -0.00036909 Ry

     convergence has been achieved in   5 iterations

     Forces acting on atoms (cartesian axes, Ry/au):

     atom    1 type  1   force =     0.00000000    0.00000000    0.00000000

     Total force =     0.000000     Total SCF correction =     0.000000


     Computing stress (Cartesian axis) and pressure

          total   stress  (Ry/bohr**3)                   (kbar)     P=   -0.33
  -0.00000226  -0.00000000   0.00000000         -0.33     -0.00      0.00
   0.00000000  -0.00000226   0.00000000          0.00     -0.33      0.00
   0.00000000   0.00000000  -0.00000226          0.00      0.00     -0.33


     Writing output data file Al.save/

     init_run     :      0.20s CPU      0.22s WALL (       1 calls)
     electrons    :      0.75s CPU      0.84s WALL (       1 calls)
     forces       :      0.01s CPU      0.01s WALL (       1 calls)
     stress       :      0.03s CPU      0.03s WALL (       1 calls)

     Called by init_run:
     wfcinit      :      0.01s CPU      0.01s WALL (       1 calls)
     potinit      :      0.09s CPU      0.10s WALL (       1 calls)
     hinit0       :      0.09s CPU      0.09s WALL (       1 calls)

     Called by electrons:
     c_bands      :      0.19s CPU      0.21s WALL (       6 calls)
     sum_band     :      0.06s CPU      0.07s WALL (       6 calls)
     v_of_rho     :      0.01s CPU      0.01s WALL (       6 calls)
     newd         :      0.01s CPU      0.01s WALL (       6 calls)
     PAW_pot      :      0.56s CPU      0.63s WALL (       6 calls)
     mix_rho      :      0.00s CPU      0.00s WALL (       6 calls)

     Called by c_bands:
     init_us_2    :      0.01s CPU      0.01s WALL (     240 calls)
     cegterg      :      0.18s CPU      0.20s WALL (      96 calls)

     Called by sum_band:
     sum_band:bec :      0.00s CPU      0.00s WALL (      96 calls)
     addusdens    :      0.01s CPU      0.01s WALL (       6 calls)

     Called by *egterg:
     h_psi        :      0.14s CPU      0.15s WALL (     322 calls)
     s_psi        :      0.00s CPU      0.01s WALL (     322 calls)
     g_psi        :      0.00s CPU      0.00s WALL (     210 calls)
     cdiaghg      :      0.02s CPU      0.02s WALL (     290 calls)

     Called by h_psi:
     h_psi:pot    :      0.14s CPU      0.15s WALL (     322 calls)
     h_psi:calbec :      0.01s CPU      0.01s WALL (     322 calls)
     vloc_psi     :      0.12s CPU      0.14s WALL (     322 calls)
     add_vuspsi   :      0.00s CPU      0.01s WALL (     322 calls)

     General routines
     calbec       :      0.01s CPU      0.01s WALL (     498 calls)
     fft          :      0.01s CPU      0.01s WALL (      93 calls)
     ffts         :      0.00s CPU      0.00s WALL (       6 calls)
     fftw         :      0.14s CPU      0.16s WALL (    3600 calls)

     Parallel routines
     fft_scatt_xy :      0.01s CPU      0.02s WALL (    3699 calls)
     fft_scatt_yz :      0.04s CPU      0.05s WALL (    3699 calls)

     PWSCF        :     1.67s CPU         1.83s WALL


   This run was terminated on:  19:56:46  25Mar2024            

=------------------------------------------------------------------------------=
   JOB DONE.
=------------------------------------------------------------------------------=
