
     Program PWSCF v.6.3MaX starts on 25Mar2024 at 19:59:55 

     This program is part of the open-source Quantum ESPRESSO suite
     for quantum simulation of materials; please cite
         "P. Giannozzi et al., J. Phys.:Condens. Matter 21 395502 (2009);
         "P. Giannozzi et al., J. Phys.:Condens. Matter 29 465901 (2017);
          URL http://www.quantum-espresso.org", 
     in publications or presentations arising from this work. More details at
     http://www.quantum-espresso.org/quote

     Parallel version (MPI), running on     5 processors

     MPI processes distributed on     1 nodes
     R & G space division:  proc/nbgrp/npool/nimage =       5
     Waiting for input...
     Reading input from standard input

     Current dimensions of program PWSCF are:
     Max number of different atomic species (ntypx) = 10
     Max number of k-points (npk) =  40000
     Max angular momentum in pseudopotentials (lmaxx) =  3

     Subspace diagonalization in iterative solution of the eigenvalue problem:
     a serial algorithm will be used


     Parallelization info
     --------------------
     sticks:   dense  smooth     PW     G-vecs:    dense   smooth      PW
     Min          62      62     21                  765      765     148
     Max          63      63     22                  770      770     151
     Sum         313     313    109                 3839     3839     749



     bravais-lattice index     =            2
     lattice parameter (alat)  =       7.6500  a.u.
     unit-cell volume          =     111.9243 (a.u.)^3
     number of atoms/cell      =            1
     number of atomic types    =            1
     number of electrons       =         3.00
     number of Kohn-Sham states=            6
     kinetic-energy cutoff     =      40.0000  Ry
     charge density cutoff     =     160.0000  Ry
     convergence threshold     =      1.0E-08
     mixing beta               =       0.7000
     number of iterations used =            8  plain     mixing
     Exchange-correlation      = PBE ( 1  4  3  4 0 0)

     celldm(1)=   7.650000  celldm(2)=   0.000000  celldm(3)=   0.000000
     celldm(4)=   0.000000  celldm(5)=   0.000000  celldm(6)=   0.000000

     crystal axes: (cart. coord. in units of alat)
               a(1) = (  -0.500000   0.000000   0.500000 )  
               a(2) = (   0.000000   0.500000   0.500000 )  
               a(3) = (  -0.500000   0.500000   0.000000 )  

     reciprocal axes: (cart. coord. in units 2 pi/alat)
               b(1) = ( -1.000000 -1.000000  1.000000 )  
               b(2) = (  1.000000  1.000000  1.000000 )  
               b(3) = ( -1.000000  1.000000 -1.000000 )  


     PseudoPot. # 1 for Al read from file:
     /home/lorenzo/pseudos/Al/Al.pbe-nl-rrkjus_psl.1.0.0.UPF
     MD5 check sum: 6db8691240a1c860ce6448702d298c4b
     Pseudo is Ultrasoft + core correction, Zval =  3.0
     Generated using "atomic" code by A. Dal Corso v.6.3
     Using radial grid of 1135 points,  4 beta functions with: 
                l(1) =   0
                l(2) =   0
                l(3) =   1
                l(4) =   1
     Q(r) pseudized with 0 coefficients 


     atomic species   valence    mass     pseudopotential
        Al             3.00    26.98150     Al( 1.00)

     48 Sym. Ops., with inversion, found



   Cartesian axes

     site n.     atom                  positions (alat units)
         1           Al  tau(   1) = (   0.0000000   0.0000000   0.0000000  )

     number of k points=    16  gaussian smearing, width (Ry)=  0.0100
                       cart. coord. in units 2pi/alat
        k(    1) = (   0.0000000   0.0000000   0.0000000), wk =   0.0092593
        k(    2) = (  -0.1666667   0.1666667  -0.1666667), wk =   0.0740741
        k(    3) = (  -0.3333333   0.3333333  -0.3333333), wk =   0.0740741
        k(    4) = (   0.5000000  -0.5000000   0.5000000), wk =   0.0370370
        k(    5) = (   0.0000000   0.3333333   0.0000000), wk =   0.0555556
        k(    6) = (  -0.1666667   0.5000000  -0.1666667), wk =   0.2222222
        k(    7) = (   0.6666667  -0.3333333   0.6666667), wk =   0.2222222
        k(    8) = (   0.5000000  -0.1666667   0.5000000), wk =   0.2222222
        k(    9) = (   0.3333333   0.0000000   0.3333333), wk =   0.1111111
        k(   10) = (   0.0000000   0.6666667   0.0000000), wk =   0.0555556
        k(   11) = (   0.8333333  -0.1666667   0.8333333), wk =   0.2222222
        k(   12) = (   0.6666667  -0.0000000   0.6666667), wk =   0.1111111
        k(   13) = (   0.0000000  -1.0000000   0.0000000), wk =   0.0277778
        k(   14) = (   0.6666667  -0.3333333   1.0000000), wk =   0.2222222
        k(   15) = (   0.5000000  -0.1666667   0.8333333), wk =   0.2222222
        k(   16) = (  -0.3333333  -1.0000000   0.0000000), wk =   0.1111111

     Dense  grid:     3839 G-vectors     FFT dimensions: (  24,  24,  24)

     Estimated max dynamical RAM per process >       1.62 MB

     Estimated total dynamical RAM >       8.09 MB

     Initial potential from superposition of free atoms

     starting charge    2.99771, renormalised to    3.00000
     Starting wfcs are    4 randomized atomic wfcs +    2 random wfcs

     total cpu time spent up to now is        0.5 secs

     Self-consistent Calculation

     iteration #  1     ecut=    40.00 Ry     beta= 0.70
     Davidson diagonalization with overlap
     ethr =  1.00E-02,  avg # of iterations =  4.9

     Threshold (ethr) on eigenvalues was too large:
     Diagonalizing with lowered threshold

     Davidson diagonalization with overlap
     ethr =  1.80E-04,  avg # of iterations =  2.1

     total cpu time spent up to now is        0.6 secs

     total energy              =      -5.04372620 Ry
     Harris-Foulkes estimate   =      -5.04511222 Ry
     estimated scf accuracy    <       0.00534513 Ry

     iteration #  2     ecut=    40.00 Ry     beta= 0.70
     Davidson diagonalization with overlap
     ethr =  1.78E-04,  avg # of iterations =  1.0

     total cpu time spent up to now is        0.7 secs

     total energy              =      -5.04371988 Ry
     Harris-Foulkes estimate   =      -5.04380863 Ry
     estimated scf accuracy    <       0.00036857 Ry

     iteration #  3     ecut=    40.00 Ry     beta= 0.70
     Davidson diagonalization with overlap
     ethr =  1.23E-05,  avg # of iterations =  1.9

     total cpu time spent up to now is        0.7 secs

     total energy              =      -5.04374079 Ry
     Harris-Foulkes estimate   =      -5.04374079 Ry
     estimated scf accuracy    <       0.00000144 Ry

     iteration #  4     ecut=    40.00 Ry     beta= 0.70
     Davidson diagonalization with overlap
     ethr =  4.79E-08,  avg # of iterations =  2.9

     total cpu time spent up to now is        0.8 secs

     total energy              =      -5.04374300 Ry
     Harris-Foulkes estimate   =      -5.04374298 Ry
     estimated scf accuracy    <       0.00000008 Ry

     iteration #  5     ecut=    40.00 Ry     beta= 0.70
     Davidson diagonalization with overlap
     ethr =  2.70E-09,  avg # of iterations =  1.0

     total cpu time spent up to now is        0.9 secs

     End of self-consistent calculation

          k = 0.0000 0.0000 0.0000 (   531 PWs)   bands (ev):

    -3.2515  20.4375  20.4375  21.8734  21.8734  21.8734

          k =-0.1667 0.1667-0.1667 (   489 PWs)   bands (ev):

    -2.5005  14.4730  19.1572  19.1572  22.3786  23.7925

          k =-0.3333 0.3333-0.3333 (   492 PWs)   bands (ev):

    -0.2708   8.3453  18.5759  18.5759  21.1587  21.1587

          k = 0.5000-0.5000 0.5000 (   476 PWs)   bands (ev):

     3.2743   3.4793  19.1921  19.1921  19.2876  19.2876

          k = 0.0000 0.3333 0.0000 (   488 PWs)   bands (ev):

    -2.2511  16.8282  16.8282  17.0037  20.0584  20.2972

          k =-0.1667 0.5000-0.1667 (   481 PWs)   bands (ev):

    -0.5172  10.8437  15.7723  16.5072  17.4178  22.2924

          k = 0.6667-0.3333 0.6667 (   468 PWs)   bands (ev):

     2.6462   5.5235  14.0484  15.9985  17.7792  23.7608

          k = 0.5000-0.1667 0.5000 (   483 PWs)   bands (ev):

     1.4396   7.1501  12.9394  17.5077  19.4340  22.6987

          k = 0.3333 0.0000 0.3333 (   487 PWs)   bands (ev):

    -1.2576  12.3266  13.7254  20.2551  22.2754  22.3777

          k = 0.0000 0.6667 0.0000 (   480 PWs)   bands (ev):

     0.7067  12.2177  14.1008  14.2713  14.2713  17.7591

          k = 0.8333-0.1667 0.8333 (   472 PWs)   bands (ev):

     3.3473   8.8844   9.3464  14.0614  15.5717  20.7211

          k = 0.6667-0.0000 0.6667 (   466 PWs)   bands (ev):

     4.5548   6.7790   8.2382  15.1391  16.9041  26.4493

          k = 0.0000-1.0000 0.0000 (   468 PWs)   bands (ev):

     4.9351   6.2547  13.1139  13.4178  13.4178  16.8655

          k = 0.6667-0.3333 1.0000 (   481 PWs)   bands (ev):

     1.6799   9.5530  11.0042  13.2025  20.6278  22.2440

          k = 0.5000-0.1667 0.8333 (   478 PWs)   bands (ev):

     5.1260   5.3853  10.8508  11.4043  21.8156  22.3061

          k =-0.3333-1.0000 0.0000 (   478 PWs)   bands (ev):

     5.8564   7.2032   8.6278  10.1846  19.7422  21.5597

     the Fermi energy is     8.2057 ev

!    total energy              =      -5.04374300 Ry
     Harris-Foulkes estimate   =      -5.04374300 Ry
     estimated scf accuracy    <          5.5E-09 Ry

     The total energy is the sum of the following terms:

     one-electron contribution =       2.93310955 Ry
     hartree contribution      =       0.00562643 Ry
     xc contribution           =      -2.58815457 Ry
     ewald contribution        =      -5.39395543 Ry
     smearing contrib. (-TS)   =      -0.00036898 Ry

     convergence has been achieved in   5 iterations

     Forces acting on atoms (cartesian axes, Ry/au):

     atom    1 type  1   force =     0.00000000    0.00000000    0.00000000

     Total force =     0.000000     Total SCF correction =     0.000000


     Computing stress (Cartesian axis) and pressure

          total   stress  (Ry/bohr**3)                   (kbar)     P=   -0.30
  -0.00000204   0.00000000   0.00000000         -0.30      0.00      0.00
   0.00000000  -0.00000204  -0.00000000          0.00     -0.30     -0.00
   0.00000000  -0.00000000  -0.00000204          0.00     -0.00     -0.30


     Writing output data file Al.save/

     init_run     :      0.09s CPU      0.09s WALL (       1 calls)
     electrons    :      0.38s CPU      0.42s WALL (       1 calls)
     forces       :      0.01s CPU      0.01s WALL (       1 calls)
     stress       :      0.03s CPU      0.03s WALL (       1 calls)

     Called by init_run:
     wfcinit      :      0.02s CPU      0.02s WALL (       1 calls)
     potinit      :      0.01s CPU      0.01s WALL (       1 calls)
     hinit0       :      0.06s CPU      0.06s WALL (       1 calls)

     Called by electrons:
     c_bands      :      0.29s CPU      0.32s WALL (       6 calls)
     sum_band     :      0.07s CPU      0.07s WALL (       6 calls)
     v_of_rho     :      0.02s CPU      0.02s WALL (       6 calls)
     newd         :      0.01s CPU      0.01s WALL (       6 calls)
     mix_rho      :      0.00s CPU      0.00s WALL (       6 calls)

     Called by c_bands:
     init_us_2    :      0.01s CPU      0.01s WALL (     240 calls)
     cegterg      :      0.28s CPU      0.30s WALL (      96 calls)

     Called by sum_band:
     sum_band:bec :      0.00s CPU      0.00s WALL (      96 calls)
     addusdens    :      0.00s CPU      0.00s WALL (       6 calls)

     Called by *egterg:
     h_psi        :      0.23s CPU      0.25s WALL (     333 calls)
     s_psi        :      0.00s CPU      0.00s WALL (     333 calls)
     g_psi        :      0.00s CPU      0.00s WALL (     221 calls)
     cdiaghg      :      0.03s CPU      0.03s WALL (     301 calls)

     Called by h_psi:
     h_psi:pot    :      0.23s CPU      0.25s WALL (     333 calls)
     h_psi:calbec :      0.01s CPU      0.01s WALL (     333 calls)
     vloc_psi     :      0.21s CPU      0.23s WALL (     333 calls)
     add_vuspsi   :      0.00s CPU      0.00s WALL (     333 calls)

     General routines
     calbec       :      0.02s CPU      0.02s WALL (     509 calls)
     fft          :      0.01s CPU      0.01s WALL (      93 calls)
     ffts         :      0.00s CPU      0.00s WALL (       6 calls)
     fftw         :      0.24s CPU      0.26s WALL (    3658 calls)

     Parallel routines
     fft_scatt_xy :      0.02s CPU      0.02s WALL (    3757 calls)
     fft_scatt_yz :      0.09s CPU      0.10s WALL (    3757 calls)

     PWSCF        :     0.89s CPU         0.96s WALL


   This run was terminated on:  19:59:56  25Mar2024            

=------------------------------------------------------------------------------=
   JOB DONE.
=------------------------------------------------------------------------------=
