
     Program PWSCF v.6.3MaX starts on 25Mar2024 at 20:10:55 

     This program is part of the open-source Quantum ESPRESSO suite
     for quantum simulation of materials; please cite
         "P. Giannozzi et al., J. Phys.:Condens. Matter 21 395502 (2009);
         "P. Giannozzi et al., J. Phys.:Condens. Matter 29 465901 (2017);
          URL http://www.quantum-espresso.org", 
     in publications or presentations arising from this work. More details at
     http://www.quantum-espresso.org/quote

     Parallel version (MPI), running on     5 processors

     MPI processes distributed on     1 nodes
     R & G space division:  proc/nbgrp/npool/nimage =       5
     Waiting for input...
     Reading input from standard input

     Current dimensions of program PWSCF are:
     Max number of different atomic species (ntypx) = 10
     Max number of k-points (npk) =  40000
     Max angular momentum in pseudopotentials (lmaxx) =  3

     Subspace diagonalization in iterative solution of the eigenvalue problem:
     a serial algorithm will be used


     Parallelization info
     --------------------
     sticks:   dense  smooth     PW     G-vecs:    dense   smooth      PW
     Min         129     129     39                 2168     2168     376
     Max         130     130     40                 2171     2171     380
     Sum         649     649    199                10849    10849    1893



     bravais-lattice index     =            2
     lattice parameter (alat)  =       7.6500  a.u.
     unit-cell volume          =     111.9243 (a.u.)^3
     number of atoms/cell      =            1
     number of atomic types    =            1
     number of electrons       =         3.00
     number of Kohn-Sham states=            6
     kinetic-energy cutoff     =      80.0000  Ry
     charge density cutoff     =     320.0000  Ry
     convergence threshold     =      1.0E-08
     mixing beta               =       0.7000
     number of iterations used =            8  plain     mixing
     Exchange-correlation      = PBE ( 1  4  3  4 0 0)

     celldm(1)=   7.650000  celldm(2)=   0.000000  celldm(3)=   0.000000
     celldm(4)=   0.000000  celldm(5)=   0.000000  celldm(6)=   0.000000

     crystal axes: (cart. coord. in units of alat)
               a(1) = (  -0.500000   0.000000   0.500000 )  
               a(2) = (   0.000000   0.500000   0.500000 )  
               a(3) = (  -0.500000   0.500000   0.000000 )  

     reciprocal axes: (cart. coord. in units 2 pi/alat)
               b(1) = ( -1.000000 -1.000000  1.000000 )  
               b(2) = (  1.000000  1.000000  1.000000 )  
               b(3) = ( -1.000000  1.000000 -1.000000 )  


     PseudoPot. # 1 for Al read from file:
     /home/lorenzo/pseudos/Al/Al.pbe-nl-rrkjus_psl.1.0.0.UPF
     MD5 check sum: 6db8691240a1c860ce6448702d298c4b
     Pseudo is Ultrasoft + core correction, Zval =  3.0
     Generated using "atomic" code by A. Dal Corso v.6.3
     Using radial grid of 1135 points,  4 beta functions with: 
                l(1) =   0
                l(2) =   0
                l(3) =   1
                l(4) =   1
     Q(r) pseudized with 0 coefficients 


     atomic species   valence    mass     pseudopotential
        Al             3.00    26.98150     Al( 1.00)

     48 Sym. Ops., with inversion, found



   Cartesian axes

     site n.     atom                  positions (alat units)
         1           Al  tau(   1) = (   0.0000000   0.0000000   0.0000000  )

     number of k points=    29  gaussian smearing, width (Ry)=  0.0100
                       cart. coord. in units 2pi/alat
        k(    1) = (   0.0000000   0.0000000   0.0000000), wk =   0.0039062
        k(    2) = (  -0.1250000   0.1250000  -0.1250000), wk =   0.0312500
        k(    3) = (  -0.2500000   0.2500000  -0.2500000), wk =   0.0312500
        k(    4) = (  -0.3750000   0.3750000  -0.3750000), wk =   0.0312500
        k(    5) = (   0.5000000  -0.5000000   0.5000000), wk =   0.0156250
        k(    6) = (   0.0000000   0.2500000   0.0000000), wk =   0.0234375
        k(    7) = (  -0.1250000   0.3750000  -0.1250000), wk =   0.0937500
        k(    8) = (  -0.2500000   0.5000000  -0.2500000), wk =   0.0937500
        k(    9) = (   0.6250000  -0.3750000   0.6250000), wk =   0.0937500
        k(   10) = (   0.5000000  -0.2500000   0.5000000), wk =   0.0937500
        k(   11) = (   0.3750000  -0.1250000   0.3750000), wk =   0.0937500
        k(   12) = (   0.2500000   0.0000000   0.2500000), wk =   0.0468750
        k(   13) = (   0.0000000   0.5000000   0.0000000), wk =   0.0234375
        k(   14) = (  -0.1250000   0.6250000  -0.1250000), wk =   0.0937500
        k(   15) = (   0.7500000  -0.2500000   0.7500000), wk =   0.0937500
        k(   16) = (   0.6250000  -0.1250000   0.6250000), wk =   0.0937500
        k(   17) = (   0.5000000   0.0000000   0.5000000), wk =   0.0468750
        k(   18) = (   0.0000000   0.7500000   0.0000000), wk =   0.0234375
        k(   19) = (   0.8750000  -0.1250000   0.8750000), wk =   0.0937500
        k(   20) = (   0.7500000   0.0000000   0.7500000), wk =   0.0468750
        k(   21) = (   0.0000000  -1.0000000   0.0000000), wk =   0.0117188
        k(   22) = (  -0.2500000   0.5000000   0.0000000), wk =   0.0937500
        k(   23) = (   0.6250000  -0.3750000   0.8750000), wk =   0.1875000
        k(   24) = (   0.5000000  -0.2500000   0.7500000), wk =   0.0937500
        k(   25) = (   0.7500000  -0.2500000   1.0000000), wk =   0.0937500
        k(   26) = (   0.6250000  -0.1250000   0.8750000), wk =   0.1875000
        k(   27) = (   0.5000000   0.0000000   0.7500000), wk =   0.0937500
        k(   28) = (  -0.2500000  -1.0000000   0.0000000), wk =   0.0468750
        k(   29) = (  -0.5000000  -1.0000000   0.0000000), wk =   0.0234375

     Dense  grid:    10849 G-vectors     FFT dimensions: (  32,  32,  32)

     Estimated max dynamical RAM per process >       4.32 MB

     Estimated total dynamical RAM >      21.62 MB

     Initial potential from superposition of free atoms

     starting charge    2.99771, renormalised to    3.00000
     Starting wfcs are    4 randomized atomic wfcs +    2 random wfcs

     total cpu time spent up to now is        0.6 secs

     Self-consistent Calculation

     iteration #  1     ecut=    80.00 Ry     beta= 0.70
     Davidson diagonalization with overlap
     ethr =  1.00E-02,  avg # of iterations =  5.0

     Threshold (ethr) on eigenvalues was too large:
     Diagonalizing with lowered threshold

     Davidson diagonalization with overlap
     ethr =  1.94E-04,  avg # of iterations =  2.1

     total cpu time spent up to now is        1.3 secs

     total energy              =      -5.03852644 Ry
     Harris-Foulkes estimate   =      -5.03986648 Ry
     estimated scf accuracy    <       0.00569589 Ry

     iteration #  2     ecut=    80.00 Ry     beta= 0.70
     Davidson diagonalization with overlap
     ethr =  1.90E-04,  avg # of iterations =  1.0

     total cpu time spent up to now is        1.5 secs

     total energy              =      -5.03851661 Ry
     Harris-Foulkes estimate   =      -5.03860571 Ry
     estimated scf accuracy    <       0.00040806 Ry

     iteration #  3     ecut=    80.00 Ry     beta= 0.70
     Davidson diagonalization with overlap
     ethr =  1.36E-05,  avg # of iterations =  1.9

     total cpu time spent up to now is        1.7 secs

     total energy              =      -5.03853563 Ry
     Harris-Foulkes estimate   =      -5.03853569 Ry
     estimated scf accuracy    <       0.00000142 Ry

     iteration #  4     ecut=    80.00 Ry     beta= 0.70
     Davidson diagonalization with overlap
     ethr =  4.74E-08,  avg # of iterations =  3.0

     total cpu time spent up to now is        2.1 secs

     total energy              =      -5.03853765 Ry
     Harris-Foulkes estimate   =      -5.03853764 Ry
     estimated scf accuracy    <       0.00000007 Ry

     iteration #  5     ecut=    80.00 Ry     beta= 0.70
     Davidson diagonalization with overlap
     ethr =  2.43E-09,  avg # of iterations =  1.2

     total cpu time spent up to now is        2.4 secs

     total energy              =      -5.03853766 Ry
     Harris-Foulkes estimate   =      -5.03853765 Ry
     estimated scf accuracy    <       0.00000004 Ry

     iteration #  6     ecut=    80.00 Ry     beta= 0.70
     Davidson diagonalization with overlap
     ethr =  1.30E-09,  avg # of iterations =  1.0

     total cpu time spent up to now is        2.7 secs

     End of self-consistent calculation

          k = 0.0000 0.0000 0.0000 (  1363 PWs)   bands (ev):

    -3.2491  20.4401  20.4401  21.8757  21.8757  21.8757

          k =-0.1250 0.1250-0.1250 (  1366 PWs)   bands (ev):

    -2.8262  16.1434  19.4846  19.4846  22.5079  23.4206

          k =-0.2500 0.2500-0.2500 (  1351 PWs)   bands (ev):

    -1.5650  11.2832  18.7174  18.7174  22.1546  22.5461

          k =-0.3750 0.3750-0.3750 (  1350 PWs)   bands (ev):

     0.5132   6.9892  18.6252  18.6252  20.5671  20.5671

          k = 0.5000-0.5000 0.5000 (  1350 PWs)   bands (ev):

     3.2758   3.4828  19.1954  19.1954  19.2885  19.2885

          k = 0.0000 0.2500 0.0000 (  1355 PWs)   bands (ev):

    -2.6855  17.7277  17.7277  17.9918  20.7288  22.4399

          k =-0.1250 0.3750-0.1250 (  1350 PWs)   bands (ev):

    -1.7046  13.1403  16.6645  18.1848  19.4124  21.9347

          k =-0.2500 0.5000-0.2500 (  1354 PWs)   bands (ev):

     0.0996   8.6852  16.3168  17.0440  18.0203  24.0262

          k = 0.6250-0.3750 0.6250 (  1354 PWs)   bands (ev):

     2.6944   4.8622  15.4204  16.6884  18.4578  22.5179

          k = 0.5000-0.2500 0.5000 (  1363 PWs)   bands (ev):

     1.7454   6.0544  14.5408  17.7800  19.6382  21.6778

          k = 0.3750-0.1250 0.3750 (  1353 PWs)   bands (ev):

    -0.5916  10.0838  14.4412  19.5715  21.5194  21.5267

          k = 0.2500 0.0000 0.2500 (  1365 PWs)   bands (ev):

    -2.1242  14.2862  15.5165  21.5335  21.8229  23.1606

          k = 0.0000 0.5000 0.0000 (  1355 PWs)   bands (ev):

    -1.0081  15.3281  15.3405  15.3405  16.0862  18.8019

          k =-0.1250 0.6250-0.1250 (  1347 PWs)   bands (ev):

     0.5116  11.0689  13.4199  14.7431  16.2144  20.2172

          k = 0.7500-0.2500 0.7500 (  1348 PWs)   bands (ev):

     2.8241   7.1005  11.4975  14.8695  16.5557  23.8796

          k = 0.6250-0.1250 0.6250 (  1352 PWs)   bands (ev):

     3.7708   5.8822  10.3764  15.7199  17.5437  25.4290

          k = 0.5000 0.0000 0.5000 (  1360 PWs)   bands (ev):

     1.1987   9.0929  10.5905  17.2938  19.2551  25.4027

          k = 0.0000 0.7500 0.0000 (  1359 PWs)   bands (ev):

     1.7384  10.4326  13.6738  13.8999  13.8999  17.3756

          k = 0.8750-0.1250 0.8750 (  1350 PWs)   bands (ev):

     3.7360   8.2254  10.0586  13.7817  15.1523  19.2816

          k = 0.7500 0.0000 0.7500 (  1350 PWs)   bands (ev):

     5.9748   6.5011   7.4486  14.3876  16.0318  23.4657

          k = 0.0000-1.0000 0.0000 (  1362 PWs)   bands (ev):

     4.9383   6.2558  13.1179  13.4199  13.4199  16.8667

          k =-0.2500 0.5000 0.0000 (  1347 PWs)   bands (ev):

    -0.4532  11.6958  13.0882  16.6013  19.9572  21.7090

          k = 0.6250-0.3750 0.8750 (  1353 PWs)   bands (ev):

     1.6077   7.9890  12.4159  14.4697  20.5762  22.6560

          k = 0.5000-0.2500 0.7500 (  1356 PWs)   bands (ev):

     4.3205   4.5716  12.8160  13.2738  21.0956  21.5330

          k = 0.7500-0.2500 1.0000 (  1339 PWs)   bands (ev):

     2.2824  10.1351  10.8459  11.7232  18.4683  20.4611

          k = 0.6250-0.1250 0.8750 (  1350 PWs)   bands (ev):

     4.8005   6.9277   9.3057  11.4590  19.6461  23.7644

          k = 0.5000 0.0000 0.7500 (  1348 PWs)   bands (ev):

     3.9013   7.5327   8.9963  12.5628  20.8567  24.0919

          k =-0.2500-1.0000 0.0000 (  1358 PWs)   bands (ev):

     5.4563   6.7961   9.6143  11.1114  17.9606  20.0073

          k =-0.5000-1.0000 0.0000 (  1348 PWs)   bands (ev):

     7.0131   7.0131   8.0324   8.9319  23.6201  23.6201

     the Fermi energy is     7.8843 ev

!    total energy              =      -5.03853767 Ry
     Harris-Foulkes estimate   =      -5.03853767 Ry
     estimated scf accuracy    <          4.9E-10 Ry

     The total energy is the sum of the following terms:

     one-electron contribution =       2.93762357 Ry
     hartree contribution      =       0.00648910 Ry
     xc contribution           =      -2.58838158 Ry
     ewald contribution        =      -5.39395538 Ry
     smearing contrib. (-TS)   =      -0.00031337 Ry

     convergence has been achieved in   6 iterations

     Forces acting on atoms (cartesian axes, Ry/au):

     atom    1 type  1   force =     0.00000000    0.00000000    0.00000000

     Total force =     0.000000     Total SCF correction =     0.000000


     Computing stress (Cartesian axis) and pressure

          total   stress  (Ry/bohr**3)                   (kbar)     P=   -4.18
  -0.00002839   0.00000000  -0.00000000         -4.18      0.00     -0.00
   0.00000000  -0.00002839   0.00000000          0.00     -4.18      0.00
  -0.00000000   0.00000000  -0.00002839         -0.00      0.00     -4.18


     Writing output data file Al.save/

     init_run     :      0.23s CPU      0.24s WALL (       1 calls)
     electrons    :      1.86s CPU      2.03s WALL (       1 calls)
     forces       :      0.03s CPU      0.03s WALL (       1 calls)
     stress       :      0.10s CPU      0.10s WALL (       1 calls)

     Called by init_run:
     wfcinit      :      0.09s CPU      0.10s WALL (       1 calls)
     potinit      :      0.02s CPU      0.02s WALL (       1 calls)
     hinit0       :      0.10s CPU      0.11s WALL (       1 calls)

     Called by electrons:
     c_bands      :      1.53s CPU      1.66s WALL (       7 calls)
     sum_band     :      0.27s CPU      0.30s WALL (       7 calls)
     v_of_rho     :      0.05s CPU      0.06s WALL (       7 calls)
     newd         :      0.02s CPU      0.02s WALL (       7 calls)
     mix_rho      :      0.00s CPU      0.00s WALL (       7 calls)

     Called by c_bands:
     init_us_2    :      0.04s CPU      0.05s WALL (     493 calls)
     cegterg      :      1.46s CPU      1.59s WALL (     203 calls)

     Called by sum_band:
     sum_band:bec :      0.00s CPU      0.00s WALL (     203 calls)
     addusdens    :      0.02s CPU      0.02s WALL (       7 calls)

     Called by *egterg:
     h_psi        :      1.26s CPU      1.37s WALL (     672 calls)
     s_psi        :      0.02s CPU      0.02s WALL (     672 calls)
     g_psi        :      0.00s CPU      0.00s WALL (     440 calls)
     cdiaghg      :      0.09s CPU      0.09s WALL (     614 calls)

     Called by h_psi:
     h_psi:pot    :      1.25s CPU      1.36s WALL (     672 calls)
     h_psi:calbec :      0.08s CPU      0.08s WALL (     672 calls)
     vloc_psi     :      1.15s CPU      1.26s WALL (     672 calls)
     add_vuspsi   :      0.02s CPU      0.02s WALL (     672 calls)

     General routines
     calbec       :      0.11s CPU      0.12s WALL (    1020 calls)
     fft          :      0.03s CPU      0.03s WALL (     104 calls)
     ffts         :      0.00s CPU      0.00s WALL (       7 calls)
     fftw         :      1.27s CPU      1.39s WALL (    7536 calls)

     Parallel routines
     fft_scatt_xy :      0.10s CPU      0.11s WALL (    7647 calls)
     fft_scatt_yz :      0.62s CPU      0.67s WALL (    7647 calls)

     PWSCF        :     2.66s CPU         2.89s WALL


   This run was terminated on:  20:10:57  25Mar2024            

=------------------------------------------------------------------------------=
   JOB DONE.
=------------------------------------------------------------------------------=
