
     Program PWSCF v.6.3MaX starts on  8Apr2024 at  0:21:56 

     This program is part of the open-source Quantum ESPRESSO suite
     for quantum simulation of materials; please cite
         "P. Giannozzi et al., J. Phys.:Condens. Matter 21 395502 (2009);
         "P. Giannozzi et al., J. Phys.:Condens. Matter 29 465901 (2017);
          URL http://www.quantum-espresso.org", 
     in publications or presentations arising from this work. More details at
     http://www.quantum-espresso.org/quote

     Parallel version (MPI), running on     5 processors

     MPI processes distributed on     1 nodes
     R & G space division:  proc/nbgrp/npool/nimage =       5
     Waiting for input...
     Reading input from standard input

     Current dimensions of program PWSCF are:
     Max number of different atomic species (ntypx) = 10
     Max number of k-points (npk) =  40000
     Max angular momentum in pseudopotentials (lmaxx) =  3
               file K.pz-spn-rrkjus_psl.1.0.0.UPF: wavefunction(s)  3S renormalized

     Subspace diagonalization in iterative solution of the eigenvalue problem:
     a serial algorithm will be used


     Parallelization info
     --------------------
     sticks:   dense  smooth     PW     G-vecs:    dense   smooth      PW
     Min         153     153     45                 2690     2690     447
     Max         154     154     46                 2691     2691     449
     Sum         769     769    229                13451    13451    2243



     bravais-lattice index     =            3
     lattice parameter (alat)  =       9.8600  a.u.
     unit-cell volume          =     479.2926 (a.u.)^3
     number of atoms/cell      =            1
     number of atomic types    =            1
     number of electrons       =         9.00
     number of Kohn-Sham states=            9
     kinetic-energy cutoff     =      35.0000  Ry
     charge density cutoff     =     140.0000  Ry
     convergence threshold     =      1.0E-08
     mixing beta               =       0.7000
     number of iterations used =            8  plain     mixing
     Exchange-correlation      = LDA ( 1  1  0  0 0 0)

     celldm(1)=   9.860000  celldm(2)=   0.000000  celldm(3)=   0.000000
     celldm(4)=   0.000000  celldm(5)=   0.000000  celldm(6)=   0.000000

     crystal axes: (cart. coord. in units of alat)
               a(1) = (   0.500000   0.500000   0.500000 )  
               a(2) = (  -0.500000   0.500000   0.500000 )  
               a(3) = (  -0.500000  -0.500000   0.500000 )  

     reciprocal axes: (cart. coord. in units 2 pi/alat)
               b(1) = (  1.000000  0.000000  1.000000 )  
               b(2) = ( -1.000000  1.000000  0.000000 )  
               b(3) = (  0.000000 -1.000000  1.000000 )  


     PseudoPot. # 1 for K  read from file:
     /home/lorenzo/pseudos/K/K.pz-spn-rrkjus_psl.1.0.0.UPF
     MD5 check sum: af434a66a3b91719abff201b8f79bb09
     Pseudo is Ultrasoft + core correction, Zval =  9.0
     Generated using "atomic" code by A. Dal Corso v.6.2.2
     Using radial grid of 1165 points,  6 beta functions with: 
                l(1) =   0
                l(2) =   0
                l(3) =   1
                l(4) =   1
                l(5) =   2
                l(6) =   2
     Q(r) pseudized with 0 coefficients 


     atomic species   valence    mass     pseudopotential
        K              9.00    39.09830     K ( 1.00)

     48 Sym. Ops., with inversion, found



   Cartesian axes

     site n.     atom                  positions (alat units)
         1           K   tau(   1) = (   0.0000000   0.0000000   0.0000000  )

     number of k points=    47  gaussian smearing, width (Ry)=  0.0100
                       cart. coord. in units 2pi/alat
        k(    1) = (   0.0000000   0.0000000   0.0000000), wk =   0.0020000
        k(    2) = (   0.0000000  -0.1000000   0.1000000), wk =   0.0240000
        k(    3) = (   0.0000000  -0.2000000   0.2000000), wk =   0.0240000
        k(    4) = (   0.0000000  -0.3000000   0.3000000), wk =   0.0240000
        k(    5) = (   0.0000000  -0.4000000   0.4000000), wk =   0.0240000
        k(    6) = (   0.0000000   0.5000000  -0.5000000), wk =   0.0120000
        k(    7) = (  -0.1000000  -0.1000000   0.2000000), wk =   0.0480000
        k(    8) = (  -0.1000000  -0.2000000   0.3000000), wk =   0.0960000
        k(    9) = (  -0.1000000  -0.3000000   0.4000000), wk =   0.0960000
        k(   10) = (  -0.1000000   0.6000000  -0.5000000), wk =   0.0960000
        k(   11) = (  -0.2000000  -0.2000000   0.4000000), wk =   0.0480000
        k(   12) = (  -0.2000000   0.7000000  -0.5000000), wk =   0.0960000
        k(   13) = (  -0.2000000   0.6000000  -0.4000000), wk =   0.0480000
        k(   14) = (  -0.3000000   0.7000000  -0.4000000), wk =   0.0480000
        k(   15) = (   0.0000000   0.0000000   0.2000000), wk =   0.0120000
        k(   16) = (   0.0000000  -0.1000000   0.3000000), wk =   0.0480000
        k(   17) = (   0.0000000  -0.2000000   0.4000000), wk =   0.0480000
        k(   18) = (   0.0000000  -0.3000000   0.5000000), wk =   0.0480000
        k(   19) = (   0.0000000   0.6000000  -0.4000000), wk =   0.0240000
        k(   20) = (  -0.1000000  -0.1000000   0.4000000), wk =   0.0480000
        k(   21) = (  -0.1000000  -0.2000000   0.5000000), wk =   0.0960000
        k(   22) = (  -0.1000000   0.7000000  -0.4000000), wk =   0.0960000
        k(   23) = (  -0.2000000   0.2000000   0.2000000), wk =   0.0160000
        k(   24) = (  -0.2000000   0.8000000  -0.4000000), wk =   0.0480000
        k(   25) = (  -0.2000000   0.7000000  -0.3000000), wk =   0.0480000
        k(   26) = (  -0.3000000   0.3000000   0.2000000), wk =   0.0480000
        k(   27) = (   0.6000000  -0.6000000   0.2000000), wk =   0.0480000
        k(   28) = (   0.6000000  -0.7000000   0.3000000), wk =   0.0480000
        k(   29) = (   0.5000000  -0.5000000   0.2000000), wk =   0.0240000
        k(   30) = (   0.5000000  -0.6000000   0.3000000), wk =   0.0960000
        k(   31) = (   0.4000000  -0.6000000   0.4000000), wk =   0.0160000
        k(   32) = (   0.0000000   0.0000000   0.4000000), wk =   0.0120000
        k(   33) = (   0.0000000  -0.1000000   0.5000000), wk =   0.0480000
        k(   34) = (   0.0000000  -0.2000000   0.6000000), wk =   0.0480000
        k(   35) = (   0.0000000   0.7000000  -0.3000000), wk =   0.0240000
        k(   36) = (  -0.1000000  -0.1000000   0.6000000), wk =   0.0480000
        k(   37) = (  -0.1000000   0.8000000  -0.3000000), wk =   0.0960000
        k(   38) = (  -0.2000000   0.8000000  -0.2000000), wk =   0.0160000
        k(   39) = (   0.6000000  -0.6000000   0.4000000), wk =   0.0160000
        k(   40) = (   0.5000000  -0.5000000   0.4000000), wk =   0.0240000
        k(   41) = (   0.0000000   0.0000000   0.6000000), wk =   0.0120000
        k(   42) = (   0.0000000  -0.1000000   0.7000000), wk =   0.0480000
        k(   43) = (   0.0000000   0.8000000  -0.2000000), wk =   0.0240000
        k(   44) = (  -0.1000000   0.9000000  -0.2000000), wk =   0.0480000
        k(   45) = (   0.0000000   0.0000000   0.8000000), wk =   0.0120000
        k(   46) = (   0.0000000   0.9000000  -0.1000000), wk =   0.0240000
        k(   47) = (   0.0000000   0.0000000  -1.0000000), wk =   0.0020000

     Dense  grid:    13451 G-vectors     FFT dimensions: (  36,  36,  36)

     Estimated max dynamical RAM per process >      13.87 MB

     Estimated total dynamical RAM >      69.37 MB

     Check: negative/imaginary core charge=   -0.000007    0.000000

     Initial potential from superposition of free atoms

     starting charge    8.98437, renormalised to    9.00000
     Starting wfcs are    8 randomized atomic wfcs +    1 random wfcs

     total cpu time spent up to now is        1.1 secs

     Self-consistent Calculation

     iteration #  1     ecut=    35.00 Ry     beta= 0.70
     Davidson diagonalization with overlap
     ethr =  1.00E-02,  avg # of iterations =  6.6

     Threshold (ethr) on eigenvalues was too large:
     Diagonalizing with lowered threshold

     Davidson diagonalization with overlap
     ethr =  1.25E-05,  avg # of iterations =  6.4

     total cpu time spent up to now is        3.4 secs

     total energy              =     -58.74105604 Ry
     Harris-Foulkes estimate   =     -58.74161613 Ry
     estimated scf accuracy    <       0.00113059 Ry

     iteration #  2     ecut=    35.00 Ry     beta= 0.70
     Davidson diagonalization with overlap
     ethr =  1.26E-05,  avg # of iterations =  2.1

     total cpu time spent up to now is        4.2 secs

     total energy              =     -58.74125015 Ry
     Harris-Foulkes estimate   =     -58.74126723 Ry
     estimated scf accuracy    <       0.00008845 Ry

     iteration #  3     ecut=    35.00 Ry     beta= 0.70
     Davidson diagonalization with overlap
     ethr =  9.83E-07,  avg # of iterations =  1.9

     total cpu time spent up to now is        4.9 secs

     total energy              =     -58.74125906 Ry
     Harris-Foulkes estimate   =     -58.74125832 Ry
     estimated scf accuracy    <       0.00000556 Ry

     iteration #  4     ecut=    35.00 Ry     beta= 0.70
     Davidson diagonalization with overlap
     ethr =  6.18E-08,  avg # of iterations =  1.6

     total cpu time spent up to now is        5.6 secs

     total energy              =     -58.74125959 Ry
     Harris-Foulkes estimate   =     -58.74125958 Ry
     estimated scf accuracy    <       0.00000003 Ry

     iteration #  5     ecut=    35.00 Ry     beta= 0.70
     Davidson diagonalization with overlap
     ethr =  3.81E-10,  avg # of iterations =  2.3

     total cpu time spent up to now is        6.5 secs

     End of self-consistent calculation

          k = 0.0000 0.0000 0.0000 (  1721 PWs)   bands (ev):

   -30.0939 -13.7341 -13.7341 -13.7341  -0.4764   5.9309   5.9309   5.9309
     6.8767

          k = 0.0000-0.1000 0.1000 (  1665 PWs)   bands (ev):

   -30.0931 -13.7419 -13.7367 -13.7341  -0.3479   5.7540   5.7819   6.0341
     6.6925

          k = 0.0000-0.2000 0.2000 (  1663 PWs)   bands (ev):

   -30.0918 -13.7620 -13.7434 -13.7341   0.0288   5.0931   5.4560   6.3378
     6.6455

          k = 0.0000-0.3000 0.3000 (  1665 PWs)   bands (ev):

   -30.0902 -13.7867 -13.7517 -13.7340   0.6269   4.2100   5.1336   6.7151
     6.8283

          k = 0.0000-0.4000 0.4000 (  1665 PWs)   bands (ev):

   -30.0889 -13.8064 -13.7584 -13.7340   1.3999   3.2802   4.9137   6.6306
     7.1285

          k = 0.0000 0.5000-0.5000 (  1674 PWs)   bands (ev):

   -30.0884 -13.8139 -13.7609 -13.7340   2.1436   2.4887   4.8369   6.5344
     7.8348

          k =-0.1000-0.1000 0.2000 (  1667 PWs)   bands (ev):

   -30.0922 -13.7558 -13.7395 -13.7360  -0.0952   5.3797   5.4887   6.2250
     6.5209

          k =-0.1000-0.2000 0.3000 (  1668 PWs)   bands (ev):

   -30.0907 -13.7769 -13.7475 -13.7367   0.3930   4.6525   5.1222   6.5191
     6.5792

          k =-0.1000-0.3000 0.4000 (  1670 PWs)   bands (ev):

   -30.0893 -13.7972 -13.7566 -13.7369   1.0819   3.7828   4.8463   6.5281
     7.0050

          k =-0.1000 0.6000-0.5000 (  1672 PWs)   bands (ev):

   -30.0884 -13.8096 -13.7623 -13.7369   1.9096   2.8742   4.6994   6.3864
     7.2722

          k =-0.2000-0.2000 0.4000 (  1670 PWs)   bands (ev):

   -30.0895 -13.7916 -13.7558 -13.7402   0.9741   4.1563   4.6170   6.5748
     6.6864

          k =-0.2000 0.7000-0.5000 (  1677 PWs)   bands (ev):

   -30.0885 -13.8011 -13.7663 -13.7416   1.7296   3.4570   4.2750   6.3951
     6.8496

          k =-0.2000 0.6000-0.4000 (  1682 PWs)   bands (ev):

   -30.0881 -13.8040 -13.7712 -13.7419   2.5306   2.6595   4.1693   6.2398
     7.1389

          k =-0.3000 0.7000-0.4000 (  1680 PWs)   bands (ev):

   -30.0879 -13.7961 -13.7804 -13.7438   2.5127   3.2017   3.5734   6.2720
     6.8940

          k = 0.0000 0.0000 0.2000 (  1661 PWs)   bands (ev):

   -30.0926 -13.7440 -13.7393 -13.7393  -0.2207   5.7069   5.7069   6.0799
     6.2122

          k = 0.0000-0.1000 0.3000 (  1667 PWs)   bands (ev):

   -30.0913 -13.7620 -13.7461 -13.7404   0.1522   5.1344   5.4431   6.0135
     6.3505

          k = 0.0000-0.2000 0.4000 (  1667 PWs)   bands (ev):

   -30.0898 -13.7856 -13.7545 -13.7401   0.7445   4.2608   5.1536   6.0695
     6.8268

          k = 0.0000-0.3000 0.5000 (  1676 PWs)   bands (ev):

   -30.0885 -13.8045 -13.7613 -13.7397   1.5111   3.3492   4.9504   6.0301
     7.1577

          k = 0.0000 0.6000-0.4000 (  1694 PWs)   bands (ev):

   -30.0882 -13.8117 -13.7639 -13.7396   2.2756   2.5419   4.8786   5.9576
     7.2171

          k =-0.1000-0.1000 0.4000 (  1678 PWs)   bands (ev):

   -30.0900 -13.7777 -13.7539 -13.7445   0.6302   4.6200   5.1021   5.9152
     6.6437

          k =-0.1000-0.2000 0.5000 (  1681 PWs)   bands (ev):

   -30.0886 -13.7951 -13.7633 -13.7452   1.3050   3.8763   4.7680   5.9860
     6.8500

          k =-0.1000 0.7000-0.4000 (  1690 PWs)   bands (ev):

   -30.0878 -13.8059 -13.7695 -13.7451   2.1216   3.0203   4.5843   5.9071
     6.9782

          k =-0.2000 0.2000 0.2000 (  1676 PWs)   bands (ev):

   -30.0912 -13.7738 -13.7400 -13.7400   0.2734   4.9538   4.9538   6.4674
     6.8706

          k =-0.2000 0.8000-0.4000 (  1683 PWs)   bands (ev):

   -30.0877 -13.7994 -13.7759 -13.7471   2.0332   3.5050   4.0988   6.2526
     6.5740

          k =-0.2000 0.7000-0.3000 (  1679 PWs)   bands (ev):

   -30.0873 -13.7990 -13.7832 -13.7474   2.8251   2.8728   3.8099   6.2966
     6.7916

          k =-0.3000 0.3000 0.2000 (  1662 PWs)   bands (ev):

   -30.0898 -13.7908 -13.7501 -13.7406   0.8610   4.2283   4.6238   6.5926
     6.9598

          k = 0.6000-0.6000 0.2000 (  1671 PWs)   bands (ev):

   -30.0887 -13.8021 -13.7606 -13.7411   1.6237   3.4021   4.4197   6.3397
     7.1826

          k = 0.6000-0.7000 0.3000 (  1665 PWs)   bands (ev):

   -30.0888 -13.7976 -13.7581 -13.7462   1.5253   3.8262   4.1204   6.1679
     7.0857

          k = 0.5000-0.5000 0.2000 (  1676 PWs)   bands (ev):

   -30.0883 -13.8059 -13.7651 -13.7413   2.4046   2.6041   4.3509   6.1652
     7.3183

          k = 0.5000-0.6000 0.3000 (  1672 PWs)   bands (ev):

   -30.0883 -13.7970 -13.7695 -13.7480   2.3278   3.1589   3.8906   5.7487
     7.2150

          k = 0.4000-0.6000 0.4000 (  1673 PWs)   bands (ev):

   -30.0881 -13.7840 -13.7840 -13.7505   3.0203   3.0203   3.3253   5.4976
     7.3038

          k = 0.0000 0.0000 0.4000 (  1681 PWs)   bands (ev):

   -30.0902 -13.7654 -13.7532 -13.7532   0.5136   5.1020   5.3509   5.3509
     6.5014

          k = 0.0000-0.1000 0.5000 (  1684 PWs)   bands (ev):

   -30.0887 -13.7830 -13.7619 -13.7554   1.0869   4.3521   5.1845   5.4072
     6.8405

          k = 0.0000-0.2000 0.6000 (  1690 PWs)   bands (ev):

   -30.0876 -13.7997 -13.7689 -13.7546   1.8280   3.5345   5.0429   5.3173
     6.6815

          k = 0.0000 0.7000-0.3000 (  1686 PWs)   bands (ev):

   -30.0871 -13.8062 -13.7716 -13.7541   2.6451   2.7003   4.9897   5.2085
     6.7863

          k =-0.1000-0.1000 0.6000 (  1688 PWs)   bands (ev):

   -30.0875 -13.7928 -13.7723 -13.7591   1.7275   3.9034   4.7474   5.5662
     6.3823

          k =-0.1000 0.8000-0.3000 (  1679 PWs)   bands (ev):

   -30.0866 -13.8000 -13.7799 -13.7590   2.4920   3.2800   4.3714   5.6559
     6.4234

          k =-0.2000 0.8000-0.2000 (  1680 PWs)   bands (ev):

   -30.0863 -13.7927 -13.7927 -13.7594   3.0932   3.0932   3.8050   6.1473
     6.1473

          k = 0.6000-0.6000 0.4000 (  1670 PWs)   bands (ev):

   -30.0884 -13.7935 -13.7600 -13.7600   2.2377   3.6315   3.6315   5.3857
     7.3562

          k = 0.5000-0.5000 0.4000 (  1678 PWs)   bands (ev):

   -30.0882 -13.7854 -13.7718 -13.7607   2.9603   3.0466   3.5674   5.0234
     7.3874

          k = 0.0000 0.0000 0.6000 (  1689 PWs)   bands (ev):

   -30.0874 -13.7831 -13.7709 -13.7709   1.6233   4.1800   5.1795   5.1795
     6.1253

          k = 0.0000-0.1000 0.7000 (  1691 PWs)   bands (ev):

   -30.0863 -13.7938 -13.7782 -13.7726   2.3000   3.6944   4.9841   5.1463
     5.9591

          k = 0.0000 0.8000-0.2000 (  1678 PWs)   bands (ev):

   -30.0858 -13.7993 -13.7810 -13.7719   2.9526   3.1247   4.7705   5.1284
     6.1596

          k =-0.1000 0.9000-0.2000 (  1685 PWs)   bands (ev):

   -30.0855 -13.7950 -13.7877 -13.7746   2.9239   3.4157   4.4770   5.5167
     5.8272

          k = 0.0000 0.0000 0.8000 (  1686 PWs)   bands (ev):

   -30.0852 -13.7904 -13.7858 -13.7858   2.8400   3.5988   5.2174   5.2175
     5.2881

          k = 0.0000 0.9000-0.1000 (  1668 PWs)   bands (ev):

   -30.0847 -13.7937 -13.7887 -13.7862   3.2452   3.3836   4.9312   5.2410
     5.5574

          k = 0.0000 0.0000-1.0000 (  1686 PWs)   bands (ev):

   -30.0844 -13.7916 -13.7916 -13.7916   3.4017   5.2838   5.2838   5.2838
     7.2561

     the Fermi energy is     1.7387 ev

!    total energy              =     -58.74125959 Ry
     Harris-Foulkes estimate   =     -58.74125960 Ry
     estimated scf accuracy    <          9.7E-10 Ry

     The total energy is the sum of the following terms:

     one-electron contribution =     -36.65162837 Ry
     hartree contribution      =      18.82473009 Ry
     xc contribution           =     -11.01736942 Ry
     ewald contribution        =     -29.89633975 Ry
     smearing contrib. (-TS)   =      -0.00065215 Ry

     convergence has been achieved in   5 iterations

     Forces acting on atoms (cartesian axes, Ry/au):

     atom    1 type  1   force =     0.00000000    0.00000000    0.00000000

     Total force =     0.000000     Total SCF correction =     0.000000


     Computing stress (Cartesian axis) and pressure

          total   stress  (Ry/bohr**3)                   (kbar)     P=   -4.25
  -0.00002891  -0.00000000   0.00000000         -4.25     -0.00      0.00
  -0.00000000  -0.00002891  -0.00000000         -0.00     -4.25     -0.00
   0.00000000  -0.00000000  -0.00002891          0.00     -0.00     -4.25


     Writing output data file K.save/

     init_run     :      0.37s CPU      0.39s WALL (       1 calls)
     electrons    :      5.09s CPU      5.41s WALL (       1 calls)
     forces       :      0.07s CPU      0.07s WALL (       1 calls)
     stress       :      0.28s CPU      0.28s WALL (       1 calls)

     Called by init_run:
     wfcinit      :      0.21s CPU      0.23s WALL (       1 calls)
     potinit      :      0.01s CPU      0.01s WALL (       1 calls)
     hinit0       :      0.13s CPU      0.13s WALL (       1 calls)

     Called by electrons:
     c_bands      :      4.21s CPU      4.47s WALL (       6 calls)
     sum_band     :      0.80s CPU      0.86s WALL (       6 calls)
     v_of_rho     :      0.01s CPU      0.01s WALL (       6 calls)
     newd         :      0.08s CPU      0.08s WALL (       6 calls)
     mix_rho      :      0.01s CPU      0.01s WALL (       6 calls)

     Called by c_bands:
     init_us_2    :      0.14s CPU      0.15s WALL (     705 calls)
     cegterg      :      4.03s CPU      4.28s WALL (     282 calls)

     Called by sum_band:
     sum_band:bec :      0.00s CPU      0.00s WALL (     282 calls)
     addusdens    :      0.08s CPU      0.08s WALL (       6 calls)

     Called by *egterg:
     h_psi        :      3.31s CPU      3.54s WALL (    1313 calls)
     s_psi        :      0.09s CPU      0.10s WALL (    1313 calls)
     g_psi        :      0.01s CPU      0.01s WALL (     984 calls)
     cdiaghg      :      0.28s CPU      0.29s WALL (    1219 calls)

     Called by h_psi:
     h_psi:pot    :      3.29s CPU      3.52s WALL (    1313 calls)
     h_psi:calbec :      0.16s CPU      0.17s WALL (    1313 calls)
     vloc_psi     :      3.01s CPU      3.23s WALL (    1313 calls)
     add_vuspsi   :      0.11s CPU      0.11s WALL (    1313 calls)

     General routines
     calbec       :      0.25s CPU      0.26s WALL (    1830 calls)
     fft          :      0.02s CPU      0.02s WALL (      34 calls)
     ffts         :      0.00s CPU      0.00s WALL (       6 calls)
     fftw         :      3.34s CPU      3.57s WALL (   17314 calls)

     Parallel routines
     fft_scatt_xy :      0.27s CPU      0.29s WALL (   17354 calls)
     fft_scatt_yz :      0.90s CPU      0.96s WALL (   17354 calls)

     PWSCF        :     6.54s CPU         6.96s WALL


   This run was terminated on:   0:22: 3   8Apr2024            

=------------------------------------------------------------------------------=
   JOB DONE.
=------------------------------------------------------------------------------=
