
     Program PWSCF v.6.3MaX starts on  8Apr2024 at  0:57:15 

     This program is part of the open-source Quantum ESPRESSO suite
     for quantum simulation of materials; please cite
         "P. Giannozzi et al., J. Phys.:Condens. Matter 21 395502 (2009);
         "P. Giannozzi et al., J. Phys.:Condens. Matter 29 465901 (2017);
          URL http://www.quantum-espresso.org", 
     in publications or presentations arising from this work. More details at
     http://www.quantum-espresso.org/quote

     Parallel version (MPI), running on     5 processors

     MPI processes distributed on     1 nodes
     R & G space division:  proc/nbgrp/npool/nimage =       5
     Waiting for input...
     Reading input from standard input

     Current dimensions of program PWSCF are:
     Max number of different atomic species (ntypx) = 10
     Max number of k-points (npk) =  40000
     Max angular momentum in pseudopotentials (lmaxx) =  3
               file K.pz-spn-rrkjus_psl.1.0.0.UPF: wavefunction(s)  3S renormalized

     Subspace diagonalization in iterative solution of the eigenvalue problem:
     a serial algorithm will be used


     Parallelization info
     --------------------
     sticks:   dense  smooth     PW     G-vecs:    dense   smooth      PW
     Min         307     307     87                 7577     7577    1155
     Max         307     307     88                 7578     7578    1155
     Sum        1535    1535    437                37887    37887    5775



     bravais-lattice index     =            3
     lattice parameter (alat)  =       9.8600  a.u.
     unit-cell volume          =     479.2926 (a.u.)^3
     number of atoms/cell      =            1
     number of atomic types    =            1
     number of electrons       =         9.00
     number of Kohn-Sham states=            9
     kinetic-energy cutoff     =      70.0000  Ry
     charge density cutoff     =     280.0000  Ry
     convergence threshold     =      1.0E-08
     mixing beta               =       0.7000
     number of iterations used =            8  plain     mixing
     Exchange-correlation      = LDA ( 1  1  0  0 0 0)

     celldm(1)=   9.860000  celldm(2)=   0.000000  celldm(3)=   0.000000
     celldm(4)=   0.000000  celldm(5)=   0.000000  celldm(6)=   0.000000

     crystal axes: (cart. coord. in units of alat)
               a(1) = (   0.500000   0.500000   0.500000 )  
               a(2) = (  -0.500000   0.500000   0.500000 )  
               a(3) = (  -0.500000  -0.500000   0.500000 )  

     reciprocal axes: (cart. coord. in units 2 pi/alat)
               b(1) = (  1.000000  0.000000  1.000000 )  
               b(2) = ( -1.000000  1.000000  0.000000 )  
               b(3) = (  0.000000 -1.000000  1.000000 )  


     PseudoPot. # 1 for K  read from file:
     /home/lorenzo/pseudos/K/K.pz-spn-rrkjus_psl.1.0.0.UPF
     MD5 check sum: af434a66a3b91719abff201b8f79bb09
     Pseudo is Ultrasoft + core correction, Zval =  9.0
     Generated using "atomic" code by A. Dal Corso v.6.2.2
     Using radial grid of 1165 points,  6 beta functions with: 
                l(1) =   0
                l(2) =   0
                l(3) =   1
                l(4) =   1
                l(5) =   2
                l(6) =   2
     Q(r) pseudized with 0 coefficients 


     atomic species   valence    mass     pseudopotential
        K              9.00    39.09830     K ( 1.00)

     48 Sym. Ops., with inversion, found



   Cartesian axes

     site n.     atom                  positions (alat units)
         1           K   tau(   1) = (   0.0000000   0.0000000   0.0000000  )

     number of k points=    10  gaussian smearing, width (Ry)=  0.0100
                       cart. coord. in units 2pi/alat
        k(    1) = (   0.0000000   0.0000000   0.0000000), wk =   0.0160000
        k(    2) = (   0.0000000  -0.2000000   0.2000000), wk =   0.1920000
        k(    3) = (   0.0000000  -0.4000000   0.4000000), wk =   0.1920000
        k(    4) = (  -0.2000000  -0.2000000   0.4000000), wk =   0.3840000
        k(    5) = (  -0.2000000   0.6000000  -0.4000000), wk =   0.3840000
        k(    6) = (   0.0000000   0.0000000   0.4000000), wk =   0.0960000
        k(    7) = (   0.0000000  -0.2000000   0.6000000), wk =   0.3840000
        k(    8) = (  -0.2000000   0.8000000  -0.2000000), wk =   0.1280000
        k(    9) = (   0.6000000  -0.6000000   0.4000000), wk =   0.1280000
        k(   10) = (   0.0000000   0.0000000   0.8000000), wk =   0.0960000

     Dense  grid:    37887 G-vectors     FFT dimensions: (  45,  45,  45)

     Estimated max dynamical RAM per process >      31.44 MB

     Estimated total dynamical RAM >     157.21 MB

     Check: negative/imaginary core charge=   -0.000003    0.000000

     Initial potential from superposition of free atoms

     starting charge    8.98437, renormalised to    9.00000
     Starting wfcs are    8 randomized atomic wfcs +    1 random wfcs

     total cpu time spent up to now is        1.1 secs

     Self-consistent Calculation

     iteration #  1     ecut=    70.00 Ry     beta= 0.70
     Davidson diagonalization with overlap
     ethr =  1.00E-02,  avg # of iterations =  7.4

     Threshold (ethr) on eigenvalues was too large:
     Diagonalizing with lowered threshold

     Davidson diagonalization with overlap
     ethr =  1.22E-05,  avg # of iterations =  5.7

     total cpu time spent up to now is        2.3 secs

     total energy              =     -58.74331303 Ry
     Harris-Foulkes estimate   =     -58.74387935 Ry
     estimated scf accuracy    <       0.00111622 Ry

     iteration #  2     ecut=    70.00 Ry     beta= 0.70
     Davidson diagonalization with overlap
     ethr =  1.24E-05,  avg # of iterations =  2.3

     total cpu time spent up to now is        2.7 secs

     total energy              =     -58.74351107 Ry
     Harris-Foulkes estimate   =     -58.74352850 Ry
     estimated scf accuracy    <       0.00008874 Ry

     iteration #  3     ecut=    70.00 Ry     beta= 0.70
     Davidson diagonalization with overlap
     ethr =  9.86E-07,  avg # of iterations =  2.1

     total cpu time spent up to now is        3.1 secs

     total energy              =     -58.74351997 Ry
     Harris-Foulkes estimate   =     -58.74351918 Ry
     estimated scf accuracy    <       0.00000565 Ry

     iteration #  4     ecut=    70.00 Ry     beta= 0.70
     Davidson diagonalization with overlap
     ethr =  6.28E-08,  avg # of iterations =  1.6

     total cpu time spent up to now is        3.5 secs

     total energy              =     -58.74352045 Ry
     Harris-Foulkes estimate   =     -58.74352044 Ry
     estimated scf accuracy    <       0.00000003 Ry

     iteration #  5     ecut=    70.00 Ry     beta= 0.70
     Davidson diagonalization with overlap
     ethr =  3.71E-10,  avg # of iterations =  2.0

     total cpu time spent up to now is        4.1 secs

     End of self-consistent calculation

          k = 0.0000 0.0000 0.0000 (  4753 PWs)   bands (ev):

   -30.0976 -13.7361 -13.7361 -13.7361  -0.4764   5.9293   5.9293   6.8745
     6.8749

          k = 0.0000-0.2000 0.2000 (  4743 PWs)   bands (ev):

   -30.0958 -13.7640 -13.7454 -13.7361   0.0288   5.0921   5.4543   6.3357
     6.6431

          k = 0.0000-0.4000 0.4000 (  4742 PWs)   bands (ev):

   -30.0929 -13.8084 -13.7604 -13.7360   1.3999   3.2801   4.9125   6.6284
     7.1261

          k =-0.2000-0.2000 0.4000 (  4754 PWs)   bands (ev):

   -30.0934 -13.7936 -13.7578 -13.7422   0.9741   4.1558   4.6163   6.5727
     6.6852

          k =-0.2000 0.6000-0.4000 (  4735 PWs)   bands (ev):

   -30.0920 -13.8060 -13.7732 -13.7439   2.5305   2.6595   4.1688   6.2386
     7.1372

          k = 0.0000 0.0000 0.4000 (  4733 PWs)   bands (ev):

   -30.0941 -13.7674 -13.7552 -13.7552   0.5137   5.1011   5.3499   5.3499
     6.4992

          k = 0.0000-0.2000 0.6000 (  4723 PWs)   bands (ev):

   -30.0914 -13.8017 -13.7709 -13.7566   1.8280   3.5342   5.0422   5.3165
     6.6797

          k =-0.2000 0.8000-0.2000 (  4727 PWs)   bands (ev):

   -30.0902 -13.7947 -13.7947 -13.7615   3.0930   3.0930   3.8048   6.1462
     6.1462

          k = 0.6000-0.6000 0.4000 (  4741 PWs)   bands (ev):

   -30.0923 -13.7955 -13.7620 -13.7620   2.2377   3.6312   3.6312   5.3855
     7.3529

          k = 0.0000 0.0000 0.8000 (  4737 PWs)   bands (ev):

   -30.0891 -13.7924 -13.7878 -13.7878   2.8398   3.5983   5.2173   5.2173
     5.2876

     the Fermi energy is     1.7810 ev

!    total energy              =     -58.74352045 Ry
     Harris-Foulkes estimate   =     -58.74352045 Ry
     estimated scf accuracy    <          4.0E-10 Ry

     The total energy is the sum of the following terms:

     one-electron contribution =     -36.65540751 Ry
     hartree contribution      =      18.82602335 Ry
     xc contribution           =     -11.01683508 Ry
     ewald contribution        =     -29.89633970 Ry
     smearing contrib. (-TS)   =      -0.00096152 Ry

     convergence has been achieved in   5 iterations

     Forces acting on atoms (cartesian axes, Ry/au):

     atom    1 type  1   force =     0.00000000    0.00000000    0.00000000

     Total force =     0.000000     Total SCF correction =     0.000000


     Computing stress (Cartesian axis) and pressure

          total   stress  (Ry/bohr**3)                   (kbar)     P=   -4.03
  -0.00002740  -0.00000000   0.00000000         -4.03     -0.00      0.00
  -0.00000000  -0.00002740  -0.00000000         -0.00     -4.03     -0.00
   0.00000000  -0.00000000  -0.00002740          0.00     -0.00     -4.03


     Writing output data file K.save/

     init_run     :      0.38s CPU      0.40s WALL (       1 calls)
     electrons    :      2.91s CPU      3.02s WALL (       1 calls)
     forces       :      0.11s CPU      0.11s WALL (       1 calls)
     stress       :      0.40s CPU      0.40s WALL (       1 calls)

     Called by init_run:
     wfcinit      :      0.10s CPU      0.10s WALL (       1 calls)
     potinit      :      0.01s CPU      0.01s WALL (       1 calls)
     hinit0       :      0.20s CPU      0.20s WALL (       1 calls)

     Called by electrons:
     c_bands      :      2.09s CPU      2.18s WALL (       6 calls)
     sum_band     :      0.57s CPU      0.58s WALL (       6 calls)
     v_of_rho     :      0.02s CPU      0.02s WALL (       6 calls)
     newd         :      0.24s CPU      0.25s WALL (       6 calls)
     mix_rho      :      0.01s CPU      0.01s WALL (       6 calls)

     Called by c_bands:
     init_us_2    :      0.09s CPU      0.09s WALL (     150 calls)
     cegterg      :      2.00s CPU      2.08s WALL (      60 calls)

     Called by sum_band:
     sum_band:bec :      0.00s CPU      0.00s WALL (      60 calls)
     addusdens    :      0.21s CPU      0.22s WALL (       6 calls)

     Called by *egterg:
     h_psi        :      1.62s CPU      1.70s WALL (     281 calls)
     s_psi        :      0.05s CPU      0.05s WALL (     281 calls)
     g_psi        :      0.01s CPU      0.01s WALL (     211 calls)
     cdiaghg      :      0.07s CPU      0.07s WALL (     261 calls)

     Called by h_psi:
     h_psi:pot    :      1.61s CPU      1.69s WALL (     281 calls)
     h_psi:calbec :      0.12s CPU      0.13s WALL (     281 calls)
     vloc_psi     :      1.43s CPU      1.50s WALL (     281 calls)
     add_vuspsi   :      0.06s CPU      0.06s WALL (     281 calls)

     General routines
     calbec       :      0.19s CPU      0.20s WALL (     391 calls)
     fft          :      0.03s CPU      0.03s WALL (      34 calls)
     ffts         :      0.00s CPU      0.00s WALL (       6 calls)
     fftw         :      1.56s CPU      1.64s WALL (    3692 calls)

     Parallel routines
     fft_scatt_xy :      0.12s CPU      0.12s WALL (    3732 calls)
     fft_scatt_yz :      0.41s CPU      0.44s WALL (    3732 calls)

     PWSCF        :     4.52s CPU         4.73s WALL


   This run was terminated on:   0:57:20   8Apr2024            

=------------------------------------------------------------------------------=
   JOB DONE.
=------------------------------------------------------------------------------=
