
     Program PWSCF v.6.3MaX starts on  8Apr2024 at  0:14:11 

     This program is part of the open-source Quantum ESPRESSO suite
     for quantum simulation of materials; please cite
         "P. Giannozzi et al., J. Phys.:Condens. Matter 21 395502 (2009);
         "P. Giannozzi et al., J. Phys.:Condens. Matter 29 465901 (2017);
          URL http://www.quantum-espresso.org", 
     in publications or presentations arising from this work. More details at
     http://www.quantum-espresso.org/quote

     Parallel version (MPI), running on     5 processors

     MPI processes distributed on     1 nodes
     R & G space division:  proc/nbgrp/npool/nimage =       5
     Waiting for input...
     Reading input from standard input

     Current dimensions of program PWSCF are:
     Max number of different atomic species (ntypx) = 10
     Max number of k-points (npk) =  40000
     Max angular momentum in pseudopotentials (lmaxx) =  3
               file K.pz-spn-kjpaw_psl.1.0.0.UPF: wavefunction(s)  3S renormalized

     Subspace diagonalization in iterative solution of the eigenvalue problem:
     a serial algorithm will be used


     Parallelization info
     --------------------
     sticks:   dense  smooth     PW     G-vecs:    dense   smooth      PW
     Min          66      66     20                  756      756     136
     Max          67      67     21                  757      757     137
     Sum         333     333    103                 3781     3781     683



     bravais-lattice index     =            3
     lattice parameter (alat)  =       9.8600  a.u.
     unit-cell volume          =     479.2926 (a.u.)^3
     number of atoms/cell      =            1
     number of atomic types    =            1
     number of electrons       =         9.00
     number of Kohn-Sham states=            9
     kinetic-energy cutoff     =      15.0000  Ry
     charge density cutoff     =      60.0000  Ry
     convergence threshold     =      1.0E-08
     mixing beta               =       0.7000
     number of iterations used =            8  plain     mixing
     Exchange-correlation      = SLA PZ NOGX NOGC ( 1  1  0  0 0 0)

     celldm(1)=   9.860000  celldm(2)=   0.000000  celldm(3)=   0.000000
     celldm(4)=   0.000000  celldm(5)=   0.000000  celldm(6)=   0.000000

     crystal axes: (cart. coord. in units of alat)
               a(1) = (   0.500000   0.500000   0.500000 )  
               a(2) = (  -0.500000   0.500000   0.500000 )  
               a(3) = (  -0.500000  -0.500000   0.500000 )  

     reciprocal axes: (cart. coord. in units 2 pi/alat)
               b(1) = (  1.000000  0.000000  1.000000 )  
               b(2) = ( -1.000000  1.000000  0.000000 )  
               b(3) = (  0.000000 -1.000000  1.000000 )  


     PseudoPot. # 1 for K  read from file:
     /home/lorenzo/pseudos/K/K.pz-spn-kjpaw_psl.1.0.0.UPF
     MD5 check sum: 59b94f4c1a6681f21e103574f2c5fc67
     Pseudo is Projector augmented-wave + core cor, Zval =  9.0
     Generated using "atomic" code by A. Dal Corso v.6.2.2
     Shape of augmentation charge: PSQ
     Using radial grid of 1165 points,  6 beta functions with: 
                l(1) =   0
                l(2) =   0
                l(3) =   1
                l(4) =   1
                l(5) =   2
                l(6) =   2
     Q(r) pseudized with 0 coefficients 


     atomic species   valence    mass     pseudopotential
        K              9.00    39.09830     K ( 1.00)

     48 Sym. Ops., with inversion, found



   Cartesian axes

     site n.     atom                  positions (alat units)
         1           K   tau(   1) = (   0.0000000   0.0000000   0.0000000  )

     number of k points=    35  gaussian smearing, width (Ry)=  0.0100
                       cart. coord. in units 2pi/alat
        k(    1) = (   0.0000000   0.0000000   0.0000000), wk =   0.0027435
        k(    2) = (   0.0000000  -0.1111111   0.1111111), wk =   0.0329218
        k(    3) = (   0.0000000  -0.2222222   0.2222222), wk =   0.0329218
        k(    4) = (   0.0000000  -0.3333333   0.3333333), wk =   0.0329218
        k(    5) = (   0.0000000  -0.4444444   0.4444444), wk =   0.0329218
        k(    6) = (  -0.1111111  -0.1111111   0.2222222), wk =   0.0658436
        k(    7) = (  -0.1111111  -0.2222222   0.3333333), wk =   0.1316872
        k(    8) = (  -0.1111111  -0.3333333   0.4444444), wk =   0.1316872
        k(    9) = (  -0.1111111   0.5555556  -0.4444444), wk =   0.0658436
        k(   10) = (  -0.2222222  -0.2222222   0.4444444), wk =   0.0658436
        k(   11) = (  -0.2222222   0.6666667  -0.4444444), wk =   0.1316872
        k(   12) = (  -0.3333333   0.6666667  -0.3333333), wk =   0.0219479
        k(   13) = (   0.0000000   0.0000000   0.2222222), wk =   0.0164609
        k(   14) = (   0.0000000  -0.1111111   0.3333333), wk =   0.0658436
        k(   15) = (   0.0000000  -0.2222222   0.4444444), wk =   0.0658436
        k(   16) = (   0.0000000  -0.3333333   0.5555556), wk =   0.0658436
        k(   17) = (  -0.1111111  -0.1111111   0.4444444), wk =   0.0658436
        k(   18) = (  -0.1111111  -0.2222222   0.5555556), wk =   0.1316872
        k(   19) = (  -0.1111111   0.6666667  -0.3333333), wk =   0.0658436
        k(   20) = (  -0.2222222   0.2222222   0.2222222), wk =   0.0219479
        k(   21) = (  -0.2222222   0.7777778  -0.3333333), wk =   0.0658436
        k(   22) = (  -0.3333333   0.3333333   0.2222222), wk =   0.0658436
        k(   23) = (   0.5555556  -0.5555556   0.2222222), wk =   0.0658436
        k(   24) = (   0.5555556  -0.6666667   0.3333333), wk =   0.0658436
        k(   25) = (   0.4444444  -0.5555556   0.3333333), wk =   0.0658436
        k(   26) = (   0.0000000   0.0000000   0.4444444), wk =   0.0164609
        k(   27) = (   0.0000000  -0.1111111   0.5555556), wk =   0.0658436
        k(   28) = (   0.0000000  -0.2222222   0.6666667), wk =   0.0658436
        k(   29) = (  -0.1111111  -0.1111111   0.6666667), wk =   0.0658436
        k(   30) = (  -0.1111111   0.7777778  -0.2222222), wk =   0.0658436
        k(   31) = (   0.5555556  -0.5555556   0.4444444), wk =   0.0219479
        k(   32) = (   0.0000000   0.0000000   0.6666667), wk =   0.0164609
        k(   33) = (   0.0000000  -0.1111111   0.7777778), wk =   0.0658436
        k(   34) = (  -0.1111111   0.8888889  -0.1111111), wk =   0.0219479
        k(   35) = (   0.0000000   0.0000000   0.8888889), wk =   0.0164609

     Dense  grid:     3781 G-vectors     FFT dimensions: (  24,  24,  24)

     Estimated max dynamical RAM per process >       4.30 MB

     Estimated total dynamical RAM >      21.51 MB

     Check: negative/imaginary core charge=   -0.000370    0.000000

     Initial potential from superposition of free atoms

     starting charge    8.98437, renormalised to    9.00000
     Starting wfcs are    8 randomized atomic wfcs +    1 random wfcs
     Checking if some PAW data can be deallocated... 

     total cpu time spent up to now is        1.0 secs

     Self-consistent Calculation

     iteration #  1     ecut=    15.00 Ry     beta= 0.70
     Davidson diagonalization with overlap
     ethr =  1.00E-02,  avg # of iterations =  6.5

     Threshold (ethr) on eigenvalues was too large:
     Diagonalizing with lowered threshold

     Davidson diagonalization with overlap
     ethr =  4.85E-04,  avg # of iterations =  2.1

     total cpu time spent up to now is        1.5 secs

     total energy              =    -109.46328101 Ry
     Harris-Foulkes estimate   =    -109.50173293 Ry
     estimated scf accuracy    <       0.04463643 Ry

     iteration #  2     ecut=    15.00 Ry     beta= 0.70
     Davidson diagonalization with overlap
     ethr =  4.96E-04,  avg # of iterations =  2.1

     total cpu time spent up to now is        1.7 secs

     total energy              =    -109.47451842 Ry
     Harris-Foulkes estimate   =    -109.47576473 Ry
     estimated scf accuracy    <       0.00300928 Ry

     iteration #  3     ecut=    15.00 Ry     beta= 0.70
     Davidson diagonalization with overlap
     ethr =  3.34E-05,  avg # of iterations =  4.3

     total cpu time spent up to now is        2.0 secs

     total energy              =    -109.47477328 Ry
     Harris-Foulkes estimate   =    -109.47481419 Ry
     estimated scf accuracy    <       0.00015610 Ry

     iteration #  4     ecut=    15.00 Ry     beta= 0.70
     Davidson diagonalization with overlap
     ethr =  1.73E-06,  avg # of iterations =  4.2

     total cpu time spent up to now is        2.2 secs

     total energy              =    -109.47477747 Ry
     Harris-Foulkes estimate   =    -109.47477759 Ry
     estimated scf accuracy    <       0.00000030 Ry

     iteration #  5     ecut=    15.00 Ry     beta= 0.70
     Davidson diagonalization with overlap
     ethr =  3.28E-09,  avg # of iterations =  2.5

     total cpu time spent up to now is        2.5 secs

     total energy              =    -109.47477767 Ry
     Harris-Foulkes estimate   =    -109.47477768 Ry
     estimated scf accuracy    <       0.00000002 Ry

     iteration #  6     ecut=    15.00 Ry     beta= 0.70
     Davidson diagonalization with overlap
     ethr =  2.00E-10,  avg # of iterations =  2.0

     total cpu time spent up to now is        2.7 secs

     End of self-consistent calculation

          k = 0.0000 0.0000 0.0000 (   459 PWs)   bands (ev):

   -31.1645 -13.5622 -13.5622 -13.5622  -0.4371   6.5045   6.5045   6.5045
     7.6289

          k = 0.0000-0.1111 0.1111 (   471 PWs)   bands (ev):

   -31.1644 -13.6746 -13.6174 -13.6043  -0.2759   6.1846   6.2728   6.6076
     7.3177

          k = 0.0000-0.2222 0.2222 (   467 PWs)   bands (ev):

   -31.1630 -13.6565 -13.6350 -13.5895   0.1951   5.2481   5.8422   7.0109
     7.3139

          k = 0.0000-0.3333 0.3333 (   474 PWs)   bands (ev):

   -31.1619 -13.7279 -13.7088 -13.6228   0.9323   4.1212   5.4588   7.2693
     7.5049

          k = 0.0000-0.4444 0.4444 (   472 PWs)   bands (ev):

   -31.1609 -13.7388 -13.7303 -13.5842   1.8674   3.0088   5.2628   7.0628
     7.7981

          k =-0.1111-0.1111 0.2222 (   463 PWs)   bands (ev):

   -31.1632 -13.6254 -13.6016 -13.5723   0.0411   5.6443   5.8508   6.8717
     7.1286

          k =-0.1111-0.2222 0.3333 (   469 PWs)   bands (ev):

   -31.1622 -13.6948 -13.6515 -13.6064   0.6478   4.6991   5.3721   7.0670
     7.2373

          k =-0.1111-0.3333 0.4444 (   471 PWs)   bands (ev):

   -31.1611 -13.7427 -13.6872 -13.6046   1.4917   3.6247   5.0772   6.8766
     7.6269

          k =-0.1111 0.5556-0.4444 (   465 PWs)   bands (ev):

   -31.1604 -13.7110 -13.6388 -13.5949   2.3649   2.6851   4.9874   6.7197
     7.9821

          k =-0.2222-0.2222 0.4444 (   469 PWs)   bands (ev):

   -31.1611 -13.7173 -13.6436 -13.6371   1.3641   4.1620   4.6577   6.8953
     7.2567

          k =-0.2222 0.6667-0.4444 (   474 PWs)   bands (ev):

   -31.1607 -13.7398 -13.7039 -13.6708   2.2833   3.3008   4.2759   6.5615
     7.5259

          k =-0.3333 0.6667-0.3333 (   475 PWs)   bands (ev):

   -31.1605 -13.7263 -13.7263 -13.6886   3.1495   3.1495   3.4068   6.4712
     7.6883

          k = 0.0000 0.0000 0.2222 (   470 PWs)   bands (ev):

   -31.1639 -13.6785 -13.6093 -13.6093  -0.1165   6.1274   6.1274   6.5820
     6.6941

          k = 0.0000-0.1111 0.3333 (   467 PWs)   bands (ev):

   -31.1626 -13.6845 -13.6186 -13.6003   0.3488   5.3043   5.7935   6.4159
     7.0522

          k = 0.0000-0.2222 0.4444 (   472 PWs)   bands (ev):

   -31.1615 -13.7279 -13.6589 -13.6527   1.0791   4.2010   5.4619   6.3853
     7.6222

          k = 0.0000-0.3333 0.5556 (   472 PWs)   bands (ev):

   -31.1606 -13.7469 -13.6684 -13.6494   2.0069   3.1110   5.2811   6.2314
     7.8451

          k =-0.1111-0.1111 0.4444 (   466 PWs)   bands (ev):

   -31.1614 -13.6856 -13.6352 -13.6126   0.9421   4.6894   5.2906   6.3534
     7.3191

          k =-0.1111-0.2222 0.5556 (   469 PWs)   bands (ev):

   -31.1604 -13.7308 -13.6684 -13.6247   1.7672   3.7903   4.8594   6.3788
     7.3069

          k =-0.1111 0.6667-0.3333 (   465 PWs)   bands (ev):

   -31.1598 -13.7300 -13.6615 -13.5821   2.6890   2.8242   4.7191   6.3019
     7.5996

          k =-0.2222 0.2222 0.2222 (   471 PWs)   bands (ev):

   -31.1626 -13.6652 -13.6563 -13.6563   0.5002   5.1221   5.1221   6.9493
     7.6138

          k =-0.2222 0.7778-0.3333 (   469 PWs)   bands (ev):

   -31.1598 -13.7355 -13.7178 -13.5976   2.6444   3.4612   3.9232   6.8419
     7.0669

          k =-0.3333 0.3333 0.2222 (   478 PWs)   bands (ev):

   -31.1617 -13.7570 -13.6918 -13.6862   1.2224   4.2151   4.7466   6.6289
     7.7690

          k = 0.5556-0.5556 0.2222 (   476 PWs)   bands (ev):

   -31.1609 -13.7407 -13.7029 -13.6847   2.1494   3.2091   4.5717   6.2422
     7.9619

          k = 0.5556-0.6667 0.3333 (   479 PWs)   bands (ev):

   -31.1611 -13.7692 -13.7211 -13.6945   2.0366   3.8090   4.1150   5.8968
     7.9396

          k = 0.4444-0.5556 0.3333 (   476 PWs)   bands (ev):

   -31.1607 -13.7426 -13.7049 -13.6968   2.9872   2.9983   3.9112   5.6034
     8.0504

          k = 0.0000 0.0000 0.4444 (   470 PWs)   bands (ev):

   -31.1616 -13.6896 -13.6488 -13.6488   0.7982   5.2153   5.6520   5.6520
     7.2549

          k = 0.0000-0.1111 0.5556 (   466 PWs)   bands (ev):

   -31.1602 -13.7169 -13.6360 -13.6148   1.5046   4.3716   5.4851   5.6161
     6.9756

          k = 0.0000-0.2222 0.6667 (   466 PWs)   bands (ev):

   -31.1594 -13.7193 -13.6558 -13.6221   2.4017   3.3903   5.3660   5.3750
     7.0920

          k =-0.1111-0.1111 0.6667 (   471 PWs)   bands (ev):

   -31.1594 -13.7193 -13.7075 -13.6636   2.2785   3.9078   4.7332   5.9330
     6.5877

          k =-0.1111 0.7778-0.2222 (   465 PWs)   bands (ev):

   -31.1588 -13.7287 -13.6932 -13.5921   3.1056   3.2344   4.3774   6.0430
     6.7072

          k = 0.5556-0.5556 0.4444 (   471 PWs)   bands (ev):

   -31.1606 -13.6938 -13.6882 -13.6882   2.8866   3.6442   3.6442   4.9778
     8.2768

          k = 0.0000 0.0000 0.6667 (   458 PWs)   bands (ev):

   -31.1587 -13.6329 -13.6329 -13.6118   2.1527   4.2386   5.4546   5.4546
     6.0201

          k = 0.0000-0.1111 0.7778 (   470 PWs)   bands (ev):

   -31.1585 -13.7457 -13.7245 -13.6469   2.9324   3.7131   5.0223   5.4027
     6.1253

          k =-0.1111 0.8889-0.1111 (   472 PWs)   bands (ev):

   -31.1583 -13.7554 -13.7554 -13.6599   3.4847   3.4847   4.6443   5.8216
     5.8216

          k = 0.0000 0.0000 0.8889 (   474 PWs)   bands (ev):

   -31.1580 -13.7647 -13.7244 -13.7244   3.4416   3.7239   5.3672   5.4175
     5.4175

     the Fermi energy is     1.8406 ev

!    total energy              =    -109.47477767 Ry
     Harris-Foulkes estimate   =    -109.47477767 Ry
     estimated scf accuracy    <          2.1E-11 Ry

     total all-electron energy =     -1200.799777 Ry

     The total energy is the sum of the following terms:

     one-electron contribution =     -34.79860322 Ry
     hartree contribution      =      18.39572040 Ry
     xc contribution           =     -10.92111133 Ry
     ewald contribution        =     -29.89633977 Ry
     one-center paw contrib.   =     -52.25400951 Ry
     smearing contrib. (-TS)   =      -0.00043424 Ry

     convergence has been achieved in   6 iterations

     Forces acting on atoms (cartesian axes, Ry/au):

     atom    1 type  1   force =     0.00000000    0.00000000    0.00000000

     Total force =     0.000000     Total SCF correction =     0.000000


     Computing stress (Cartesian axis) and pressure

          total   stress  (Ry/bohr**3)                   (kbar)     P= -338.26
  -0.00229943   0.00000000  -0.00000000       -338.26      0.00     -0.00
   0.00000000  -0.00229943   0.00000000          0.00   -338.26      0.00
  -0.00000000   0.00000000  -0.00229943         -0.00      0.00   -338.26


     Writing output data file K.save/

     init_run     :      0.21s CPU      0.21s WALL (       1 calls)
     electrons    :      1.66s CPU      1.78s WALL (       1 calls)
     forces       :      0.02s CPU      0.03s WALL (       1 calls)
     stress       :      0.07s CPU      0.07s WALL (       1 calls)

     Called by init_run:
     wfcinit      :      0.06s CPU      0.06s WALL (       1 calls)
     potinit      :      0.06s CPU      0.06s WALL (       1 calls)
     hinit0       :      0.09s CPU      0.09s WALL (       1 calls)

     Called by electrons:
     c_bands      :      1.18s CPU      1.28s WALL (       7 calls)
     sum_band     :      0.21s CPU      0.23s WALL (       7 calls)
     v_of_rho     :      0.00s CPU      0.00s WALL (       7 calls)
     newd         :      0.03s CPU      0.03s WALL (       7 calls)
     PAW_pot      :      0.29s CPU      0.29s WALL (       7 calls)
     mix_rho      :      0.00s CPU      0.00s WALL (       7 calls)

     Called by c_bands:
     init_us_2    :      0.03s CPU      0.04s WALL (     595 calls)
     cegterg      :      1.13s CPU      1.22s WALL (     245 calls)

     Called by sum_band:
     sum_band:bec :      0.00s CPU      0.00s WALL (     245 calls)
     addusdens    :      0.02s CPU      0.02s WALL (       7 calls)

     Called by *egterg:
     h_psi        :      0.83s CPU      0.90s WALL (    1112 calls)
     s_psi        :      0.03s CPU      0.03s WALL (    1112 calls)
     g_psi        :      0.00s CPU      0.00s WALL (     832 calls)
     cdiaghg      :      0.19s CPU      0.20s WALL (    1042 calls)

     Called by h_psi:
     h_psi:pot    :      0.82s CPU      0.89s WALL (    1112 calls)
     h_psi:calbec :      0.04s CPU      0.04s WALL (    1112 calls)
     vloc_psi     :      0.75s CPU      0.81s WALL (    1112 calls)
     add_vuspsi   :      0.03s CPU      0.03s WALL (    1112 calls)

     General routines
     calbec       :      0.07s CPU      0.07s WALL (    1532 calls)
     fft          :      0.01s CPU      0.01s WALL (      38 calls)
     ffts         :      0.00s CPU      0.00s WALL (       7 calls)
     fftw         :      0.83s CPU      0.90s WALL (   14631 calls)

     Parallel routines
     fft_scatt_xy :      0.08s CPU      0.09s WALL (   14676 calls)
     fft_scatt_yz :      0.22s CPU      0.24s WALL (   14676 calls)

     PWSCF        :     2.73s CPU         2.90s WALL


   This run was terminated on:   0:14:13   8Apr2024            

=------------------------------------------------------------------------------=
   JOB DONE.
=------------------------------------------------------------------------------=
