
     Program PWSCF v.6.3MaX starts on  8Apr2024 at  0: 4:37 

     This program is part of the open-source Quantum ESPRESSO suite
     for quantum simulation of materials; please cite
         "P. Giannozzi et al., J. Phys.:Condens. Matter 21 395502 (2009);
         "P. Giannozzi et al., J. Phys.:Condens. Matter 29 465901 (2017);
          URL http://www.quantum-espresso.org", 
     in publications or presentations arising from this work. More details at
     http://www.quantum-espresso.org/quote

     Parallel version (MPI), running on     5 processors

     MPI processes distributed on     1 nodes
     R & G space division:  proc/nbgrp/npool/nimage =       5
     Waiting for input...
     Reading input from standard input

     Current dimensions of program PWSCF are:
     Max number of different atomic species (ntypx) = 10
     Max number of k-points (npk) =  40000
     Max angular momentum in pseudopotentials (lmaxx) =  3
               file K.pbe-spn-kjpaw_psl.1.0.0.UPF: wavefunction(s)  3S renormalized

     Subspace diagonalization in iterative solution of the eigenvalue problem:
     a serial algorithm will be used


     Parallelization info
     --------------------
     sticks:   dense  smooth     PW     G-vecs:    dense   smooth      PW
     Min         438     438    124                12915    12915    1972
     Max         439     439    126                12916    12916    1973
     Sum        2191    2191    623                64579    64579    9861



     bravais-lattice index     =            3
     lattice parameter (alat)  =       9.8600  a.u.
     unit-cell volume          =     479.2926 (a.u.)^3
     number of atoms/cell      =            1
     number of atomic types    =            1
     number of electrons       =         9.00
     number of Kohn-Sham states=            9
     kinetic-energy cutoff     =     100.0000  Ry
     charge density cutoff     =     400.0000  Ry
     convergence threshold     =      1.0E-08
     mixing beta               =       0.7000
     number of iterations used =            8  plain     mixing
     Exchange-correlation      = SLA PW PBX PBC ( 1  4  3  4 0 0)

     celldm(1)=   9.860000  celldm(2)=   0.000000  celldm(3)=   0.000000
     celldm(4)=   0.000000  celldm(5)=   0.000000  celldm(6)=   0.000000

     crystal axes: (cart. coord. in units of alat)
               a(1) = (   0.500000   0.500000   0.500000 )  
               a(2) = (  -0.500000   0.500000   0.500000 )  
               a(3) = (  -0.500000  -0.500000   0.500000 )  

     reciprocal axes: (cart. coord. in units 2 pi/alat)
               b(1) = (  1.000000  0.000000  1.000000 )  
               b(2) = ( -1.000000  1.000000  0.000000 )  
               b(3) = (  0.000000 -1.000000  1.000000 )  


     PseudoPot. # 1 for K  read from file:
     /home/lorenzo/pseudos/K/K.pbe-spn-kjpaw_psl.1.0.0.UPF
     MD5 check sum: 34cc42130a09071ebe376fd42eb21491
     Pseudo is Projector augmented-wave + core cor, Zval =  9.0
     Generated using "atomic" code by A. Dal Corso v.6.2.2
     Shape of augmentation charge: PSQ
     Using radial grid of 1165 points,  6 beta functions with: 
                l(1) =   0
                l(2) =   0
                l(3) =   1
                l(4) =   1
                l(5) =   2
                l(6) =   2
     Q(r) pseudized with 0 coefficients 


     atomic species   valence    mass     pseudopotential
        K              9.00    39.09830     K ( 1.00)

     48 Sym. Ops., with inversion, found



   Cartesian axes

     site n.     atom                  positions (alat units)
         1           K   tau(   1) = (   0.0000000   0.0000000   0.0000000  )

     number of k points=     8  gaussian smearing, width (Ry)=  0.0100
                       cart. coord. in units 2pi/alat
        k(    1) = (   0.0000000   0.0000000   0.0000000), wk =   0.0312500
        k(    2) = (   0.0000000  -0.2500000   0.2500000), wk =   0.3750000
        k(    3) = (   0.0000000   0.5000000  -0.5000000), wk =   0.1875000
        k(    4) = (  -0.2500000   0.7500000  -0.5000000), wk =   0.7500000
        k(    5) = (   0.0000000   0.0000000   0.5000000), wk =   0.1875000
        k(    6) = (   0.0000000   0.7500000  -0.2500000), wk =   0.3750000
        k(    7) = (   0.5000000  -0.5000000   0.5000000), wk =   0.0625000
        k(    8) = (   0.0000000   0.0000000  -1.0000000), wk =   0.0312500

     Dense  grid:    64579 G-vectors     FFT dimensions: (  60,  60,  60)

     Estimated max dynamical RAM per process >      52.91 MB

     Estimated total dynamical RAM >     264.56 MB

     Check: negative/imaginary core charge=   -0.000001    0.000000

     Initial potential from superposition of free atoms

     starting charge    8.98117, renormalised to    9.00000
     Starting wfcs are    8 randomized atomic wfcs +    1 random wfcs
     Checking if some PAW data can be deallocated... 

     total cpu time spent up to now is        1.6 secs

     Self-consistent Calculation

     iteration #  1     ecut=   100.00 Ry     beta= 0.70
     Davidson diagonalization with overlap
     ethr =  1.00E-02,  avg # of iterations =  6.4

     Threshold (ethr) on eigenvalues was too large:
     Diagonalizing with lowered threshold

     Davidson diagonalization with overlap
     ethr =  1.47E-05,  avg # of iterations =  7.1

     total cpu time spent up to now is        3.8 secs

     total energy              =    -113.00709341 Ry
     Harris-Foulkes estimate   =    -113.00758825 Ry
     estimated scf accuracy    <       0.00125301 Ry

     iteration #  2     ecut=   100.00 Ry     beta= 0.70
     Davidson diagonalization with overlap
     ethr =  1.39E-05,  avg # of iterations =  2.1

     total cpu time spent up to now is        4.8 secs

     total energy              =    -113.00731261 Ry
     Harris-Foulkes estimate   =    -113.00732004 Ry
     estimated scf accuracy    <       0.00010161 Ry

     iteration #  3     ecut=   100.00 Ry     beta= 0.70
     Davidson diagonalization with overlap
     ethr =  1.13E-06,  avg # of iterations =  1.4

     total cpu time spent up to now is        5.6 secs

     total energy              =    -113.00732472 Ry
     Harris-Foulkes estimate   =    -113.00732227 Ry
     estimated scf accuracy    <       0.00000689 Ry

     iteration #  4     ecut=   100.00 Ry     beta= 0.70
     Davidson diagonalization with overlap
     ethr =  7.66E-08,  avg # of iterations =  1.5

     total cpu time spent up to now is        6.4 secs

     total energy              =    -113.00732538 Ry
     Harris-Foulkes estimate   =    -113.00732539 Ry
     estimated scf accuracy    <       0.00000006 Ry

     iteration #  5     ecut=   100.00 Ry     beta= 0.70
     Davidson diagonalization with overlap
     ethr =  6.18E-10,  avg # of iterations =  3.2

     total cpu time spent up to now is        7.3 secs

     End of self-consistent calculation

          k = 0.0000 0.0000 0.0000 (  8151 PWs)   bands (ev):

   -30.1642 -13.6125 -13.6125 -13.6125  -0.2619   6.2639   6.2639   6.2639
     7.1820

          k = 0.0000-0.2500 0.2500 (  8112 PWs)   bands (ev):

   -30.1617 -13.6511 -13.6254 -13.6125   0.5129   4.9034   5.5841   6.8903
     7.0049

          k = 0.0000 0.5000-0.5000 (  8050 PWs)   bands (ev):

   -30.1593 -13.6889 -13.6382 -13.6125   2.3889   2.6480   5.1204   6.8719
     7.9892

          k =-0.2500 0.7500-0.5000 (  8090 PWs)   bands (ev):

   -30.1593 -13.6749 -13.6445 -13.6204   1.9104   3.8314   4.3655   6.7978
     7.0267

          k = 0.0000 0.0000 0.5000 (  8120 PWs)   bands (ev):

   -30.1596 -13.6522 -13.6392 -13.6392   1.2365   4.8174   5.5067   5.5067
     7.0908

          k = 0.0000 0.7500-0.2500 (  8084 PWs)   bands (ev):

   -30.1574 -13.6782 -13.6529 -13.6402   2.9888   3.1109   5.2003   5.3177
     6.7718

          k = 0.5000-0.5000 0.5000 (  8088 PWs)   bands (ev):

   -30.1590 -13.6498 -13.6498 -13.6498   3.4265   3.4265   3.4265   5.1278
     7.7847

          k = 0.0000 0.0000-1.0000 (  8128 PWs)   bands (ev):

   -30.1555 -13.6675 -13.6675 -13.6675   3.5988   3.5988   5.5110   5.5110
     5.5110

     the Fermi energy is     1.9205 ev

!    total energy              =    -113.00732540 Ry
     Harris-Foulkes estimate   =    -113.00732540 Ry
     estimated scf accuracy    <          2.2E-09 Ry

     total all-electron energy =     -1204.246036 Ry

     The total energy is the sum of the following terms:

     one-electron contribution =     -35.40030612 Ry
     hartree contribution      =      18.88125258 Ry
     xc contribution           =     -11.17027618 Ry
     ewald contribution        =     -29.89633970 Ry
     one-center paw contrib.   =     -55.41955182 Ry
     smearing contrib. (-TS)   =      -0.00210416 Ry

     convergence has been achieved in   5 iterations

     Forces acting on atoms (cartesian axes, Ry/au):

     atom    1 type  1   force =     0.00000000    0.00000000    0.00000000

     Total force =     0.000000     Total SCF correction =     0.000000


     Computing stress (Cartesian axis) and pressure

          total   stress  (Ry/bohr**3)                   (kbar)     P=    2.46
   0.00001672  -0.00000000  -0.00000000          2.46     -0.00     -0.00
  -0.00000000   0.00001672  -0.00000000         -0.00      2.46     -0.00
  -0.00000000  -0.00000000   0.00001672         -0.00     -0.00      2.46


     Writing output data file K.save/

     init_run     :      0.86s CPU      0.91s WALL (       1 calls)
     electrons    :      5.37s CPU      5.67s WALL (       1 calls)
     forces       :      0.19s CPU      0.20s WALL (       1 calls)
     stress       :      0.64s CPU      0.68s WALL (       1 calls)

     Called by init_run:
     wfcinit      :      0.21s CPU      0.21s WALL (       1 calls)
     potinit      :      0.21s CPU      0.23s WALL (       1 calls)
     hinit0       :      0.25s CPU      0.25s WALL (       1 calls)

     Called by electrons:
     c_bands      :      3.44s CPU      3.53s WALL (       6 calls)
     sum_band     :      0.93s CPU      1.01s WALL (       6 calls)
     v_of_rho     :      0.28s CPU      0.29s WALL (       6 calls)
     newd         :      0.37s CPU      0.44s WALL (       6 calls)
     PAW_pot      :      0.58s CPU      0.65s WALL (       6 calls)
     mix_rho      :      0.02s CPU      0.02s WALL (       6 calls)

     Called by c_bands:
     init_us_2    :      0.13s CPU      0.13s WALL (     120 calls)
     cegterg      :      3.28s CPU      3.38s WALL (      48 calls)

     Called by sum_band:
     sum_band:bec :      0.00s CPU      0.00s WALL (      48 calls)
     addusdens    :      0.34s CPU      0.40s WALL (       6 calls)

     Called by *egterg:
     h_psi        :      2.86s CPU      2.96s WALL (     230 calls)
     s_psi        :      0.07s CPU      0.08s WALL (     230 calls)
     g_psi        :      0.01s CPU      0.01s WALL (     174 calls)
     cdiaghg      :      0.06s CPU      0.06s WALL (     214 calls)

     Called by h_psi:
     h_psi:pot    :      2.85s CPU      2.94s WALL (     230 calls)
     h_psi:calbec :      0.15s CPU      0.15s WALL (     230 calls)
     vloc_psi     :      2.61s CPU      2.70s WALL (     230 calls)
     add_vuspsi   :      0.09s CPU      0.09s WALL (     230 calls)

     General routines
     calbec       :      0.22s CPU      0.23s WALL (     318 calls)
     fft          :      0.16s CPU      0.17s WALL (      93 calls)
     ffts         :      0.01s CPU      0.01s WALL (       6 calls)
     fftw         :      2.74s CPU      2.83s WALL (    2944 calls)

     Parallel routines
     fft_scatt_xy :      0.24s CPU      0.25s WALL (    3043 calls)
     fft_scatt_yz :      0.63s CPU      0.65s WALL (    3043 calls)

     PWSCF        :     7.79s CPU         8.23s WALL


   This run was terminated on:   0: 4:45   8Apr2024            

=------------------------------------------------------------------------------=
   JOB DONE.
=------------------------------------------------------------------------------=
