
     Program PWSCF v.6.3MaX starts on  8Apr2024 at  0:26:26 

     This program is part of the open-source Quantum ESPRESSO suite
     for quantum simulation of materials; please cite
         "P. Giannozzi et al., J. Phys.:Condens. Matter 21 395502 (2009);
         "P. Giannozzi et al., J. Phys.:Condens. Matter 29 465901 (2017);
          URL http://www.quantum-espresso.org", 
     in publications or presentations arising from this work. More details at
     http://www.quantum-espresso.org/quote

     Parallel version (MPI), running on     5 processors

     MPI processes distributed on     1 nodes
     R & G space division:  proc/nbgrp/npool/nimage =       5
     Waiting for input...
     Reading input from standard input

     Current dimensions of program PWSCF are:
     Max number of different atomic species (ntypx) = 10
     Max number of k-points (npk) =  40000
     Max angular momentum in pseudopotentials (lmaxx) =  3
               file K.pz-spn-kjpaw_psl.1.0.0.UPF: wavefunction(s)  3S renormalized

     Subspace diagonalization in iterative solution of the eigenvalue problem:
     a serial algorithm will be used


     Parallelization info
     --------------------
     sticks:   dense  smooth     PW     G-vecs:    dense   smooth      PW
     Min         175     175     52                 3283     3283     517
     Max         175     175     53                 3283     3283     518
     Sum         875     875    261                16415    16415    2587



     bravais-lattice index     =            3
     lattice parameter (alat)  =       9.8600  a.u.
     unit-cell volume          =     479.2926 (a.u.)^3
     number of atoms/cell      =            1
     number of atomic types    =            1
     number of electrons       =         9.00
     number of Kohn-Sham states=            9
     kinetic-energy cutoff     =      40.0000  Ry
     charge density cutoff     =     160.0000  Ry
     convergence threshold     =      1.0E-08
     mixing beta               =       0.7000
     number of iterations used =            8  plain     mixing
     Exchange-correlation      = SLA PZ NOGX NOGC ( 1  1  0  0 0 0)

     celldm(1)=   9.860000  celldm(2)=   0.000000  celldm(3)=   0.000000
     celldm(4)=   0.000000  celldm(5)=   0.000000  celldm(6)=   0.000000

     crystal axes: (cart. coord. in units of alat)
               a(1) = (   0.500000   0.500000   0.500000 )  
               a(2) = (  -0.500000   0.500000   0.500000 )  
               a(3) = (  -0.500000  -0.500000   0.500000 )  

     reciprocal axes: (cart. coord. in units 2 pi/alat)
               b(1) = (  1.000000  0.000000  1.000000 )  
               b(2) = ( -1.000000  1.000000  0.000000 )  
               b(3) = (  0.000000 -1.000000  1.000000 )  


     PseudoPot. # 1 for K  read from file:
     /home/lorenzo/pseudos/K/K.pz-spn-kjpaw_psl.1.0.0.UPF
     MD5 check sum: 59b94f4c1a6681f21e103574f2c5fc67
     Pseudo is Projector augmented-wave + core cor, Zval =  9.0
     Generated using "atomic" code by A. Dal Corso v.6.2.2
     Shape of augmentation charge: PSQ
     Using radial grid of 1165 points,  6 beta functions with: 
                l(1) =   0
                l(2) =   0
                l(3) =   1
                l(4) =   1
                l(5) =   2
                l(6) =   2
     Q(r) pseudized with 0 coefficients 


     atomic species   valence    mass     pseudopotential
        K              9.00    39.09830     K ( 1.00)

     48 Sym. Ops., with inversion, found



   Cartesian axes

     site n.     atom                  positions (alat units)
         1           K   tau(   1) = (   0.0000000   0.0000000   0.0000000  )

     number of k points=     4  gaussian smearing, width (Ry)=  0.0100
                       cart. coord. in units 2pi/alat
        k(    1) = (   0.0000000   0.0000000   0.0000000), wk =   0.0740741
        k(    2) = (   0.0000000  -0.3333333   0.3333333), wk =   0.8888889
        k(    3) = (  -0.3333333   0.6666667  -0.3333333), wk =   0.5925926
        k(    4) = (   0.0000000   0.0000000   0.6666667), wk =   0.4444444

     Dense  grid:    16415 G-vectors     FFT dimensions: (  36,  36,  36)

     Estimated max dynamical RAM per process >      14.13 MB

     Estimated total dynamical RAM >      70.66 MB

     Check: negative/imaginary core charge=   -0.000011    0.000000

     Initial potential from superposition of free atoms

     starting charge    8.98437, renormalised to    9.00000
     Starting wfcs are    8 randomized atomic wfcs +    1 random wfcs
     Checking if some PAW data can be deallocated... 

     total cpu time spent up to now is        1.0 secs

     Self-consistent Calculation

     iteration #  1     ecut=    40.00 Ry     beta= 0.70
     Davidson diagonalization with overlap
     ethr =  1.00E-02,  avg # of iterations =  8.0

     Threshold (ethr) on eigenvalues was too large:
     Diagonalizing with lowered threshold

     Davidson diagonalization with overlap
     ethr =  1.24E-05,  avg # of iterations =  6.2

     total cpu time spent up to now is        1.3 secs

     total energy              =    -109.87715082 Ry
     Harris-Foulkes estimate   =    -109.87772463 Ry
     estimated scf accuracy    <       0.00112746 Ry

     iteration #  2     ecut=    40.00 Ry     beta= 0.70
     Davidson diagonalization with overlap
     ethr =  1.25E-05,  avg # of iterations =  2.0

     total cpu time spent up to now is        1.5 secs

     total energy              =    -109.87733585 Ry
     Harris-Foulkes estimate   =    -109.87736243 Ry
     estimated scf accuracy    <       0.00008662 Ry

     iteration #  3     ecut=    40.00 Ry     beta= 0.70
     Davidson diagonalization with overlap
     ethr =  9.62E-07,  avg # of iterations =  2.0

     total cpu time spent up to now is        1.6 secs

     total energy              =    -109.87734728 Ry
     Harris-Foulkes estimate   =    -109.87734717 Ry
     estimated scf accuracy    <       0.00000588 Ry

     iteration #  4     ecut=    40.00 Ry     beta= 0.70
     Davidson diagonalization with overlap
     ethr =  6.54E-08,  avg # of iterations =  1.2

     total cpu time spent up to now is        1.8 secs

     total energy              =    -109.87734788 Ry
     Harris-Foulkes estimate   =    -109.87734787 Ry
     estimated scf accuracy    <       0.00000004 Ry

     iteration #  5     ecut=    40.00 Ry     beta= 0.70
     Davidson diagonalization with overlap
     ethr =  4.92E-10,  avg # of iterations =  2.8

     total cpu time spent up to now is        1.9 secs

     End of self-consistent calculation

          k = 0.0000 0.0000 0.0000 (  2093 PWs)   bands (ev):

   -30.0996 -13.7374 -13.7374 -13.7374  -0.4764   5.9279   5.9279   5.9279
     6.8745

          k = 0.0000-0.3333 0.3333 (  2052 PWs)   bands (ev):

   -30.0956 -13.7975 -13.7575 -13.7373   0.8682   3.9020   5.0438   6.7046
     7.0266

          k =-0.3333 0.6667-0.3333 (  2037 PWs)   bands (ev):

   -30.0936 -13.7922 -13.7922 -13.7474   2.9762   2.9763   3.3015   6.2462
     7.0165

          k = 0.0000 0.0000 0.6667 (  2058 PWs)   bands (ev):

   -30.0923 -13.7899 -13.7798 -13.7798   2.0411   3.9450   5.1730   5.1730
     5.7565

     the Fermi energy is     1.9081 ev

!    total energy              =    -109.87734790 Ry
     Harris-Foulkes estimate   =    -109.87734790 Ry
     estimated scf accuracy    <          3.4E-09 Ry

     total all-electron energy =     -1201.202348 Ry

     The total energy is the sum of the following terms:

     one-electron contribution =     -35.36965589 Ry
     hartree contribution      =      18.82224094 Ry
     xc contribution           =     -11.01673022 Ry
     ewald contribution        =     -29.89633978 Ry
     one-center paw contrib.   =     -52.41638113 Ry
     smearing contrib. (-TS)   =      -0.00048182 Ry

     convergence has been achieved in   5 iterations

     Forces acting on atoms (cartesian axes, Ry/au):

     atom    1 type  1   force =     0.00000000    0.00000000    0.00000000

     Total force =     0.000000     Total SCF correction =     0.000000


     Computing stress (Cartesian axis) and pressure

          total   stress  (Ry/bohr**3)                   (kbar)     P=   -5.82
  -0.00003955   0.00000000  -0.00000000         -5.82      0.00     -0.00
   0.00000000  -0.00003955   0.00000000          0.00     -5.82      0.00
  -0.00000000   0.00000000  -0.00003955         -0.00      0.00     -5.82


     Writing output data file K.save/

     init_run     :      0.23s CPU      0.24s WALL (       1 calls)
     electrons    :      0.88s CPU      0.91s WALL (       1 calls)
     forces       :      0.04s CPU      0.04s WALL (       1 calls)
     stress       :      0.15s CPU      0.15s WALL (       1 calls)

     Called by init_run:
     wfcinit      :      0.02s CPU      0.02s WALL (       1 calls)
     potinit      :      0.04s CPU      0.05s WALL (       1 calls)
     hinit0       :      0.14s CPU      0.14s WALL (       1 calls)

     Called by electrons:
     c_bands      :      0.41s CPU      0.43s WALL (       6 calls)
     sum_band     :      0.17s CPU      0.18s WALL (       6 calls)
     v_of_rho     :      0.01s CPU      0.01s WALL (       6 calls)
     newd         :      0.09s CPU      0.10s WALL (       6 calls)
     PAW_pot      :      0.24s CPU      0.24s WALL (       6 calls)
     mix_rho      :      0.00s CPU      0.00s WALL (       6 calls)

     Called by c_bands:
     init_us_2    :      0.02s CPU      0.02s WALL (      60 calls)
     cegterg      :      0.39s CPU      0.41s WALL (      24 calls)

     Called by sum_band:
     sum_band:bec :      0.00s CPU      0.00s WALL (      24 calls)
     addusdens    :      0.10s CPU      0.10s WALL (       6 calls)

     Called by *egterg:
     h_psi        :      0.31s CPU      0.33s WALL (     117 calls)
     s_psi        :      0.01s CPU      0.01s WALL (     117 calls)
     g_psi        :      0.00s CPU      0.00s WALL (      89 calls)
     cdiaghg      :      0.02s CPU      0.02s WALL (     109 calls)

     Called by h_psi:
     h_psi:pot    :      0.31s CPU      0.33s WALL (     117 calls)
     h_psi:calbec :      0.02s CPU      0.02s WALL (     117 calls)
     vloc_psi     :      0.28s CPU      0.30s WALL (     117 calls)
     add_vuspsi   :      0.01s CPU      0.01s WALL (     117 calls)

     General routines
     calbec       :      0.03s CPU      0.03s WALL (     161 calls)
     fft          :      0.01s CPU      0.01s WALL (      34 calls)
     ffts         :      0.00s CPU      0.00s WALL (       6 calls)
     fftw         :      0.31s CPU      0.33s WALL (    1528 calls)

     Parallel routines
     fft_scatt_xy :      0.02s CPU      0.03s WALL (    1568 calls)
     fft_scatt_yz :      0.09s CPU      0.09s WALL (    1568 calls)

     PWSCF        :     2.05s CPU         2.15s WALL


   This run was terminated on:   0:26:28   8Apr2024            

=------------------------------------------------------------------------------=
   JOB DONE.
=------------------------------------------------------------------------------=
