
     Program PWSCF v.6.3MaX starts on  8Apr2024 at  0: 3: 4 

     This program is part of the open-source Quantum ESPRESSO suite
     for quantum simulation of materials; please cite
         "P. Giannozzi et al., J. Phys.:Condens. Matter 21 395502 (2009);
         "P. Giannozzi et al., J. Phys.:Condens. Matter 29 465901 (2017);
          URL http://www.quantum-espresso.org", 
     in publications or presentations arising from this work. More details at
     http://www.quantum-espresso.org/quote

     Parallel version (MPI), running on     5 processors

     MPI processes distributed on     1 nodes
     R & G space division:  proc/nbgrp/npool/nimage =       5
     Waiting for input...
     Reading input from standard input

     Current dimensions of program PWSCF are:
     Max number of different atomic species (ntypx) = 10
     Max number of k-points (npk) =  40000
     Max angular momentum in pseudopotentials (lmaxx) =  3
               file K.pz-spn-rrkjus_psl.1.0.0.UPF: wavefunction(s)  3S renormalized

     Subspace diagonalization in iterative solution of the eigenvalue problem:
     a serial algorithm will be used


     Parallelization info
     --------------------
     sticks:   dense  smooth     PW     G-vecs:    dense   smooth      PW
     Min         438     438    123                12915    12915    1937
     Max         439     439    124                12916    12916    1939
     Sum        2191    2191    619                64579    64579    9693



     bravais-lattice index     =            3
     lattice parameter (alat)  =       9.8600  a.u.
     unit-cell volume          =     479.2926 (a.u.)^3
     number of atoms/cell      =            1
     number of atomic types    =            1
     number of electrons       =         9.00
     number of Kohn-Sham states=            9
     kinetic-energy cutoff     =     100.0000  Ry
     charge density cutoff     =     400.0000  Ry
     convergence threshold     =      1.0E-08
     mixing beta               =       0.7000
     number of iterations used =            8  plain     mixing
     Exchange-correlation      = LDA ( 1  1  0  0 0 0)

     celldm(1)=   9.860000  celldm(2)=   0.000000  celldm(3)=   0.000000
     celldm(4)=   0.000000  celldm(5)=   0.000000  celldm(6)=   0.000000

     crystal axes: (cart. coord. in units of alat)
               a(1) = (   0.500000   0.500000   0.500000 )  
               a(2) = (  -0.500000   0.500000   0.500000 )  
               a(3) = (  -0.500000  -0.500000   0.500000 )  

     reciprocal axes: (cart. coord. in units 2 pi/alat)
               b(1) = (  1.000000  0.000000  1.000000 )  
               b(2) = ( -1.000000  1.000000  0.000000 )  
               b(3) = (  0.000000 -1.000000  1.000000 )  


     PseudoPot. # 1 for K  read from file:
     /home/lorenzo/pseudos/K/K.pz-spn-rrkjus_psl.1.0.0.UPF
     MD5 check sum: af434a66a3b91719abff201b8f79bb09
     Pseudo is Ultrasoft + core correction, Zval =  9.0
     Generated using "atomic" code by A. Dal Corso v.6.2.2
     Using radial grid of 1165 points,  6 beta functions with: 
                l(1) =   0
                l(2) =   0
                l(3) =   1
                l(4) =   1
                l(5) =   2
                l(6) =   2
     Q(r) pseudized with 0 coefficients 


     atomic species   valence    mass     pseudopotential
        K              9.00    39.09830     K ( 1.00)

     48 Sym. Ops., with inversion, found



   Cartesian axes

     site n.     atom                  positions (alat units)
         1           K   tau(   1) = (   0.0000000   0.0000000   0.0000000  )

     number of k points=    56  gaussian smearing, width (Ry)=  0.0100
                       cart. coord. in units 2pi/alat
        k(    1) = (   0.0000000   0.0000000   0.0000000), wk =   0.0015026
        k(    2) = (   0.0000000  -0.0909091   0.0909091), wk =   0.0180316
        k(    3) = (   0.0000000  -0.1818182   0.1818182), wk =   0.0180316
        k(    4) = (   0.0000000  -0.2727273   0.2727273), wk =   0.0180316
        k(    5) = (   0.0000000  -0.3636364   0.3636364), wk =   0.0180316
        k(    6) = (   0.0000000  -0.4545455   0.4545455), wk =   0.0180316
        k(    7) = (  -0.0909091  -0.0909091   0.1818182), wk =   0.0360631
        k(    8) = (  -0.0909091  -0.1818182   0.2727273), wk =   0.0721262
        k(    9) = (  -0.0909091  -0.2727273   0.3636364), wk =   0.0721262
        k(   10) = (  -0.0909091  -0.3636364   0.4545455), wk =   0.0721262
        k(   11) = (  -0.0909091   0.5454545  -0.4545455), wk =   0.0360631
        k(   12) = (  -0.1818182  -0.1818182   0.3636364), wk =   0.0360631
        k(   13) = (  -0.1818182  -0.2727273   0.4545455), wk =   0.0721262
        k(   14) = (  -0.1818182   0.6363636  -0.4545455), wk =   0.0721262
        k(   15) = (  -0.2727273   0.7272727  -0.4545455), wk =   0.0360631
        k(   16) = (  -0.2727273   0.6363636  -0.3636364), wk =   0.0360631
        k(   17) = (   0.0000000   0.0000000   0.1818182), wk =   0.0090158
        k(   18) = (   0.0000000  -0.0909091   0.2727273), wk =   0.0360631
        k(   19) = (   0.0000000  -0.1818182   0.3636364), wk =   0.0360631
        k(   20) = (   0.0000000  -0.2727273   0.4545455), wk =   0.0360631
        k(   21) = (   0.0000000  -0.3636364   0.5454545), wk =   0.0360631
        k(   22) = (  -0.0909091  -0.0909091   0.3636364), wk =   0.0360631
        k(   23) = (  -0.0909091  -0.1818182   0.4545455), wk =   0.0721262
        k(   24) = (  -0.0909091  -0.2727273   0.5454545), wk =   0.0721262
        k(   25) = (  -0.0909091   0.6363636  -0.3636364), wk =   0.0360631
        k(   26) = (  -0.1818182   0.1818182   0.1818182), wk =   0.0120210
        k(   27) = (  -0.1818182  -0.1818182   0.5454545), wk =   0.0360631
        k(   28) = (  -0.1818182   0.7272727  -0.3636364), wk =   0.0721262
        k(   29) = (  -0.2727273   0.2727273   0.1818182), wk =   0.0360631
        k(   30) = (  -0.2727273   0.7272727  -0.2727273), wk =   0.0120210
        k(   31) = (  -0.3636364   0.3636364   0.1818182), wk =   0.0360631
        k(   32) = (  -0.3636364   0.2727273   0.2727273), wk =   0.0360631
        k(   33) = (   0.5454545  -0.5454545   0.1818182), wk =   0.0360631
        k(   34) = (   0.5454545  -0.6363636   0.2727273), wk =   0.0721262
        k(   35) = (   0.4545455  -0.5454545   0.2727273), wk =   0.0360631
        k(   36) = (   0.4545455  -0.6363636   0.3636364), wk =   0.0360631
        k(   37) = (   0.0000000   0.0000000   0.3636364), wk =   0.0090158
        k(   38) = (   0.0000000  -0.0909091   0.4545455), wk =   0.0360631
        k(   39) = (   0.0000000  -0.1818182   0.5454545), wk =   0.0360631
        k(   40) = (   0.0000000  -0.2727273   0.6363636), wk =   0.0360631
        k(   41) = (  -0.0909091  -0.0909091   0.5454545), wk =   0.0360631
        k(   42) = (  -0.0909091  -0.1818182   0.6363636), wk =   0.0721262
        k(   43) = (  -0.0909091   0.7272727  -0.2727273), wk =   0.0360631
        k(   44) = (  -0.1818182   0.8181818  -0.2727273), wk =   0.0360631
        k(   45) = (   0.6363636  -0.6363636   0.3636364), wk =   0.0120210
        k(   46) = (   0.5454545  -0.5454545   0.3636364), wk =   0.0360631
        k(   47) = (   0.4545455  -0.5454545   0.4545455), wk =   0.0120210
        k(   48) = (   0.0000000   0.0000000   0.5454545), wk =   0.0090158
        k(   49) = (   0.0000000  -0.0909091   0.6363636), wk =   0.0360631
        k(   50) = (   0.0000000  -0.1818182   0.7272727), wk =   0.0360631
        k(   51) = (  -0.0909091  -0.0909091   0.7272727), wk =   0.0360631
        k(   52) = (  -0.0909091   0.8181818  -0.1818182), wk =   0.0360631
        k(   53) = (   0.0000000   0.0000000   0.7272727), wk =   0.0090158
        k(   54) = (   0.0000000  -0.0909091   0.8181818), wk =   0.0360631
        k(   55) = (  -0.0909091   0.9090909  -0.0909091), wk =   0.0120210
        k(   56) = (   0.0000000   0.0000000   0.9090909), wk =   0.0090158

     Dense  grid:    64579 G-vectors     FFT dimensions: (  60,  60,  60)

     Estimated max dynamical RAM per process >      63.58 MB

     Estimated total dynamical RAM >     317.89 MB

     Check: negative/imaginary core charge=   -0.000001    0.000000

     Initial potential from superposition of free atoms

     starting charge    8.98437, renormalised to    9.00000
     Starting wfcs are    8 randomized atomic wfcs +    1 random wfcs

     total cpu time spent up to now is        2.5 secs

     Self-consistent Calculation

     iteration #  1     ecut=   100.00 Ry     beta= 0.70
     Davidson diagonalization with overlap
     ethr =  1.00E-02,  avg # of iterations =  6.5

     Threshold (ethr) on eigenvalues was too large:
     Diagonalizing with lowered threshold

     Davidson diagonalization with overlap
     ethr =  1.24E-05,  avg # of iterations =  6.2

     total cpu time spent up to now is       16.4 secs

     total energy              =     -58.74331305 Ry
     Harris-Foulkes estimate   =     -58.74388358 Ry
     estimated scf accuracy    <       0.00112356 Ry

     iteration #  2     ecut=   100.00 Ry     beta= 0.70
     Davidson diagonalization with overlap
     ethr =  1.25E-05,  avg # of iterations =  2.3

     total cpu time spent up to now is       21.1 secs

     total energy              =     -58.74351242 Ry
     Harris-Foulkes estimate   =     -58.74352991 Ry
     estimated scf accuracy    <       0.00008978 Ry

     iteration #  3     ecut=   100.00 Ry     beta= 0.70
     Davidson diagonalization with overlap
     ethr =  9.98E-07,  avg # of iterations =  2.1

     total cpu time spent up to now is       24.9 secs

     total energy              =     -58.74352134 Ry
     Harris-Foulkes estimate   =     -58.74352057 Ry
     estimated scf accuracy    <       0.00000567 Ry

     iteration #  4     ecut=   100.00 Ry     beta= 0.70
     Davidson diagonalization with overlap
     ethr =  6.30E-08,  avg # of iterations =  1.6

     total cpu time spent up to now is       28.4 secs

     total energy              =     -58.74352186 Ry
     Harris-Foulkes estimate   =     -58.74352186 Ry
     estimated scf accuracy    <       0.00000003 Ry

     iteration #  5     ecut=   100.00 Ry     beta= 0.70
     Davidson diagonalization with overlap
     ethr =  3.80E-10,  avg # of iterations =  2.3

     total cpu time spent up to now is       32.1 secs

     End of self-consistent calculation

          k = 0.0000 0.0000 0.0000 (  8151 PWs)   bands (ev):

   -30.0990 -13.7371 -13.7371 -13.7371  -0.4766   5.9287   5.9287   5.9287
     6.8744

          k = 0.0000-0.0909 0.0909 (  8111 PWs)   bands (ev):

   -30.0986 -13.7435 -13.7392 -13.7371  -0.3703   5.7872   5.8035   6.0137
     6.7093

          k = 0.0000-0.1818 0.1818 (  8118 PWs)   bands (ev):

   -30.0975 -13.7607 -13.7450 -13.7371  -0.0574   5.2384   5.5170   6.2655
     6.6323

          k = 0.0000-0.2727 0.2727 (  8104 PWs)   bands (ev):

   -30.0960 -13.7830 -13.7524 -13.7370   0.4438   4.4574   5.2122   6.6746
     6.7007

          k = 0.0000-0.3636 0.3636 (  8088 PWs)   bands (ev):

   -30.0947 -13.8033 -13.7593 -13.7370   1.1025   3.6197   4.9767   6.6781
     7.0318

          k = 0.0000-0.4545 0.4545 (  8094 PWs)   bands (ev):

   -30.0939 -13.8152 -13.7634 -13.7370   1.8625   2.7788   4.8511   6.5553
     7.2828

          k =-0.0909-0.0909 0.1818 (  8106 PWs)   bands (ev):

   -30.0978 -13.7554 -13.7415 -13.7386  -0.1607   5.4771   5.5564   6.1743
     6.5386

          k =-0.0909-0.1818 0.2727 (  8107 PWs)   bands (ev):

   -30.0966 -13.7743 -13.7484 -13.7393   0.2469   4.8427   5.2238   6.4693
     6.5246

          k =-0.0909-0.2727 0.3636 (  8104 PWs)   bands (ev):

   -30.0952 -13.7942 -13.7567 -13.7394   0.8285   4.0622   4.9481   6.5538
     6.8827

          k =-0.0909-0.3636 0.4545 (  8110 PWs)   bands (ev):

   -30.0941 -13.8091 -13.7632 -13.7395   1.5459   3.2365   4.7692   6.4617
     7.1873

          k =-0.0909 0.5455-0.4545 (  8087 PWs)   bands (ev):

   -30.0937 -13.8147 -13.7657 -13.7395   2.2257   2.5232   4.7076   6.3746
     7.3334

          k =-0.1818-0.1818 0.3636 (  8112 PWs)   bands (ev):

   -30.0953 -13.7894 -13.7550 -13.7424   0.7359   4.3696   4.7831   6.5357
     6.6699

          k =-0.1818-0.2727 0.4545 (  8090 PWs)   bands (ev):

   -30.0942 -13.8014 -13.7645 -13.7437   1.3813   3.7285   4.4598   6.4858
     6.8016

          k =-0.1818 0.6364-0.4545 (  8088 PWs)   bands (ev):

   -30.0936 -13.8078 -13.7712 -13.7441   2.1358   2.9611   4.3047   6.2761
     7.0811

          k =-0.2727 0.7273-0.4545 (  8084 PWs)   bands (ev):

   -30.0935 -13.8020 -13.7762 -13.7461   2.0676   3.4205   3.8725   6.3491
     6.7905

          k =-0.2727 0.6364-0.3636 (  8090 PWs)   bands (ev):

   -30.0932 -13.7993 -13.7838 -13.7467   2.8104   2.8291   3.6394   6.2470
     6.9749

          k = 0.0000 0.0000 0.1818 (  8091 PWs)   bands (ev):

   -30.0982 -13.7454 -13.7414 -13.7414  -0.2649   5.7378   5.7378   6.0517
     6.3061

          k = 0.0000-0.0909 0.2727 (  8106 PWs)   bands (ev):

   -30.0971 -13.7608 -13.7472 -13.7424   0.0454   5.2724   5.5009   6.0808
     6.2767

          k = 0.0000-0.1818 0.3636 (  8117 PWs)   bands (ev):

   -30.0957 -13.7823 -13.7548 -13.7421   0.5425   4.4962   5.2236   6.1226
     6.6751

          k = 0.0000-0.2727 0.4545 (  8108 PWs)   bands (ev):

   -30.0944 -13.8019 -13.7617 -13.7418   1.1963   3.6720   5.0037   6.1306
     7.1732

          k = 0.0000-0.3636 0.5455 (  8107 PWs)   bands (ev):

   -30.0936 -13.8135 -13.7658 -13.7417   1.9552   2.8386   4.8853   6.0476
     7.2158

          k =-0.0909-0.0909 0.3636 (  8113 PWs)   bands (ev):

   -30.0959 -13.7754 -13.7537 -13.7460   0.4459   4.8098   5.2039   5.9520
     6.5330

          k =-0.0909-0.1818 0.4545 (  8114 PWs)   bands (ev):

   -30.0945 -13.7929 -13.7621 -13.7467   1.0177   4.1248   4.9022   6.0150
     6.8515

          k =-0.0909-0.2727 0.5455 (  8088 PWs)   bands (ev):

   -30.0935 -13.8063 -13.7690 -13.7467   1.7247   3.3482   4.7022   5.9695
     6.9675

          k =-0.0909 0.6364-0.3636 (  8089 PWs)   bands (ev):

   -30.0931 -13.8114 -13.7715 -13.7466   2.4386   2.6118   4.6307   5.9029
     7.0913

          k =-0.1818 0.1818 0.1818 (  8103 PWs)   bands (ev):

   -30.0969 -13.7717 -13.7419 -13.7419   0.1465   5.0940   5.0940   6.3977
     6.8293

          k =-0.1818-0.1818 0.5455 (  8086 PWs)   bands (ev):

   -30.0935 -13.8008 -13.7727 -13.7488   1.6449   3.7301   4.3580   6.1925
     6.6402

          k =-0.1818 0.7273-0.3636 (  8078 PWs)   bands (ev):

   -30.0929 -13.8040 -13.7813 -13.7493   2.3792   3.1357   4.0203   6.2264
     6.7646

          k =-0.2727 0.2727 0.1818 (  8103 PWs)   bands (ev):

   -30.0956 -13.7886 -13.7504 -13.7423   0.6401   4.4420   4.7724   6.6023
     6.8874

          k =-0.2727 0.7273-0.2727 (  8067 PWs)   bands (ev):

   -30.0926 -13.7946 -13.7946 -13.7500   2.9985   2.9985   3.4317   6.6458
     6.8075

          k =-0.3636 0.3636 0.1818 (  8091 PWs)   bands (ev):

   -30.0945 -13.8020 -13.7601 -13.7428   1.2909   3.6967   4.5482   6.5144
     7.0893

          k =-0.3636 0.2727 0.2727 (  8088 PWs)   bands (ev):

   -30.0947 -13.7984 -13.7568 -13.7471   1.2044   4.0395   4.3114   6.4074
     7.0032

          k = 0.5455-0.5455 0.1818 (  8089 PWs)   bands (ev):

   -30.0938 -13.8093 -13.7665 -13.7430   2.0486   2.8997   4.4339   6.2832
     7.3124

          k = 0.5455-0.6364 0.2727 (  8088 PWs)   bands (ev):

   -30.0939 -13.8021 -13.7674 -13.7488   1.9034   3.4305   4.0675   6.0044
     7.1338

          k = 0.4545-0.5455 0.2727 (  8081 PWs)   bands (ev):

   -30.0936 -13.8021 -13.7729 -13.7493   2.6392   2.7163   3.9969   5.8264
     7.2338

          k = 0.4545-0.6364 0.3636 (  8085 PWs)   bands (ev):

   -30.0935 -13.7948 -13.7795 -13.7520   2.6109   3.2150   3.5255   5.6325
     7.2167

          k = 0.0000 0.0000 0.3636 (  8100 PWs)   bands (ev):

   -30.0961 -13.7644 -13.7532 -13.7532   0.3478   5.2967   5.4051   5.4051
     6.4045

          k = 0.0000-0.0909 0.4545 (  8102 PWs)   bands (ev):

   -30.0947 -13.7808 -13.7610 -13.7553   0.8321   4.5674   5.2327   5.4872
     6.7297

          k = 0.0000-0.1818 0.5455 (  8085 PWs)   bands (ev):

   -30.0935 -13.7984 -13.7681 -13.7547   1.4686   3.8071   5.0701   5.4784
     6.7963

          k = 0.0000-0.2727 0.6364 (  8091 PWs)   bands (ev):

   -30.0927 -13.8089 -13.7723 -13.7541   2.2133   3.0186   4.9769   5.3522
     6.8515

          k =-0.0909-0.0909 0.5455 (  8079 PWs)   bands (ev):

   -30.0935 -13.7918 -13.7700 -13.7591   1.3819   4.1218   4.8958   5.5672
     6.5939

          k =-0.0909-0.1818 0.6364 (  8081 PWs)   bands (ev):

   -30.0925 -13.8019 -13.7779 -13.7591   2.0583   3.5268   4.5581   5.6483
     6.4903

          k =-0.0909 0.7273-0.2727 (  8090 PWs)   bands (ev):

   -30.0921 -13.8058 -13.7809 -13.7589   2.7869   2.8217   4.4323   5.6225
     6.6227

          k =-0.1818 0.8182-0.2727 (  8082 PWs)   bands (ev):

   -30.0919 -13.8001 -13.7895 -13.7598   2.7250   3.2728   3.9160   6.0342
     6.3382

          k = 0.6364-0.6364 0.3636 (  8082 PWs)   bands (ev):

   -30.0940 -13.7997 -13.7584 -13.7584   1.8237   3.8221   3.8221   5.7668
     7.2865

          k = 0.5455-0.5455 0.3636 (  8094 PWs)   bands (ev):

   -30.0936 -13.7944 -13.7711 -13.7594   2.5379   3.2430   3.7148   5.2799
     7.3391

          k = 0.4545-0.5455 0.4545 (  8112 PWs)   bands (ev):

   -30.0935 -13.7814 -13.7814 -13.7647   3.1136   3.1136   3.3707   4.9433
     7.4104

          k = 0.0000 0.0000 0.5455 (  8084 PWs)   bands (ev):

   -30.0935 -13.7822 -13.7691 -13.7691   1.2929   4.3999   5.2012   5.2012
     6.4675

          k = 0.0000-0.0909 0.6364 (  8091 PWs)   bands (ev):

   -30.0923 -13.7939 -13.7765 -13.7712   1.8920   3.9044   5.1159   5.1410
     6.1266

          k = 0.0000-0.1818 0.7273 (  8077 PWs)   bands (ev):

   -30.0916 -13.8029 -13.7809 -13.7703   2.5771   3.2874   4.8818   5.0963
     6.2861

          k =-0.0909-0.0909 0.7273 (  8080 PWs)   bands (ev):

   -30.0914 -13.7980 -13.7856 -13.7736   2.4989   3.5888   4.6013   5.4594
     5.9451

          k =-0.0909 0.8182-0.1818 (  8098 PWs)   bands (ev):

   -30.0911 -13.7997 -13.7899 -13.7734   3.0353   3.2075   4.3376   5.5542
     6.0325

          k = 0.0000 0.0000 0.7273 (  8112 PWs)   bands (ev):

   -30.0912 -13.7918 -13.7841 -13.7841   2.4194   3.7662   5.1865   5.1865
     5.4930

          k = 0.0000-0.0909 0.8182 (  8072 PWs)   bands (ev):

   -30.0906 -13.7974 -13.7887 -13.7850   2.9660   3.4678   4.8678   5.2040
     5.6820

          k =-0.0909 0.9091-0.0909 (  8076 PWs)   bands (ev):

   -30.0902 -13.7951 -13.7951 -13.7860   3.3046   3.3046   4.7172   5.5004
     5.5004

          k = 0.0000 0.0000 0.9091 (  8072 PWs)   bands (ev):

   -30.0899 -13.7944 -13.7933 -13.7933   3.2838   3.4418   5.2327   5.2663
     5.2663

     the Fermi energy is     1.7633 ev

!    total energy              =     -58.74352187 Ry
     Harris-Foulkes estimate   =     -58.74352187 Ry
     estimated scf accuracy    <          6.2E-10 Ry

     The total energy is the sum of the following terms:

     one-electron contribution =     -36.65552013 Ry
     hartree contribution      =      18.82560214 Ry
     xc contribution           =     -11.01682438 Ry
     ewald contribution        =     -29.89633970 Ry
     smearing contrib. (-TS)   =      -0.00043981 Ry

     convergence has been achieved in   5 iterations

     Forces acting on atoms (cartesian axes, Ry/au):

     atom    1 type  1   force =     0.00000000    0.00000000    0.00000000

     Total force =     0.000000     Total SCF correction =     0.000000


     Computing stress (Cartesian axis) and pressure

          total   stress  (Ry/bohr**3)                   (kbar)     P=   -3.88
  -0.00002638   0.00000000   0.00000000         -3.88      0.00      0.00
   0.00000000  -0.00002638   0.00000000          0.00     -3.88      0.00
   0.00000000   0.00000000  -0.00002638          0.00      0.00     -3.88


     Writing output data file K.save/

     init_run     :      1.69s CPU      1.76s WALL (       1 calls)
     electrons    :     28.63s CPU     29.61s WALL (       1 calls)
     forces       :      0.33s CPU      0.35s WALL (       1 calls)
     stress       :      1.45s CPU      1.49s WALL (       1 calls)

     Called by init_run:
     wfcinit      :      1.22s CPU      1.28s WALL (       1 calls)
     potinit      :      0.02s CPU      0.02s WALL (       1 calls)
     hinit0       :      0.27s CPU      0.27s WALL (       1 calls)

     Called by electrons:
     c_bands      :     23.62s CPU     24.35s WALL (       6 calls)
     sum_band     :      4.58s CPU      4.76s WALL (       6 calls)
     v_of_rho     :      0.06s CPU      0.06s WALL (       6 calls)
     newd         :      0.39s CPU      0.46s WALL (       6 calls)
     mix_rho      :      0.03s CPU      0.03s WALL (       6 calls)

     Called by c_bands:
     init_us_2    :      0.83s CPU      0.84s WALL (     840 calls)
     cegterg      :     22.65s CPU     23.37s WALL (     336 calls)

     Called by sum_band:
     sum_band:bec :      0.00s CPU      0.00s WALL (     336 calls)
     addusdens    :      0.34s CPU      0.41s WALL (       6 calls)

     Called by *egterg:
     h_psi        :     19.61s CPU     20.34s WALL (    1565 calls)
     s_psi        :      0.52s CPU      0.52s WALL (    1565 calls)
     g_psi        :      0.05s CPU      0.05s WALL (    1173 calls)
     cdiaghg      :      0.39s CPU      0.39s WALL (    1453 calls)

     Called by h_psi:
     h_psi:pot    :     19.52s CPU     20.25s WALL (    1565 calls)
     h_psi:calbec :      0.99s CPU      1.02s WALL (    1565 calls)
     vloc_psi     :     17.92s CPU     18.61s WALL (    1565 calls)
     add_vuspsi   :      0.60s CPU      0.60s WALL (    1565 calls)

     General routines
     calbec       :      1.61s CPU      1.64s WALL (    2181 calls)
     fft          :      0.07s CPU      0.08s WALL (      34 calls)
     ffts         :      0.01s CPU      0.01s WALL (       6 calls)
     fftw         :     19.14s CPU     19.88s WALL (   20664 calls)

     Parallel routines
     fft_scatt_xy :      1.58s CPU      1.66s WALL (   20704 calls)
     fft_scatt_yz :      4.53s CPU      4.74s WALL (   20704 calls)

     PWSCF        :    32.94s CPU        34.23s WALL


   This run was terminated on:   0: 3:38   8Apr2024            

=------------------------------------------------------------------------------=
   JOB DONE.
=------------------------------------------------------------------------------=
