
     Program PWSCF v.6.3MaX starts on  8Apr2024 at  0:21:48 

     This program is part of the open-source Quantum ESPRESSO suite
     for quantum simulation of materials; please cite
         "P. Giannozzi et al., J. Phys.:Condens. Matter 21 395502 (2009);
         "P. Giannozzi et al., J. Phys.:Condens. Matter 29 465901 (2017);
          URL http://www.quantum-espresso.org", 
     in publications or presentations arising from this work. More details at
     http://www.quantum-espresso.org/quote

     Parallel version (MPI), running on     5 processors

     MPI processes distributed on     1 nodes
     R & G space division:  proc/nbgrp/npool/nimage =       5
     Waiting for input...
     Reading input from standard input

     Current dimensions of program PWSCF are:
     Max number of different atomic species (ntypx) = 10
     Max number of k-points (npk) =  40000
     Max angular momentum in pseudopotentials (lmaxx) =  3
               file K.pz-spn-kjpaw_psl.1.0.0.UPF: wavefunction(s)  3S renormalized

     Subspace diagonalization in iterative solution of the eigenvalue problem:
     a serial algorithm will be used


     Parallelization info
     --------------------
     sticks:   dense  smooth     PW     G-vecs:    dense   smooth      PW
     Min         153     153     45                 2690     2690     447
     Max         154     154     46                 2691     2691     449
     Sum         769     769    229                13451    13451    2243



     bravais-lattice index     =            3
     lattice parameter (alat)  =       9.8600  a.u.
     unit-cell volume          =     479.2926 (a.u.)^3
     number of atoms/cell      =            1
     number of atomic types    =            1
     number of electrons       =         9.00
     number of Kohn-Sham states=            9
     kinetic-energy cutoff     =      35.0000  Ry
     charge density cutoff     =     140.0000  Ry
     convergence threshold     =      1.0E-08
     mixing beta               =       0.7000
     number of iterations used =            8  plain     mixing
     Exchange-correlation      = SLA PZ NOGX NOGC ( 1  1  0  0 0 0)

     celldm(1)=   9.860000  celldm(2)=   0.000000  celldm(3)=   0.000000
     celldm(4)=   0.000000  celldm(5)=   0.000000  celldm(6)=   0.000000

     crystal axes: (cart. coord. in units of alat)
               a(1) = (   0.500000   0.500000   0.500000 )  
               a(2) = (  -0.500000   0.500000   0.500000 )  
               a(3) = (  -0.500000  -0.500000   0.500000 )  

     reciprocal axes: (cart. coord. in units 2 pi/alat)
               b(1) = (  1.000000  0.000000  1.000000 )  
               b(2) = ( -1.000000  1.000000  0.000000 )  
               b(3) = (  0.000000 -1.000000  1.000000 )  


     PseudoPot. # 1 for K  read from file:
     /home/lorenzo/pseudos/K/K.pz-spn-kjpaw_psl.1.0.0.UPF
     MD5 check sum: 59b94f4c1a6681f21e103574f2c5fc67
     Pseudo is Projector augmented-wave + core cor, Zval =  9.0
     Generated using "atomic" code by A. Dal Corso v.6.2.2
     Shape of augmentation charge: PSQ
     Using radial grid of 1165 points,  6 beta functions with: 
                l(1) =   0
                l(2) =   0
                l(3) =   1
                l(4) =   1
                l(5) =   2
                l(6) =   2
     Q(r) pseudized with 0 coefficients 


     atomic species   valence    mass     pseudopotential
        K              9.00    39.09830     K ( 1.00)

     48 Sym. Ops., with inversion, found



   Cartesian axes

     site n.     atom                  positions (alat units)
         1           K   tau(   1) = (   0.0000000   0.0000000   0.0000000  )

     number of k points=    47  gaussian smearing, width (Ry)=  0.0100
                       cart. coord. in units 2pi/alat
        k(    1) = (   0.0000000   0.0000000   0.0000000), wk =   0.0020000
        k(    2) = (   0.0000000  -0.1000000   0.1000000), wk =   0.0240000
        k(    3) = (   0.0000000  -0.2000000   0.2000000), wk =   0.0240000
        k(    4) = (   0.0000000  -0.3000000   0.3000000), wk =   0.0240000
        k(    5) = (   0.0000000  -0.4000000   0.4000000), wk =   0.0240000
        k(    6) = (   0.0000000   0.5000000  -0.5000000), wk =   0.0120000
        k(    7) = (  -0.1000000  -0.1000000   0.2000000), wk =   0.0480000
        k(    8) = (  -0.1000000  -0.2000000   0.3000000), wk =   0.0960000
        k(    9) = (  -0.1000000  -0.3000000   0.4000000), wk =   0.0960000
        k(   10) = (  -0.1000000   0.6000000  -0.5000000), wk =   0.0960000
        k(   11) = (  -0.2000000  -0.2000000   0.4000000), wk =   0.0480000
        k(   12) = (  -0.2000000   0.7000000  -0.5000000), wk =   0.0960000
        k(   13) = (  -0.2000000   0.6000000  -0.4000000), wk =   0.0480000
        k(   14) = (  -0.3000000   0.7000000  -0.4000000), wk =   0.0480000
        k(   15) = (   0.0000000   0.0000000   0.2000000), wk =   0.0120000
        k(   16) = (   0.0000000  -0.1000000   0.3000000), wk =   0.0480000
        k(   17) = (   0.0000000  -0.2000000   0.4000000), wk =   0.0480000
        k(   18) = (   0.0000000  -0.3000000   0.5000000), wk =   0.0480000
        k(   19) = (   0.0000000   0.6000000  -0.4000000), wk =   0.0240000
        k(   20) = (  -0.1000000  -0.1000000   0.4000000), wk =   0.0480000
        k(   21) = (  -0.1000000  -0.2000000   0.5000000), wk =   0.0960000
        k(   22) = (  -0.1000000   0.7000000  -0.4000000), wk =   0.0960000
        k(   23) = (  -0.2000000   0.2000000   0.2000000), wk =   0.0160000
        k(   24) = (  -0.2000000   0.8000000  -0.4000000), wk =   0.0480000
        k(   25) = (  -0.2000000   0.7000000  -0.3000000), wk =   0.0480000
        k(   26) = (  -0.3000000   0.3000000   0.2000000), wk =   0.0480000
        k(   27) = (   0.6000000  -0.6000000   0.2000000), wk =   0.0480000
        k(   28) = (   0.6000000  -0.7000000   0.3000000), wk =   0.0480000
        k(   29) = (   0.5000000  -0.5000000   0.2000000), wk =   0.0240000
        k(   30) = (   0.5000000  -0.6000000   0.3000000), wk =   0.0960000
        k(   31) = (   0.4000000  -0.6000000   0.4000000), wk =   0.0160000
        k(   32) = (   0.0000000   0.0000000   0.4000000), wk =   0.0120000
        k(   33) = (   0.0000000  -0.1000000   0.5000000), wk =   0.0480000
        k(   34) = (   0.0000000  -0.2000000   0.6000000), wk =   0.0480000
        k(   35) = (   0.0000000   0.7000000  -0.3000000), wk =   0.0240000
        k(   36) = (  -0.1000000  -0.1000000   0.6000000), wk =   0.0480000
        k(   37) = (  -0.1000000   0.8000000  -0.3000000), wk =   0.0960000
        k(   38) = (  -0.2000000   0.8000000  -0.2000000), wk =   0.0160000
        k(   39) = (   0.6000000  -0.6000000   0.4000000), wk =   0.0160000
        k(   40) = (   0.5000000  -0.5000000   0.4000000), wk =   0.0240000
        k(   41) = (   0.0000000   0.0000000   0.6000000), wk =   0.0120000
        k(   42) = (   0.0000000  -0.1000000   0.7000000), wk =   0.0480000
        k(   43) = (   0.0000000   0.8000000  -0.2000000), wk =   0.0240000
        k(   44) = (  -0.1000000   0.9000000  -0.2000000), wk =   0.0480000
        k(   45) = (   0.0000000   0.0000000   0.8000000), wk =   0.0120000
        k(   46) = (   0.0000000   0.9000000  -0.1000000), wk =   0.0240000
        k(   47) = (   0.0000000   0.0000000  -1.0000000), wk =   0.0020000

     Dense  grid:    13451 G-vectors     FFT dimensions: (  36,  36,  36)

     Estimated max dynamical RAM per process >      13.87 MB

     Estimated total dynamical RAM >      69.37 MB

     Check: negative/imaginary core charge=   -0.000007    0.000000

     Initial potential from superposition of free atoms

     starting charge    8.98437, renormalised to    9.00000
     Starting wfcs are    8 randomized atomic wfcs +    1 random wfcs
     Checking if some PAW data can be deallocated... 

     total cpu time spent up to now is        1.2 secs

     Self-consistent Calculation

     iteration #  1     ecut=    35.00 Ry     beta= 0.70
     Davidson diagonalization with overlap
     ethr =  1.00E-02,  avg # of iterations =  6.7

     Threshold (ethr) on eigenvalues was too large:
     Diagonalizing with lowered threshold

     Davidson diagonalization with overlap
     ethr =  1.24E-05,  avg # of iterations =  6.5

     total cpu time spent up to now is        3.6 secs

     total energy              =    -109.86970102 Ry
     Harris-Foulkes estimate   =    -109.87024543 Ry
     estimated scf accuracy    <       0.00111352 Ry

     iteration #  2     ecut=    35.00 Ry     beta= 0.70
     Davidson diagonalization with overlap
     ethr =  1.24E-05,  avg # of iterations =  2.1

     total cpu time spent up to now is        4.5 secs

     total energy              =    -109.86988036 Ry
     Harris-Foulkes estimate   =    -109.86990420 Ry
     estimated scf accuracy    <       0.00008650 Ry

     iteration #  3     ecut=    35.00 Ry     beta= 0.70
     Davidson diagonalization with overlap
     ethr =  9.61E-07,  avg # of iterations =  2.1

     total cpu time spent up to now is        5.2 secs

     total energy              =    -109.86989148 Ry
     Harris-Foulkes estimate   =    -109.86989123 Ry
     estimated scf accuracy    <       0.00000586 Ry

     iteration #  4     ecut=    35.00 Ry     beta= 0.70
     Davidson diagonalization with overlap
     ethr =  6.51E-08,  avg # of iterations =  1.5

     total cpu time spent up to now is        5.9 secs

     total energy              =    -109.86989218 Ry
     Harris-Foulkes estimate   =    -109.86989217 Ry
     estimated scf accuracy    <       0.00000004 Ry

     iteration #  5     ecut=    35.00 Ry     beta= 0.70
     Davidson diagonalization with overlap
     ethr =  4.87E-10,  avg # of iterations =  2.3

     total cpu time spent up to now is        6.8 secs

     End of self-consistent calculation

          k = 0.0000 0.0000 0.0000 (  1721 PWs)   bands (ev):

   -30.0946 -13.7344 -13.7344 -13.7344  -0.4765   5.9305   5.9305   6.8759
     6.8762

          k = 0.0000-0.1000 0.1000 (  1665 PWs)   bands (ev):

   -30.0938 -13.7421 -13.7369 -13.7343  -0.3479   5.7536   5.7815   6.0337
     6.6921

          k = 0.0000-0.2000 0.2000 (  1663 PWs)   bands (ev):

   -30.0925 -13.7623 -13.7436 -13.7343   0.0287   5.0928   5.4556   6.3374
     6.6451

          k = 0.0000-0.3000 0.3000 (  1665 PWs)   bands (ev):

   -30.0909 -13.7869 -13.7519 -13.7343   0.6269   4.2099   5.1332   6.7141
     6.8278

          k = 0.0000-0.4000 0.4000 (  1665 PWs)   bands (ev):

   -30.0896 -13.8066 -13.7586 -13.7343   1.3999   3.2801   4.9134   6.6302
     7.1287

          k = 0.0000 0.5000-0.5000 (  1674 PWs)   bands (ev):

   -30.0891 -13.8141 -13.7612 -13.7343   2.1435   2.4887   4.8365   6.5339
     7.3603

          k =-0.1000-0.1000 0.2000 (  1667 PWs)   bands (ev):

   -30.0929 -13.7560 -13.7397 -13.7362  -0.0952   5.3794   5.4884   6.2246
     6.5205

          k =-0.1000-0.2000 0.3000 (  1668 PWs)   bands (ev):

   -30.0915 -13.7771 -13.7478 -13.7370   0.3930   4.6523   5.1219   6.5187
     6.5788

          k =-0.1000-0.3000 0.4000 (  1670 PWs)   bands (ev):

   -30.0900 -13.7975 -13.7568 -13.7371   1.0819   3.7827   4.8461   6.5278
     7.0046

          k =-0.1000 0.6000-0.5000 (  1672 PWs)   bands (ev):

   -30.0891 -13.8099 -13.7626 -13.7372   1.9095   2.8741   4.6991   6.3861
     7.2716

          k =-0.2000-0.2000 0.4000 (  1670 PWs)   bands (ev):

   -30.0902 -13.7919 -13.7560 -13.7405   0.9741   4.1561   4.6168   6.5743
     6.6861

          k =-0.2000 0.7000-0.5000 (  1677 PWs)   bands (ev):

   -30.0892 -13.8013 -13.7666 -13.7418   1.7295   3.4569   4.2749   6.3949
     6.8493

          k =-0.2000 0.6000-0.4000 (  1682 PWs)   bands (ev):

   -30.0888 -13.8042 -13.7715 -13.7421   2.5305   2.6594   4.1691   6.2395
     7.1385

          k =-0.3000 0.7000-0.4000 (  1680 PWs)   bands (ev):

   -30.0886 -13.7963 -13.7807 -13.7440   2.5127   3.2016   3.5733   6.2718
     6.8935

          k = 0.0000 0.0000 0.2000 (  1661 PWs)   bands (ev):

   -30.0933 -13.7442 -13.7395 -13.7395  -0.2207   5.7066   5.7066   6.0795
     6.2119

          k = 0.0000-0.1000 0.3000 (  1667 PWs)   bands (ev):

   -30.0920 -13.7622 -13.7463 -13.7406   0.1522   5.1341   5.4428   6.0132
     6.3501

          k = 0.0000-0.2000 0.4000 (  1667 PWs)   bands (ev):

   -30.0905 -13.7858 -13.7547 -13.7403   0.7445   4.2606   5.1533   6.0692
     6.8264

          k = 0.0000-0.3000 0.5000 (  1676 PWs)   bands (ev):

   -30.0892 -13.8048 -13.7615 -13.7400   1.5111   3.3492   4.9501   6.0298
     7.1572

          k = 0.0000 0.6000-0.4000 (  1694 PWs)   bands (ev):

   -30.0889 -13.8120 -13.7641 -13.7399   2.2756   2.5419   4.8783   5.9574
     7.2166

          k =-0.1000-0.1000 0.4000 (  1678 PWs)   bands (ev):

   -30.0907 -13.7780 -13.7541 -13.7448   0.6302   4.6198   5.1019   5.9149
     6.6433

          k =-0.1000-0.2000 0.5000 (  1681 PWs)   bands (ev):

   -30.0893 -13.7953 -13.7636 -13.7454   1.3050   3.8762   4.7678   5.9856
     6.8497

          k =-0.1000 0.7000-0.4000 (  1690 PWs)   bands (ev):

   -30.0885 -13.8061 -13.7697 -13.7453   2.1215   3.0203   4.5841   5.9068
     6.9777

          k =-0.2000 0.2000 0.2000 (  1676 PWs)   bands (ev):

   -30.0919 -13.7741 -13.7402 -13.7402   0.2733   4.9536   4.9536   6.4671
     6.8701

          k =-0.2000 0.8000-0.4000 (  1683 PWs)   bands (ev):

   -30.0884 -13.7997 -13.7762 -13.7473   2.0331   3.5049   4.0987   6.2523
     6.5737

          k =-0.2000 0.7000-0.3000 (  1679 PWs)   bands (ev):

   -30.0880 -13.7992 -13.7835 -13.7477   2.8250   2.8727   3.8098   6.2963
     6.7912

          k =-0.3000 0.3000 0.2000 (  1662 PWs)   bands (ev):

   -30.0905 -13.7910 -13.7504 -13.7408   0.8609   4.2282   4.6236   6.5922
     6.9592

          k = 0.6000-0.6000 0.2000 (  1671 PWs)   bands (ev):

   -30.0894 -13.8023 -13.7609 -13.7414   1.6237   3.4020   4.4194   6.3396
     7.1823

          k = 0.6000-0.7000 0.3000 (  1665 PWs)   bands (ev):

   -30.0895 -13.7979 -13.7584 -13.7464   1.5253   3.8261   4.1203   6.1679
     7.0851

          k = 0.5000-0.5000 0.2000 (  1676 PWs)   bands (ev):

   -30.0891 -13.8062 -13.7653 -13.7416   2.4045   2.6041   4.3507   6.1650
     7.3178

          k = 0.5000-0.6000 0.3000 (  1672 PWs)   bands (ev):

   -30.0890 -13.7973 -13.7697 -13.7483   2.3277   3.1588   3.8904   5.7486
     7.2145

          k = 0.4000-0.6000 0.4000 (  1673 PWs)   bands (ev):

   -30.0888 -13.7843 -13.7843 -13.7508   3.0202   3.0202   3.3252   5.4975
     7.3033

          k = 0.0000 0.0000 0.4000 (  1681 PWs)   bands (ev):

   -30.0909 -13.7657 -13.7534 -13.7534   0.5136   5.1018   5.3506   5.3506
     6.5009

          k = 0.0000-0.1000 0.5000 (  1684 PWs)   bands (ev):

   -30.0894 -13.7833 -13.7621 -13.7557   1.0868   4.3519   5.1842   5.4070
     6.8401

          k = 0.0000-0.2000 0.6000 (  1690 PWs)   bands (ev):

   -30.0883 -13.8000 -13.7691 -13.7548   1.8280   3.5344   5.0427   5.3171
     6.6811

          k = 0.0000 0.7000-0.3000 (  1686 PWs)   bands (ev):

   -30.0878 -13.8064 -13.7718 -13.7544   2.6451   2.7002   4.9895   5.2083
     6.7860

          k =-0.1000-0.1000 0.6000 (  1688 PWs)   bands (ev):

   -30.0882 -13.7931 -13.7726 -13.7594   1.7274   3.9033   4.7472   5.5660
     6.3820

          k =-0.1000 0.8000-0.3000 (  1679 PWs)   bands (ev):

   -30.0873 -13.8002 -13.7802 -13.7593   2.4920   3.2799   4.3712   5.6557
     6.4231

          k =-0.2000 0.8000-0.2000 (  1680 PWs)   bands (ev):

   -30.0870 -13.7930 -13.7930 -13.7597   3.0931   3.0931   3.8050   6.1471
     6.1471

          k = 0.6000-0.6000 0.4000 (  1670 PWs)   bands (ev):

   -30.0891 -13.7938 -13.7602 -13.7602   2.2377   3.6314   3.6314   5.3857
     7.3556

          k = 0.5000-0.5000 0.4000 (  1678 PWs)   bands (ev):

   -30.0889 -13.7857 -13.7721 -13.7610   2.9603   3.0465   3.5673   5.0234
     7.3910

          k = 0.0000 0.0000 0.6000 (  1689 PWs)   bands (ev):

   -30.0881 -13.7833 -13.7712 -13.7712   1.6233   4.1798   5.1793   5.1793
     6.1251

          k = 0.0000-0.1000 0.7000 (  1691 PWs)   bands (ev):

   -30.0870 -13.7941 -13.7785 -13.7729   2.3000   3.6942   4.9840   5.1461
     5.9589

          k = 0.0000 0.8000-0.2000 (  1678 PWs)   bands (ev):

   -30.0865 -13.7995 -13.7813 -13.7722   2.9525   3.1246   4.7704   5.1283
     6.1593

          k =-0.1000 0.9000-0.2000 (  1685 PWs)   bands (ev):

   -30.0862 -13.7952 -13.7880 -13.7749   2.9238   3.4156   4.4769   5.5166
     5.8271

          k = 0.0000 0.0000 0.8000 (  1686 PWs)   bands (ev):

   -30.0859 -13.7907 -13.7861 -13.7861   2.8399   3.5987   5.2174   5.2174
     5.2880

          k = 0.0000 0.9000-0.1000 (  1668 PWs)   bands (ev):

   -30.0854 -13.7940 -13.7889 -13.7864   3.2451   3.3835   4.9311   5.2410
     5.5573

          k = 0.0000 0.0000-1.0000 (  1686 PWs)   bands (ev):

   -30.0851 -13.7919 -13.7919 -13.7919   3.4015   5.2838   5.2838   5.2838
     7.2562

     the Fermi energy is     1.7387 ev

!    total energy              =    -109.86989220 Ry
     Harris-Foulkes estimate   =    -109.86989220 Ry
     estimated scf accuracy    <          3.4E-09 Ry

     total all-electron energy =     -1201.194892 Ry

     The total energy is the sum of the following terms:

     one-electron contribution =     -35.36329774 Ry
     hartree contribution      =      18.82420422 Ry
     xc contribution           =     -11.01724047 Ry
     ewald contribution        =     -29.89633975 Ry
     one-center paw contrib.   =     -52.41656630 Ry
     smearing contrib. (-TS)   =      -0.00065216 Ry

     convergence has been achieved in   5 iterations

     Forces acting on atoms (cartesian axes, Ry/au):

     atom    1 type  1   force =     0.00000000    0.00000000    0.00000000

     Total force =     0.000000     Total SCF correction =     0.000000


     Computing stress (Cartesian axis) and pressure

          total   stress  (Ry/bohr**3)                   (kbar)     P=   -4.25
  -0.00002886  -0.00000000  -0.00000000         -4.25     -0.00     -0.00
  -0.00000000  -0.00002886   0.00000000         -0.00     -4.25      0.00
  -0.00000000   0.00000000  -0.00002886         -0.00      0.00     -4.25


     Writing output data file K.save/

     init_run     :      0.41s CPU      0.43s WALL (       1 calls)
     electrons    :      5.34s CPU      5.61s WALL (       1 calls)
     forces       :      0.07s CPU      0.07s WALL (       1 calls)
     stress       :      0.28s CPU      0.28s WALL (       1 calls)

     Called by init_run:
     wfcinit      :      0.21s CPU      0.23s WALL (       1 calls)
     potinit      :      0.05s CPU      0.05s WALL (       1 calls)
     hinit0       :      0.13s CPU      0.13s WALL (       1 calls)

     Called by electrons:
     c_bands      :      4.32s CPU      4.55s WALL (       6 calls)
     sum_band     :      0.73s CPU      0.77s WALL (       6 calls)
     v_of_rho     :      0.01s CPU      0.01s WALL (       6 calls)
     newd         :      0.07s CPU      0.08s WALL (       6 calls)
     PAW_pot      :      0.24s CPU      0.24s WALL (       6 calls)
     mix_rho      :      0.00s CPU      0.00s WALL (       6 calls)

     Called by c_bands:
     init_us_2    :      0.14s CPU      0.15s WALL (     705 calls)
     cegterg      :      4.14s CPU      4.36s WALL (     282 calls)

     Called by sum_band:
     sum_band:bec :      0.00s CPU      0.00s WALL (     282 calls)
     addusdens    :      0.08s CPU      0.08s WALL (       6 calls)

     Called by *egterg:
     h_psi        :      3.39s CPU      3.60s WALL (    1326 calls)
     s_psi        :      0.10s CPU      0.10s WALL (    1326 calls)
     g_psi        :      0.01s CPU      0.01s WALL (     997 calls)
     cdiaghg      :      0.28s CPU      0.29s WALL (    1232 calls)

     Called by h_psi:
     h_psi:pot    :      3.37s CPU      3.58s WALL (    1326 calls)
     h_psi:calbec :      0.16s CPU      0.17s WALL (    1326 calls)
     vloc_psi     :      3.10s CPU      3.30s WALL (    1326 calls)
     add_vuspsi   :      0.10s CPU      0.10s WALL (    1326 calls)

     General routines
     calbec       :      0.23s CPU      0.25s WALL (    1843 calls)
     fft          :      0.02s CPU      0.02s WALL (      34 calls)
     ffts         :      0.00s CPU      0.00s WALL (       6 calls)
     fftw         :      3.38s CPU      3.59s WALL (   17758 calls)

     Parallel routines
     fft_scatt_xy :      0.28s CPU      0.30s WALL (   17798 calls)
     fft_scatt_yz :      0.83s CPU      0.88s WALL (   17798 calls)

     PWSCF        :     6.89s CPU         7.26s WALL


   This run was terminated on:   0:21:56   8Apr2024            

=------------------------------------------------------------------------------=
   JOB DONE.
=------------------------------------------------------------------------------=
