
     Program PWSCF v.6.3MaX starts on  8Apr2024 at  0:44:31 

     This program is part of the open-source Quantum ESPRESSO suite
     for quantum simulation of materials; please cite
         "P. Giannozzi et al., J. Phys.:Condens. Matter 21 395502 (2009);
         "P. Giannozzi et al., J. Phys.:Condens. Matter 29 465901 (2017);
          URL http://www.quantum-espresso.org", 
     in publications or presentations arising from this work. More details at
     http://www.quantum-espresso.org/quote

     Parallel version (MPI), running on     5 processors

     MPI processes distributed on     1 nodes
     R & G space division:  proc/nbgrp/npool/nimage =       5
     Waiting for input...
     Reading input from standard input

     Current dimensions of program PWSCF are:
     Max number of different atomic species (ntypx) = 10
     Max number of k-points (npk) =  40000
     Max angular momentum in pseudopotentials (lmaxx) =  3
               file K.pbe-spn-kjpaw_psl.1.0.0.UPF: wavefunction(s)  3S renormalized

     Subspace diagonalization in iterative solution of the eigenvalue problem:
     a serial algorithm will be used


     Parallelization info
     --------------------
     sticks:   dense  smooth     PW     G-vecs:    dense   smooth      PW
     Min         263     263     75                 6018     6018     917
     Max         263     263     75                 6019     6019     917
     Sum        1315    1315    375                30093    30093    4585



     bravais-lattice index     =            3
     lattice parameter (alat)  =       9.8600  a.u.
     unit-cell volume          =     479.2926 (a.u.)^3
     number of atoms/cell      =            1
     number of atomic types    =            1
     number of electrons       =         9.00
     number of Kohn-Sham states=            9
     kinetic-energy cutoff     =      60.0000  Ry
     charge density cutoff     =     240.0000  Ry
     convergence threshold     =      1.0E-08
     mixing beta               =       0.7000
     number of iterations used =            8  plain     mixing
     Exchange-correlation      = SLA PW PBX PBC ( 1  4  3  4 0 0)

     celldm(1)=   9.860000  celldm(2)=   0.000000  celldm(3)=   0.000000
     celldm(4)=   0.000000  celldm(5)=   0.000000  celldm(6)=   0.000000

     crystal axes: (cart. coord. in units of alat)
               a(1) = (   0.500000   0.500000   0.500000 )  
               a(2) = (  -0.500000   0.500000   0.500000 )  
               a(3) = (  -0.500000  -0.500000   0.500000 )  

     reciprocal axes: (cart. coord. in units 2 pi/alat)
               b(1) = (  1.000000  0.000000  1.000000 )  
               b(2) = ( -1.000000  1.000000  0.000000 )  
               b(3) = (  0.000000 -1.000000  1.000000 )  


     PseudoPot. # 1 for K  read from file:
     /home/lorenzo/pseudos/K/K.pbe-spn-kjpaw_psl.1.0.0.UPF
     MD5 check sum: 34cc42130a09071ebe376fd42eb21491
     Pseudo is Projector augmented-wave + core cor, Zval =  9.0
     Generated using "atomic" code by A. Dal Corso v.6.2.2
     Shape of augmentation charge: PSQ
     Using radial grid of 1165 points,  6 beta functions with: 
                l(1) =   0
                l(2) =   0
                l(3) =   1
                l(4) =   1
                l(5) =   2
                l(6) =   2
     Q(r) pseudized with 0 coefficients 


     atomic species   valence    mass     pseudopotential
        K              9.00    39.09830     K ( 1.00)

     48 Sym. Ops., with inversion, found



   Cartesian axes

     site n.     atom                  positions (alat units)
         1           K   tau(   1) = (   0.0000000   0.0000000   0.0000000  )

     number of k points=     4  gaussian smearing, width (Ry)=  0.0100
                       cart. coord. in units 2pi/alat
        k(    1) = (   0.0000000   0.0000000   0.0000000), wk =   0.0740741
        k(    2) = (   0.0000000  -0.3333333   0.3333333), wk =   0.8888889
        k(    3) = (  -0.3333333   0.6666667  -0.3333333), wk =   0.5925926
        k(    4) = (   0.0000000   0.0000000   0.6666667), wk =   0.4444444

     Dense  grid:    30093 G-vectors     FFT dimensions: (  45,  45,  45)

     Estimated max dynamical RAM per process >      24.89 MB

     Estimated total dynamical RAM >     124.44 MB

     Check: negative/imaginary core charge=   -0.000003    0.000000

     Initial potential from superposition of free atoms

     starting charge    8.98117, renormalised to    9.00000
     Starting wfcs are    8 randomized atomic wfcs +    1 random wfcs
     Checking if some PAW data can be deallocated... 

     total cpu time spent up to now is        1.2 secs

     Self-consistent Calculation

     iteration #  1     ecut=    60.00 Ry     beta= 0.70
     Davidson diagonalization with overlap
     ethr =  1.00E-02,  avg # of iterations =  9.2

     Threshold (ethr) on eigenvalues was too large:
     Diagonalizing with lowered threshold

     Davidson diagonalization with overlap
     ethr =  1.39E-05,  avg # of iterations =  5.5

     total cpu time spent up to now is        1.8 secs

     total energy              =    -113.01780165 Ry
     Harris-Foulkes estimate   =    -113.01834617 Ry
     estimated scf accuracy    <       0.00126251 Ry

     iteration #  2     ecut=    60.00 Ry     beta= 0.70
     Davidson diagonalization with overlap
     ethr =  1.40E-05,  avg # of iterations =  2.2

     total cpu time spent up to now is        2.1 secs

     total energy              =    -113.01802696 Ry
     Harris-Foulkes estimate   =    -113.01803876 Ry
     estimated scf accuracy    <       0.00010095 Ry

     iteration #  3     ecut=    60.00 Ry     beta= 0.70
     Davidson diagonalization with overlap
     ethr =  1.12E-06,  avg # of iterations =  2.0

     total cpu time spent up to now is        2.4 secs

     total energy              =    -113.01803901 Ry
     Harris-Foulkes estimate   =    -113.01803694 Ry
     estimated scf accuracy    <       0.00000688 Ry

     iteration #  4     ecut=    60.00 Ry     beta= 0.70
     Davidson diagonalization with overlap
     ethr =  7.64E-08,  avg # of iterations =  1.8

     total cpu time spent up to now is        2.7 secs

     total energy              =    -113.01803965 Ry
     Harris-Foulkes estimate   =    -113.01803965 Ry
     estimated scf accuracy    <       0.00000005 Ry

     iteration #  5     ecut=    60.00 Ry     beta= 0.70
     Davidson diagonalization with overlap
     ethr =  5.45E-10,  avg # of iterations =  2.0

     total cpu time spent up to now is        3.0 secs

     End of self-consistent calculation

          k = 0.0000 0.0000 0.0000 (  3781 PWs)   bands (ev):

   -30.1673 -13.6158 -13.6158 -13.6158  -0.2613   6.2619   6.2619   7.1811
     7.1812

          k = 0.0000-0.3333 0.3333 (  3779 PWs)   bands (ev):

   -30.1636 -13.6733 -13.6350 -13.6157   1.0776   4.1199   5.3346   7.0326
     7.2490

          k =-0.3333 0.6667-0.3333 (  3772 PWs)   bands (ev):

   -30.1618 -13.6683 -13.6683 -13.6254   3.1573   3.1573   3.5770   6.5936
     7.3424

          k = 0.0000 0.0000 0.6667 (  3720 PWs)   bands (ev):

   -30.1606 -13.6660 -13.6564 -13.6564   2.2389   4.1503   5.4263   5.4263
     6.0566

     the Fermi energy is     2.1058 ev

!    total energy              =    -113.01803966 Ry
     Harris-Foulkes estimate   =    -113.01803966 Ry
     estimated scf accuracy    <          2.1E-09 Ry

     total all-electron energy =     -1204.256750 Ry

     The total energy is the sum of the following terms:

     one-electron contribution =     -35.41103244 Ry
     hartree contribution      =      18.87890832 Ry
     xc contribution           =     -11.16930121 Ry
     ewald contribution        =     -29.89633971 Ry
     one-center paw contrib.   =     -55.41979281 Ry
     smearing contrib. (-TS)   =      -0.00048182 Ry

     convergence has been achieved in   5 iterations

     Forces acting on atoms (cartesian axes, Ry/au):

     atom    1 type  1   force =     0.00000000    0.00000000    0.00000000

     Total force =     0.000000     Total SCF correction =     0.000000


     Computing stress (Cartesian axis) and pressure

          total   stress  (Ry/bohr**3)                   (kbar)     P=    0.13
   0.00000087   0.00000000  -0.00000000          0.13      0.00     -0.00
   0.00000000   0.00000087   0.00000000          0.00      0.13      0.00
  -0.00000000   0.00000000   0.00000087         -0.00      0.00      0.13


     Writing output data file K.save/

     init_run     :      0.43s CPU      0.46s WALL (       1 calls)
     electrons    :      1.82s CPU      1.88s WALL (       1 calls)
     forces       :      0.11s CPU      0.11s WALL (       1 calls)
     stress       :      0.35s CPU      0.35s WALL (       1 calls)

     Called by init_run:
     wfcinit      :      0.04s CPU      0.04s WALL (       1 calls)
     potinit      :      0.13s CPU      0.14s WALL (       1 calls)
     hinit0       :      0.19s CPU      0.19s WALL (       1 calls)

     Called by electrons:
     c_bands      :      0.80s CPU      0.84s WALL (       6 calls)
     sum_band     :      0.33s CPU      0.34s WALL (       6 calls)
     v_of_rho     :      0.11s CPU      0.11s WALL (       6 calls)
     newd         :      0.17s CPU      0.17s WALL (       6 calls)
     PAW_pot      :      0.54s CPU      0.56s WALL (       6 calls)
     mix_rho      :      0.01s CPU      0.01s WALL (       6 calls)

     Called by c_bands:
     init_us_2    :      0.03s CPU      0.03s WALL (      60 calls)
     cegterg      :      0.77s CPU      0.81s WALL (      24 calls)

     Called by sum_band:
     sum_band:bec :      0.00s CPU      0.00s WALL (      24 calls)
     addusdens    :      0.17s CPU      0.17s WALL (       6 calls)

     Called by *egterg:
     h_psi        :      0.65s CPU      0.68s WALL (     119 calls)
     s_psi        :      0.02s CPU      0.02s WALL (     119 calls)
     g_psi        :      0.00s CPU      0.00s WALL (      91 calls)
     cdiaghg      :      0.03s CPU      0.03s WALL (     111 calls)

     Called by h_psi:
     h_psi:pot    :      0.65s CPU      0.68s WALL (     119 calls)
     h_psi:calbec :      0.03s CPU      0.04s WALL (     119 calls)
     vloc_psi     :      0.59s CPU      0.62s WALL (     119 calls)
     add_vuspsi   :      0.02s CPU      0.02s WALL (     119 calls)

     General routines
     calbec       :      0.06s CPU      0.06s WALL (     163 calls)
     fft          :      0.08s CPU      0.09s WALL (      93 calls)
     ffts         :      0.00s CPU      0.00s WALL (       6 calls)
     fftw         :      0.65s CPU      0.68s WALL (    1510 calls)

     Parallel routines
     fft_scatt_xy :      0.05s CPU      0.05s WALL (    1609 calls)
     fft_scatt_yz :      0.22s CPU      0.23s WALL (    1609 calls)

     PWSCF        :     3.43s CPU         3.56s WALL


   This run was terminated on:   0:44:35   8Apr2024            

=------------------------------------------------------------------------------=
   JOB DONE.
=------------------------------------------------------------------------------=
