
     Program PWSCF v.6.3MaX starts on  8Apr2024 at  0:13:35 

     This program is part of the open-source Quantum ESPRESSO suite
     for quantum simulation of materials; please cite
         "P. Giannozzi et al., J. Phys.:Condens. Matter 21 395502 (2009);
         "P. Giannozzi et al., J. Phys.:Condens. Matter 29 465901 (2017);
          URL http://www.quantum-espresso.org", 
     in publications or presentations arising from this work. More details at
     http://www.quantum-espresso.org/quote

     Parallel version (MPI), running on     5 processors

     MPI processes distributed on     1 nodes
     R & G space division:  proc/nbgrp/npool/nimage =       5
     Waiting for input...
     Reading input from standard input

     Current dimensions of program PWSCF are:
     Max number of different atomic species (ntypx) = 10
     Max number of k-points (npk) =  40000
     Max angular momentum in pseudopotentials (lmaxx) =  3
               file K.pbe-spn-rrkjus_psl.1.0.0.UPF: wavefunction(s)  3S renormalized

     Subspace diagonalization in iterative solution of the eigenvalue problem:
     a serial algorithm will be used


     Parallelization info
     --------------------
     sticks:   dense  smooth     PW     G-vecs:    dense   smooth      PW
     Min          66      66     23                  756      756     153
     Max          67      67     24                  757      757     154
     Sum         333     333    117                 3781     3781     767



     bravais-lattice index     =            3
     lattice parameter (alat)  =       9.8600  a.u.
     unit-cell volume          =     479.2926 (a.u.)^3
     number of atoms/cell      =            1
     number of atomic types    =            1
     number of electrons       =         9.00
     number of Kohn-Sham states=            9
     kinetic-energy cutoff     =      15.0000  Ry
     charge density cutoff     =      60.0000  Ry
     convergence threshold     =      1.0E-08
     mixing beta               =       0.7000
     number of iterations used =            8  plain     mixing
     Exchange-correlation      = PBE ( 1  4  3  4 0 0)

     celldm(1)=   9.860000  celldm(2)=   0.000000  celldm(3)=   0.000000
     celldm(4)=   0.000000  celldm(5)=   0.000000  celldm(6)=   0.000000

     crystal axes: (cart. coord. in units of alat)
               a(1) = (   0.500000   0.500000   0.500000 )  
               a(2) = (  -0.500000   0.500000   0.500000 )  
               a(3) = (  -0.500000  -0.500000   0.500000 )  

     reciprocal axes: (cart. coord. in units 2 pi/alat)
               b(1) = (  1.000000  0.000000  1.000000 )  
               b(2) = ( -1.000000  1.000000  0.000000 )  
               b(3) = (  0.000000 -1.000000  1.000000 )  


     PseudoPot. # 1 for K  read from file:
     /home/lorenzo/pseudos/K/K.pbe-spn-rrkjus_psl.1.0.0.UPF
     MD5 check sum: 897b700350bb708b0563e904352feb48
     Pseudo is Ultrasoft + core correction, Zval =  9.0
     Generated using "atomic" code by A. Dal Corso v.6.2.2
     Using radial grid of 1165 points,  6 beta functions with: 
                l(1) =   0
                l(2) =   0
                l(3) =   1
                l(4) =   1
                l(5) =   2
                l(6) =   2
     Q(r) pseudized with 0 coefficients 


     atomic species   valence    mass     pseudopotential
        K              9.00    39.09830     K ( 1.00)

     48 Sym. Ops., with inversion, found



   Cartesian axes

     site n.     atom                  positions (alat units)
         1           K   tau(   1) = (   0.0000000   0.0000000   0.0000000  )

     number of k points=    16  gaussian smearing, width (Ry)=  0.0100
                       cart. coord. in units 2pi/alat
        k(    1) = (   0.0000000   0.0000000   0.0000000), wk =   0.0092593
        k(    2) = (   0.0000000  -0.1666667   0.1666667), wk =   0.1111111
        k(    3) = (   0.0000000  -0.3333333   0.3333333), wk =   0.1111111
        k(    4) = (   0.0000000   0.5000000  -0.5000000), wk =   0.0555556
        k(    5) = (  -0.1666667  -0.1666667   0.3333333), wk =   0.2222222
        k(    6) = (  -0.1666667   0.6666667  -0.5000000), wk =   0.4444444
        k(    7) = (  -0.3333333   0.6666667  -0.3333333), wk =   0.0740741
        k(    8) = (   0.0000000   0.0000000   0.3333333), wk =   0.0555556
        k(    9) = (   0.0000000  -0.1666667   0.5000000), wk =   0.2222222
        k(   10) = (   0.0000000   0.6666667  -0.3333333), wk =   0.1111111
        k(   11) = (  -0.1666667   0.8333333  -0.3333333), wk =   0.2222222
        k(   12) = (   0.6666667  -0.6666667   0.3333333), wk =   0.0740741
        k(   13) = (   0.5000000  -0.5000000   0.3333333), wk =   0.1111111
        k(   14) = (   0.0000000   0.0000000   0.6666667), wk =   0.0555556
        k(   15) = (   0.0000000   0.8333333  -0.1666667), wk =   0.1111111
        k(   16) = (   0.0000000   0.0000000  -1.0000000), wk =   0.0092593

     Dense  grid:     3781 G-vectors     FFT dimensions: (  24,  24,  24)

     Estimated max dynamical RAM per process >       4.06 MB

     Estimated total dynamical RAM >      20.28 MB

     Check: negative/imaginary core charge=   -0.000363    0.000000

     Initial potential from superposition of free atoms

     starting charge    8.98117, renormalised to    9.00000
     Starting wfcs are    8 randomized atomic wfcs +    1 random wfcs

     total cpu time spent up to now is        0.8 secs

     Self-consistent Calculation

     iteration #  1     ecut=    15.00 Ry     beta= 0.70
     Davidson diagonalization with overlap
     ethr =  1.00E-02,  avg # of iterations =  7.3

     Threshold (ethr) on eigenvalues was too large:
     Diagonalizing with lowered threshold

     Davidson diagonalization with overlap
     ethr =  4.99E-04,  avg # of iterations =  2.4

     total cpu time spent up to now is        1.1 secs

     total energy              =     -58.42736108 Ry
     Harris-Foulkes estimate   =     -58.45372750 Ry
     estimated scf accuracy    <       0.04616536 Ry

     iteration #  2     ecut=    15.00 Ry     beta= 0.70
     Davidson diagonalization with overlap
     ethr =  5.13E-04,  avg # of iterations =  2.2

     total cpu time spent up to now is        1.2 secs

     total energy              =     -58.43669694 Ry
     Harris-Foulkes estimate   =     -58.43691030 Ry
     estimated scf accuracy    <       0.00214353 Ry

     iteration #  3     ecut=    15.00 Ry     beta= 0.70
     Davidson diagonalization with overlap
     ethr =  2.38E-05,  avg # of iterations =  3.6

     total cpu time spent up to now is        1.3 secs

     total energy              =     -58.43689322 Ry
     Harris-Foulkes estimate   =     -58.43684960 Ry
     estimated scf accuracy    <       0.00014110 Ry

     iteration #  4     ecut=    15.00 Ry     beta= 0.70
     Davidson diagonalization with overlap
     ethr =  1.57E-06,  avg # of iterations =  3.1

     total cpu time spent up to now is        1.4 secs

     total energy              =     -58.43689598 Ry
     Harris-Foulkes estimate   =     -58.43689610 Ry
     estimated scf accuracy    <       0.00000026 Ry

     iteration #  5     ecut=    15.00 Ry     beta= 0.70
     Davidson diagonalization with overlap
     ethr =  2.86E-09,  avg # of iterations =  2.6

     total cpu time spent up to now is        1.5 secs

     total energy              =     -58.43689617 Ry
     Harris-Foulkes estimate   =     -58.43689617 Ry
     estimated scf accuracy    <       0.00000001 Ry

     iteration #  6     ecut=    15.00 Ry     beta= 0.70
     Davidson diagonalization with overlap
     ethr =  1.16E-10,  avg # of iterations =  2.3

     total cpu time spent up to now is        1.6 secs

     End of self-consistent calculation

          k = 0.0000 0.0000 0.0000 (   459 PWs)   bands (ev):

   -31.2557 -13.4516 -13.4516 -13.4516  -0.5418   6.6447   6.6447   6.6447
     7.7137

          k = 0.0000-0.1667 0.1667 (   471 PWs)   bands (ev):

   -31.2546 -13.5780 -13.5065 -13.4996  -0.1837   5.7614   6.1447   6.8934
     7.3698

          k = 0.0000-0.3333 0.3333 (   474 PWs)   bands (ev):

   -31.2524 -13.6160 -13.5948 -13.5115   0.8234   4.0290   5.5017   7.3796
     7.4858

          k = 0.0000 0.5000-0.5000 (   476 PWs)   bands (ev):

   -31.2513 -13.6385 -13.6357 -13.5075   2.1723   2.4547   5.2576   7.1292
     7.7784

          k =-0.1667-0.1667 0.3333 (   473 PWs)   bands (ev):

   -31.2530 -13.6058 -13.5459 -13.5264   0.5024   4.8003   5.2462   7.1569
     7.1929

          k =-0.1667 0.6667-0.5000 (   473 PWs)   bands (ev):

   -31.2513 -13.6320 -13.5676 -13.5447   1.7506   3.3251   4.6835   6.7508
     7.6226

          k =-0.3333 0.6667-0.3333 (   475 PWs)   bands (ev):

   -31.2508 -13.6141 -13.6141 -13.5756   3.0066   3.0066   3.3863   6.5386
     7.8165

          k = 0.0000 0.0000 0.3333 (   474 PWs)   bands (ev):

   -31.2536 -13.5952 -13.5388 -13.5388   0.1641   5.8013   5.9050   5.9050
     7.0740

          k = 0.0000-0.1667 0.5000 (   462 PWs)   bands (ev):

   -31.2515 -13.5961 -13.4875 -13.4712   1.1474   4.1995   5.4912   5.9374
     7.6101

          k = 0.0000 0.6667-0.3333 (   472 PWs)   bands (ev):

   -31.2505 -13.6428 -13.5577 -13.5474   2.5343   2.6197   5.2889   5.7024
     7.6480

          k =-0.1667 0.8333-0.3333 (   470 PWs)   bands (ev):

   -31.2501 -13.6042 -13.6004 -13.5301   2.3148   3.5512   4.2612   6.3617
     6.9287

          k = 0.6667-0.6667 0.3333 (   468 PWs)   bands (ev):

   -31.2517 -13.5936 -13.5298 -13.5298   1.4629   4.1903   4.1903   6.1477
     8.2017

          k = 0.5000-0.5000 0.3333 (   470 PWs)   bands (ev):

   -31.2511 -13.5838 -13.5669 -13.5604   2.8318   2.8734   3.9829   5.4676
     8.3301

          k = 0.0000 0.0000 0.6667 (   458 PWs)   bands (ev):

   -31.2497 -13.5221 -13.5221 -13.5021   2.0307   4.1375   5.3930   5.3930
     6.0364

          k = 0.0000 0.8333-0.1667 (   470 PWs)   bands (ev):

   -31.2488 -13.6426 -13.6134 -13.5307   3.1043   3.3383   4.8916   5.3154
     6.1705

          k = 0.0000 0.0000-1.0000 (   466 PWs)   bands (ev):

   -31.2480 -13.5850 -13.5850 -13.5850   3.5619   3.5620   5.3139   5.3139
     5.3139

     the Fermi energy is     1.7355 ev

!    total energy              =     -58.43689617 Ry
     Harris-Foulkes estimate   =     -58.43689617 Ry
     estimated scf accuracy    <          4.1E-11 Ry

     The total energy is the sum of the following terms:

     one-electron contribution =     -35.78560723 Ry
     hartree contribution      =      18.37194091 Ry
     xc contribution           =     -11.12564642 Ry
     ewald contribution        =     -29.89633977 Ry
     smearing contrib. (-TS)   =      -0.00124366 Ry

     convergence has been achieved in   6 iterations

     Forces acting on atoms (cartesian axes, Ry/au):

     atom    1 type  1   force =     0.00000000    0.00000000    0.00000000

     Total force =     0.000000     Total SCF correction =     0.000000


     Computing stress (Cartesian axis) and pressure

          total   stress  (Ry/bohr**3)                   (kbar)     P= -285.00
  -0.00193737  -0.00000000   0.00000000       -285.00     -0.00      0.00
  -0.00000000  -0.00193737  -0.00000000         -0.00   -285.00     -0.00
   0.00000000  -0.00000000  -0.00193737          0.00     -0.00   -285.00


     Writing output data file K.save/

     init_run     :      0.12s CPU      0.12s WALL (       1 calls)
     electrons    :      0.73s CPU      0.77s WALL (       1 calls)
     forces       :      0.02s CPU      0.02s WALL (       1 calls)
     stress       :      0.06s CPU      0.06s WALL (       1 calls)

     Called by init_run:
     wfcinit      :      0.03s CPU      0.03s WALL (       1 calls)
     potinit      :      0.01s CPU      0.01s WALL (       1 calls)
     hinit0       :      0.08s CPU      0.08s WALL (       1 calls)

     Called by electrons:
     c_bands      :      0.57s CPU      0.61s WALL (       7 calls)
     sum_band     :      0.12s CPU      0.12s WALL (       7 calls)
     v_of_rho     :      0.02s CPU      0.02s WALL (       7 calls)
     newd         :      0.03s CPU      0.03s WALL (       7 calls)
     mix_rho      :      0.00s CPU      0.00s WALL (       7 calls)

     Called by c_bands:
     init_us_2    :      0.02s CPU      0.02s WALL (     272 calls)
     cegterg      :      0.55s CPU      0.58s WALL (     112 calls)

     Called by sum_band:
     sum_band:bec :      0.00s CPU      0.00s WALL (     112 calls)
     addusdens    :      0.02s CPU      0.03s WALL (       7 calls)

     Called by *egterg:
     h_psi        :      0.40s CPU      0.42s WALL (     504 calls)
     s_psi        :      0.01s CPU      0.01s WALL (     504 calls)
     g_psi        :      0.00s CPU      0.00s WALL (     376 calls)
     cdiaghg      :      0.09s CPU      0.09s WALL (     472 calls)

     Called by h_psi:
     h_psi:pot    :      0.40s CPU      0.42s WALL (     504 calls)
     h_psi:calbec :      0.02s CPU      0.02s WALL (     504 calls)
     vloc_psi     :      0.36s CPU      0.38s WALL (     504 calls)
     add_vuspsi   :      0.01s CPU      0.01s WALL (     504 calls)

     General routines
     calbec       :      0.03s CPU      0.03s WALL (     696 calls)
     fft          :      0.01s CPU      0.01s WALL (     104 calls)
     ffts         :      0.00s CPU      0.00s WALL (       7 calls)
     fftw         :      0.40s CPU      0.42s WALL (    6560 calls)

     Parallel routines
     fft_scatt_xy :      0.04s CPU      0.04s WALL (    6671 calls)
     fft_scatt_yz :      0.11s CPU      0.12s WALL (    6671 calls)

     PWSCF        :     1.61s CPU         1.70s WALL


   This run was terminated on:   0:13:37   8Apr2024            

=------------------------------------------------------------------------------=
   JOB DONE.
=------------------------------------------------------------------------------=
