
     Program PWSCF v.6.3MaX starts on  8Apr2024 at  0:13:40 

     This program is part of the open-source Quantum ESPRESSO suite
     for quantum simulation of materials; please cite
         "P. Giannozzi et al., J. Phys.:Condens. Matter 21 395502 (2009);
         "P. Giannozzi et al., J. Phys.:Condens. Matter 29 465901 (2017);
          URL http://www.quantum-espresso.org", 
     in publications or presentations arising from this work. More details at
     http://www.quantum-espresso.org/quote

     Parallel version (MPI), running on     5 processors

     MPI processes distributed on     1 nodes
     R & G space division:  proc/nbgrp/npool/nimage =       5
     Waiting for input...
     Reading input from standard input

     Current dimensions of program PWSCF are:
     Max number of different atomic species (ntypx) = 10
     Max number of k-points (npk) =  40000
     Max angular momentum in pseudopotentials (lmaxx) =  3
               file K.pz-spn-rrkjus_psl.1.0.0.UPF: wavefunction(s)  3S renormalized

     Subspace diagonalization in iterative solution of the eigenvalue problem:
     a serial algorithm will be used


     Parallelization info
     --------------------
     sticks:   dense  smooth     PW     G-vecs:    dense   smooth      PW
     Min          66      66     23                  756      756     153
     Max          67      67     24                  757      757     154
     Sum         333     333    117                 3781     3781     767



     bravais-lattice index     =            3
     lattice parameter (alat)  =       9.8600  a.u.
     unit-cell volume          =     479.2926 (a.u.)^3
     number of atoms/cell      =            1
     number of atomic types    =            1
     number of electrons       =         9.00
     number of Kohn-Sham states=            9
     kinetic-energy cutoff     =      15.0000  Ry
     charge density cutoff     =      60.0000  Ry
     convergence threshold     =      1.0E-08
     mixing beta               =       0.7000
     number of iterations used =            8  plain     mixing
     Exchange-correlation      = LDA ( 1  1  0  0 0 0)

     celldm(1)=   9.860000  celldm(2)=   0.000000  celldm(3)=   0.000000
     celldm(4)=   0.000000  celldm(5)=   0.000000  celldm(6)=   0.000000

     crystal axes: (cart. coord. in units of alat)
               a(1) = (   0.500000   0.500000   0.500000 )  
               a(2) = (  -0.500000   0.500000   0.500000 )  
               a(3) = (  -0.500000  -0.500000   0.500000 )  

     reciprocal axes: (cart. coord. in units 2 pi/alat)
               b(1) = (  1.000000  0.000000  1.000000 )  
               b(2) = ( -1.000000  1.000000  0.000000 )  
               b(3) = (  0.000000 -1.000000  1.000000 )  


     PseudoPot. # 1 for K  read from file:
     /home/lorenzo/pseudos/K/K.pz-spn-rrkjus_psl.1.0.0.UPF
     MD5 check sum: af434a66a3b91719abff201b8f79bb09
     Pseudo is Ultrasoft + core correction, Zval =  9.0
     Generated using "atomic" code by A. Dal Corso v.6.2.2
     Using radial grid of 1165 points,  6 beta functions with: 
                l(1) =   0
                l(2) =   0
                l(3) =   1
                l(4) =   1
                l(5) =   2
                l(6) =   2
     Q(r) pseudized with 0 coefficients 


     atomic species   valence    mass     pseudopotential
        K              9.00    39.09830     K ( 1.00)

     48 Sym. Ops., with inversion, found



   Cartesian axes

     site n.     atom                  positions (alat units)
         1           K   tau(   1) = (   0.0000000   0.0000000   0.0000000  )

     number of k points=    16  gaussian smearing, width (Ry)=  0.0100
                       cart. coord. in units 2pi/alat
        k(    1) = (   0.0000000   0.0000000   0.0000000), wk =   0.0092593
        k(    2) = (   0.0000000  -0.1666667   0.1666667), wk =   0.1111111
        k(    3) = (   0.0000000  -0.3333333   0.3333333), wk =   0.1111111
        k(    4) = (   0.0000000   0.5000000  -0.5000000), wk =   0.0555556
        k(    5) = (  -0.1666667  -0.1666667   0.3333333), wk =   0.2222222
        k(    6) = (  -0.1666667   0.6666667  -0.5000000), wk =   0.4444444
        k(    7) = (  -0.3333333   0.6666667  -0.3333333), wk =   0.0740741
        k(    8) = (   0.0000000   0.0000000   0.3333333), wk =   0.0555556
        k(    9) = (   0.0000000  -0.1666667   0.5000000), wk =   0.2222222
        k(   10) = (   0.0000000   0.6666667  -0.3333333), wk =   0.1111111
        k(   11) = (  -0.1666667   0.8333333  -0.3333333), wk =   0.2222222
        k(   12) = (   0.6666667  -0.6666667   0.3333333), wk =   0.0740741
        k(   13) = (   0.5000000  -0.5000000   0.3333333), wk =   0.1111111
        k(   14) = (   0.0000000   0.0000000   0.6666667), wk =   0.0555556
        k(   15) = (   0.0000000   0.8333333  -0.1666667), wk =   0.1111111
        k(   16) = (   0.0000000   0.0000000  -1.0000000), wk =   0.0092593

     Dense  grid:     3781 G-vectors     FFT dimensions: (  24,  24,  24)

     Estimated max dynamical RAM per process >       4.06 MB

     Estimated total dynamical RAM >      20.28 MB

     Check: negative/imaginary core charge=   -0.000370    0.000000

     Initial potential from superposition of free atoms

     starting charge    8.98437, renormalised to    9.00000
     Starting wfcs are    8 randomized atomic wfcs +    1 random wfcs

     total cpu time spent up to now is        0.8 secs

     Self-consistent Calculation

     iteration #  1     ecut=    15.00 Ry     beta= 0.70
     Davidson diagonalization with overlap
     ethr =  1.00E-02,  avg # of iterations =  7.1

     Threshold (ethr) on eigenvalues was too large:
     Diagonalizing with lowered threshold

     Davidson diagonalization with overlap
     ethr =  4.84E-04,  avg # of iterations =  2.8

     total cpu time spent up to now is        1.1 secs

     total energy              =     -58.34326262 Ry
     Harris-Foulkes estimate   =     -58.37295862 Ry
     estimated scf accuracy    <       0.04459489 Ry

     iteration #  2     ecut=    15.00 Ry     beta= 0.70
     Davidson diagonalization with overlap
     ethr =  4.95E-04,  avg # of iterations =  2.4

     total cpu time spent up to now is        1.2 secs

     total energy              =     -58.35208619 Ry
     Harris-Foulkes estimate   =     -58.35280728 Ry
     estimated scf accuracy    <       0.00220680 Ry

     iteration #  3     ecut=    15.00 Ry     beta= 0.70
     Davidson diagonalization with overlap
     ethr =  2.45E-05,  avg # of iterations =  3.9

     total cpu time spent up to now is        1.3 secs

     total energy              =     -58.35226429 Ry
     Harris-Foulkes estimate   =     -58.35227891 Ry
     estimated scf accuracy    <       0.00013538 Ry

     iteration #  4     ecut=    15.00 Ry     beta= 0.70
     Davidson diagonalization with overlap
     ethr =  1.50E-06,  avg # of iterations =  2.8

     total cpu time spent up to now is        1.4 secs

     total energy              =     -58.35226623 Ry
     Harris-Foulkes estimate   =     -58.35226631 Ry
     estimated scf accuracy    <       0.00000019 Ry

     iteration #  5     ecut=    15.00 Ry     beta= 0.70
     Davidson diagonalization with overlap
     ethr =  2.15E-09,  avg # of iterations =  2.6

     total cpu time spent up to now is        1.5 secs

     total energy              =     -58.35226639 Ry
     Harris-Foulkes estimate   =     -58.35226640 Ry
     estimated scf accuracy    <       0.00000001 Ry

     iteration #  6     ecut=    15.00 Ry     beta= 0.70
     Davidson diagonalization with overlap
     ethr =  1.19E-10,  avg # of iterations =  2.0

     total cpu time spent up to now is        1.6 secs

     End of self-consistent calculation

          k = 0.0000 0.0000 0.0000 (   459 PWs)   bands (ev):

   -31.1093 -13.5349 -13.5349 -13.5349  -0.4272   6.5010   6.5010   6.5010
     7.6265

          k = 0.0000-0.1667 0.1667 (   471 PWs)   bands (ev):

   -31.1085 -13.6613 -13.5901 -13.5830  -0.0675   5.7511   6.0566   6.7577
     7.2757

          k = 0.0000-0.3333 0.3333 (   474 PWs)   bands (ev):

   -31.1065 -13.6991 -13.6784 -13.5949   0.9424   4.1262   5.4571   7.2695
     7.5052

          k = 0.0000 0.5000-0.5000 (   476 PWs)   bands (ev):

   -31.1054 -13.7216 -13.7194 -13.5911   2.2420   2.6344   5.2244   7.0231
     7.9667

          k =-0.1667-0.1667 0.3333 (   473 PWs)   bands (ev):

   -31.1069 -13.6892 -13.6293 -13.6099   0.6216   4.8589   5.2532   7.0817
     7.1122

          k =-0.1667 0.6667-0.5000 (   473 PWs)   bands (ev):

   -31.1054 -13.7151 -13.6511 -13.6281   1.8705   3.4444   4.7233   6.6949
     7.5521

          k =-0.3333 0.6667-0.3333 (   475 PWs)   bands (ev):

   -31.1049 -13.6974 -13.6974 -13.6590   3.1564   3.1564   3.4153   6.4796
     7.6853

          k = 0.0000 0.0000 0.3333 (   474 PWs)   bands (ev):

   -31.1076 -13.6784 -13.6223 -13.6223   0.2825   5.8616   5.8677   5.8677
     6.9112

          k = 0.0000-0.1667 0.5000 (   462 PWs)   bands (ev):

   -31.1053 -13.6792 -13.5708 -13.5545   1.2702   4.2969   5.4925   5.9657
     7.5063

          k = 0.0000 0.6667-0.3333 (   472 PWs)   bands (ev):

   -31.1045 -13.7259 -13.6413 -13.6308   2.6127   2.7896   5.2965   5.7258
     7.5594

          k =-0.1667 0.8333-0.3333 (   470 PWs)   bands (ev):

   -31.1041 -13.6876 -13.6836 -13.6136   2.4445   3.6781   4.3136   6.3689
     6.8741

          k = 0.6667-0.6667 0.3333 (   468 PWs)   bands (ev):

   -31.1056 -13.6766 -13.6133 -13.6133   1.5856   4.2745   4.2745   6.1529
     8.0092

          k = 0.5000-0.5000 0.3333 (   470 PWs)   bands (ev):

   -31.1051 -13.6673 -13.6502 -13.6436   2.9652   2.9903   4.0738   5.4491
     8.1195

          k = 0.0000 0.0000 0.6667 (   458 PWs)   bands (ev):

   -31.1034 -13.6055 -13.6055 -13.5851   2.1616   4.2400   5.4602   5.4602
     6.0269

          k = 0.0000 0.8333-0.1667 (   470 PWs)   bands (ev):

   -31.1029 -13.7258 -13.6969 -13.6140   3.2469   3.4486   4.9312   5.4027
     6.2282

          k = 0.0000 0.0000-1.0000 (   466 PWs)   bands (ev):

   -31.1019 -13.6682 -13.6682 -13.6682   3.6727   5.4364   5.4364   5.4364
     7.1977

     the Fermi energy is     1.8554 ev

!    total energy              =     -58.35226639 Ry
     Harris-Foulkes estimate   =     -58.35226639 Ry
     estimated scf accuracy    <          3.3E-11 Ry

     The total energy is the sum of the following terms:

     one-electron contribution =     -35.88830243 Ry
     hartree contribution      =      18.34281840 Ry
     xc contribution           =     -10.90919896 Ry
     ewald contribution        =     -29.89633977 Ry
     smearing contrib. (-TS)   =      -0.00124363 Ry

     convergence has been achieved in   6 iterations

     Forces acting on atoms (cartesian axes, Ry/au):

     atom    1 type  1   force =     0.00000000    0.00000000    0.00000000

     Total force =     0.000000     Total SCF correction =     0.000000


     Computing stress (Cartesian axis) and pressure

          total   stress  (Ry/bohr**3)                   (kbar)     P= -329.70
  -0.00224124   0.00000000  -0.00000000       -329.70      0.00     -0.00
   0.00000000  -0.00224124   0.00000000          0.00   -329.70      0.00
  -0.00000000   0.00000000  -0.00224124         -0.00      0.00   -329.70


     Writing output data file K.save/

     init_run     :      0.14s CPU      0.15s WALL (       1 calls)
     electrons    :      0.72s CPU      0.77s WALL (       1 calls)
     forces       :      0.02s CPU      0.02s WALL (       1 calls)
     stress       :      0.05s CPU      0.05s WALL (       1 calls)

     Called by init_run:
     wfcinit      :      0.03s CPU      0.03s WALL (       1 calls)
     potinit      :      0.00s CPU      0.00s WALL (       1 calls)
     hinit0       :      0.10s CPU      0.10s WALL (       1 calls)

     Called by electrons:
     c_bands      :      0.58s CPU      0.61s WALL (       7 calls)
     sum_band     :      0.12s CPU      0.12s WALL (       7 calls)
     v_of_rho     :      0.00s CPU      0.00s WALL (       7 calls)
     newd         :      0.03s CPU      0.03s WALL (       7 calls)
     mix_rho      :      0.00s CPU      0.00s WALL (       7 calls)

     Called by c_bands:
     init_us_2    :      0.02s CPU      0.02s WALL (     272 calls)
     cegterg      :      0.55s CPU      0.59s WALL (     112 calls)

     Called by sum_band:
     sum_band:bec :      0.00s CPU      0.00s WALL (     112 calls)
     addusdens    :      0.03s CPU      0.03s WALL (       7 calls)

     Called by *egterg:
     h_psi        :      0.41s CPU      0.43s WALL (     505 calls)
     s_psi        :      0.01s CPU      0.01s WALL (     505 calls)
     g_psi        :      0.00s CPU      0.00s WALL (     377 calls)
     cdiaghg      :      0.09s CPU      0.09s WALL (     473 calls)

     Called by h_psi:
     h_psi:pot    :      0.41s CPU      0.43s WALL (     505 calls)
     h_psi:calbec :      0.02s CPU      0.02s WALL (     505 calls)
     vloc_psi     :      0.37s CPU      0.39s WALL (     505 calls)
     add_vuspsi   :      0.01s CPU      0.01s WALL (     505 calls)

     General routines
     calbec       :      0.03s CPU      0.04s WALL (     697 calls)
     fft          :      0.01s CPU      0.01s WALL (      38 calls)
     ffts         :      0.00s CPU      0.00s WALL (       7 calls)
     fftw         :      0.41s CPU      0.43s WALL (    6588 calls)

     Parallel routines
     fft_scatt_xy :      0.04s CPU      0.04s WALL (    6633 calls)
     fft_scatt_yz :      0.12s CPU      0.12s WALL (    6633 calls)

     PWSCF        :     1.65s CPU         1.74s WALL


   This run was terminated on:   0:13:41   8Apr2024            

=------------------------------------------------------------------------------=
   JOB DONE.
=------------------------------------------------------------------------------=
