
     Program PWSCF v.6.3MaX starts on  8Apr2024 at  0:59:13 

     This program is part of the open-source Quantum ESPRESSO suite
     for quantum simulation of materials; please cite
         "P. Giannozzi et al., J. Phys.:Condens. Matter 21 395502 (2009);
         "P. Giannozzi et al., J. Phys.:Condens. Matter 29 465901 (2017);
          URL http://www.quantum-espresso.org", 
     in publications or presentations arising from this work. More details at
     http://www.quantum-espresso.org/quote

     Parallel version (MPI), running on     5 processors

     MPI processes distributed on     1 nodes
     R & G space division:  proc/nbgrp/npool/nimage =       5
     Waiting for input...
     Reading input from standard input

     Current dimensions of program PWSCF are:
     Max number of different atomic species (ntypx) = 10
     Max number of k-points (npk) =  40000
     Max angular momentum in pseudopotentials (lmaxx) =  3
               file K.pbe-spn-rrkjus_psl.1.0.0.UPF: wavefunction(s)  3S renormalized

     Subspace diagonalization in iterative solution of the eigenvalue problem:
     a serial algorithm will be used


     Parallelization info
     --------------------
     sticks:   dense  smooth     PW     G-vecs:    dense   smooth      PW
     Min         307     307     87                 7577     7577    1155
     Max         307     307     88                 7578     7578    1155
     Sum        1535    1535    437                37887    37887    5775



     bravais-lattice index     =            3
     lattice parameter (alat)  =       9.8600  a.u.
     unit-cell volume          =     479.2926 (a.u.)^3
     number of atoms/cell      =            1
     number of atomic types    =            1
     number of electrons       =         9.00
     number of Kohn-Sham states=            9
     kinetic-energy cutoff     =      70.0000  Ry
     charge density cutoff     =     280.0000  Ry
     convergence threshold     =      1.0E-08
     mixing beta               =       0.7000
     number of iterations used =            8  plain     mixing
     Exchange-correlation      = PBE ( 1  4  3  4 0 0)

     celldm(1)=   9.860000  celldm(2)=   0.000000  celldm(3)=   0.000000
     celldm(4)=   0.000000  celldm(5)=   0.000000  celldm(6)=   0.000000

     crystal axes: (cart. coord. in units of alat)
               a(1) = (   0.500000   0.500000   0.500000 )  
               a(2) = (  -0.500000   0.500000   0.500000 )  
               a(3) = (  -0.500000  -0.500000   0.500000 )  

     reciprocal axes: (cart. coord. in units 2 pi/alat)
               b(1) = (  1.000000  0.000000  1.000000 )  
               b(2) = ( -1.000000  1.000000  0.000000 )  
               b(3) = (  0.000000 -1.000000  1.000000 )  


     PseudoPot. # 1 for K  read from file:
     /home/lorenzo/pseudos/K/K.pbe-spn-rrkjus_psl.1.0.0.UPF
     MD5 check sum: 897b700350bb708b0563e904352feb48
     Pseudo is Ultrasoft + core correction, Zval =  9.0
     Generated using "atomic" code by A. Dal Corso v.6.2.2
     Using radial grid of 1165 points,  6 beta functions with: 
                l(1) =   0
                l(2) =   0
                l(3) =   1
                l(4) =   1
                l(5) =   2
                l(6) =   2
     Q(r) pseudized with 0 coefficients 


     atomic species   valence    mass     pseudopotential
        K              9.00    39.09830     K ( 1.00)

     48 Sym. Ops., with inversion, found



   Cartesian axes

     site n.     atom                  positions (alat units)
         1           K   tau(   1) = (   0.0000000   0.0000000   0.0000000  )

     number of k points=    35  gaussian smearing, width (Ry)=  0.0100
                       cart. coord. in units 2pi/alat
        k(    1) = (   0.0000000   0.0000000   0.0000000), wk =   0.0027435
        k(    2) = (   0.0000000  -0.1111111   0.1111111), wk =   0.0329218
        k(    3) = (   0.0000000  -0.2222222   0.2222222), wk =   0.0329218
        k(    4) = (   0.0000000  -0.3333333   0.3333333), wk =   0.0329218
        k(    5) = (   0.0000000  -0.4444444   0.4444444), wk =   0.0329218
        k(    6) = (  -0.1111111  -0.1111111   0.2222222), wk =   0.0658436
        k(    7) = (  -0.1111111  -0.2222222   0.3333333), wk =   0.1316872
        k(    8) = (  -0.1111111  -0.3333333   0.4444444), wk =   0.1316872
        k(    9) = (  -0.1111111   0.5555556  -0.4444444), wk =   0.0658436
        k(   10) = (  -0.2222222  -0.2222222   0.4444444), wk =   0.0658436
        k(   11) = (  -0.2222222   0.6666667  -0.4444444), wk =   0.1316872
        k(   12) = (  -0.3333333   0.6666667  -0.3333333), wk =   0.0219479
        k(   13) = (   0.0000000   0.0000000   0.2222222), wk =   0.0164609
        k(   14) = (   0.0000000  -0.1111111   0.3333333), wk =   0.0658436
        k(   15) = (   0.0000000  -0.2222222   0.4444444), wk =   0.0658436
        k(   16) = (   0.0000000  -0.3333333   0.5555556), wk =   0.0658436
        k(   17) = (  -0.1111111  -0.1111111   0.4444444), wk =   0.0658436
        k(   18) = (  -0.1111111  -0.2222222   0.5555556), wk =   0.1316872
        k(   19) = (  -0.1111111   0.6666667  -0.3333333), wk =   0.0658436
        k(   20) = (  -0.2222222   0.2222222   0.2222222), wk =   0.0219479
        k(   21) = (  -0.2222222   0.7777778  -0.3333333), wk =   0.0658436
        k(   22) = (  -0.3333333   0.3333333   0.2222222), wk =   0.0658436
        k(   23) = (   0.5555556  -0.5555556   0.2222222), wk =   0.0658436
        k(   24) = (   0.5555556  -0.6666667   0.3333333), wk =   0.0658436
        k(   25) = (   0.4444444  -0.5555556   0.3333333), wk =   0.0658436
        k(   26) = (   0.0000000   0.0000000   0.4444444), wk =   0.0164609
        k(   27) = (   0.0000000  -0.1111111   0.5555556), wk =   0.0658436
        k(   28) = (   0.0000000  -0.2222222   0.6666667), wk =   0.0658436
        k(   29) = (  -0.1111111  -0.1111111   0.6666667), wk =   0.0658436
        k(   30) = (  -0.1111111   0.7777778  -0.2222222), wk =   0.0658436
        k(   31) = (   0.5555556  -0.5555556   0.4444444), wk =   0.0219479
        k(   32) = (   0.0000000   0.0000000   0.6666667), wk =   0.0164609
        k(   33) = (   0.0000000  -0.1111111   0.7777778), wk =   0.0658436
        k(   34) = (  -0.1111111   0.8888889  -0.1111111), wk =   0.0219479
        k(   35) = (   0.0000000   0.0000000   0.8888889), wk =   0.0164609

     Dense  grid:    37887 G-vectors     FFT dimensions: (  45,  45,  45)

     Estimated max dynamical RAM per process >      34.70 MB

     Estimated total dynamical RAM >     173.49 MB

     Check: negative/imaginary core charge=   -0.000003    0.000000

     Initial potential from superposition of free atoms

     starting charge    8.98117, renormalised to    9.00000
     Starting wfcs are    8 randomized atomic wfcs +    1 random wfcs

     total cpu time spent up to now is        1.4 secs

     Self-consistent Calculation

     iteration #  1     ecut=    70.00 Ry     beta= 0.70
     Davidson diagonalization with overlap
     ethr =  1.00E-02,  avg # of iterations =  6.5

     Threshold (ethr) on eigenvalues was too large:
     Diagonalizing with lowered threshold

     Davidson diagonalization with overlap
     ethr =  1.43E-05,  avg # of iterations =  6.5

     total cpu time spent up to now is        5.4 secs

     total energy              =     -58.77394347 Ry
     Harris-Foulkes estimate   =     -58.77447319 Ry
     estimated scf accuracy    <       0.00127543 Ry

     iteration #  2     ecut=    70.00 Ry     beta= 0.70
     Davidson diagonalization with overlap
     ethr =  1.42E-05,  avg # of iterations =  2.3

     total cpu time spent up to now is        7.5 secs

     total energy              =     -58.77417855 Ry
     Harris-Foulkes estimate   =     -58.77418087 Ry
     estimated scf accuracy    <       0.00010210 Ry

     iteration #  3     ecut=    70.00 Ry     beta= 0.70
     Davidson diagonalization with overlap
     ethr =  1.13E-06,  avg # of iterations =  2.2

     total cpu time spent up to now is        8.8 secs

     total energy              =     -58.77418857 Ry
     Harris-Foulkes estimate   =     -58.77418587 Ry
     estimated scf accuracy    <       0.00000696 Ry

     iteration #  4     ecut=    70.00 Ry     beta= 0.70
     Davidson diagonalization with overlap
     ethr =  7.73E-08,  avg # of iterations =  1.7

     total cpu time spent up to now is        9.9 secs

     total energy              =     -58.77418922 Ry
     Harris-Foulkes estimate   =     -58.77418921 Ry
     estimated scf accuracy    <       0.00000005 Ry

     iteration #  5     ecut=    70.00 Ry     beta= 0.70
     Davidson diagonalization with overlap
     ethr =  5.43E-10,  avg # of iterations =  2.4

     total cpu time spent up to now is       11.3 secs

     End of self-consistent calculation

          k = 0.0000 0.0000 0.0000 (  4753 PWs)   bands (ev):

   -30.1652 -13.6139 -13.6139 -13.6139  -0.2614   6.2636   6.2636   7.1811
     7.1813

          k = 0.0000-0.1111 0.1111 (  4749 PWs)   bands (ev):

   -30.1646 -13.6230 -13.6169 -13.6139  -0.1039   6.0105   6.0706   6.3897
     6.9676

          k = 0.0000-0.2222 0.2222 (  4753 PWs)   bands (ev):

   -30.1632 -13.6458 -13.6245 -13.6139   0.3554   5.1572   5.6807   6.7609
     6.9769

          k = 0.0000-0.3333 0.3333 (  4762 PWs)   bands (ev):

   -30.1615 -13.6715 -13.6331 -13.6138   1.0774   4.1199   5.3357   7.0335
     7.2490

          k = 0.0000-0.4444 0.4444 (  4730 PWs)   bands (ev):

   -30.1605 -13.6880 -13.6388 -13.6138   1.9917   3.0630   5.1451   6.9039
     7.5602

          k =-0.1111-0.1111 0.2222 (  4745 PWs)   bands (ev):

   -30.1636 -13.6387 -13.6202 -13.6161   0.2046   5.5223   5.6927   6.6173
     6.8005

          k =-0.1111-0.2222 0.3333 (  4744 PWs)   bands (ev):

   -30.1621 -13.6610 -13.6294 -13.6169   0.7965   4.6503   5.2738   6.8305
     7.0160

          k =-0.1111-0.3333 0.4444 (  4749 PWs)   bands (ev):

   -30.1607 -13.6799 -13.6385 -13.6171   1.6203   3.6475   5.0022   6.7739
     7.4245

          k =-0.1111 0.5556-0.4444 (  4736 PWs)   bands (ev):

   -30.1602 -13.6872 -13.6421 -13.6172   2.5096   2.7032   4.9076   6.6540
     7.8988

          k =-0.2222-0.2222 0.4444 (  4743 PWs)   bands (ev):

   -30.1608 -13.6734 -13.6394 -13.6207   1.4931   4.1233   4.6545   6.9387
     6.9440

          k =-0.2222 0.6667-0.4444 (  4736 PWs)   bands (ev):

   -30.1600 -13.6784 -13.6502 -13.6219   2.3795   3.3351   4.2972   6.6265
     7.2540

          k =-0.3333 0.6667-0.3333 (  4724 PWs)   bands (ev):

   -30.1597 -13.6665 -13.6665 -13.6235   3.1569   3.1569   3.5777   6.5950
     7.3433

          k = 0.0000 0.0000 0.2222 (  4753 PWs)   bands (ev):

   -30.1641 -13.6254 -13.6200 -13.6200   0.0516   5.9741   5.9741   6.3458
     6.4472

          k = 0.0000-0.1111 0.3333 (  4737 PWs)   bands (ev):

   -30.1626 -13.6455 -13.6277 -13.6212   0.5050   5.2035   5.6668   6.2131
     6.7772

          k = 0.0000-0.2222 0.4444 (  4726 PWs)   bands (ev):

   -30.1610 -13.6698 -13.6365 -13.6207   1.2180   4.1890   5.3626   6.2627
     7.3528

          k = 0.0000-0.3333 0.5556 (  4727 PWs)   bands (ev):

   -30.1600 -13.6856 -13.6422 -13.6204   2.1237   3.1563   5.1892   6.1748
     7.4851

          k =-0.1111-0.1111 0.4444 (  4743 PWs)   bands (ev):

   -30.1612 -13.6614 -13.6368 -13.6256   1.0810   4.6160   5.2404   6.1652
     7.0907

          k =-0.1111-0.2222 0.5556 (  4743 PWs)   bands (ev):

   -30.1599 -13.6766 -13.6467 -13.6261   1.8821   3.7888   4.8515   6.2365
     7.1104

          k =-0.1111 0.6667-0.3333 (  4731 PWs)   bands (ev):

   -30.1594 -13.6827 -13.6508 -13.6260   2.8123   2.8412   4.7139   6.1743
     7.2763

          k =-0.2222 0.2222 0.2222 (  4759 PWs)   bands (ev):

   -30.1625 -13.6576 -13.6210 -13.6210   0.6524   5.0367   5.0367   6.8547
     7.2420

          k =-0.2222 0.7778-0.3333 (  4737 PWs)   bands (ev):

   -30.1592 -13.6752 -13.6611 -13.6276   2.7154   3.4542   4.0401   6.6390
     6.8906

          k =-0.3333 0.3333 0.2222 (  4747 PWs)   bands (ev):

   -30.1612 -13.6728 -13.6327 -13.6218   1.3589   4.1943   4.6983   6.7953
     7.3776

          k = 0.5556-0.5556 0.2222 (  4765 PWs)   bands (ev):

   -30.1603 -13.6801 -13.6428 -13.6223   2.2571   3.2480   4.5269   6.4481
     7.5909

          k = 0.5556-0.6667 0.3333 (  4747 PWs)   bands (ev):

   -30.1604 -13.6743 -13.6423 -13.6281   2.1427   3.7948   4.1228   6.1702
     7.5116

          k = 0.4444-0.5556 0.3333 (  4748 PWs)   bands (ev):

   -30.1601 -13.6700 -13.6520 -13.6296   3.0078   3.0755   3.9301   5.8702
     7.6144

          k = 0.0000 0.0000 0.4444 (  4717 PWs)   bands (ev):

   -30.1613 -13.6484 -13.6358 -13.6358   0.9406   5.0915   5.5706   5.5706
     6.9604

          k = 0.0000-0.1111 0.5556 (  4742 PWs)   bands (ev):

   -30.1599 -13.6659 -13.6449 -13.6379   1.6223   4.3136   5.4105   5.5636
     6.8804

          k = 0.0000-0.2222 0.6667 (  4741 PWs)   bands (ev):

   -30.1589 -13.6796 -13.6509 -13.6370   2.4823   3.4200   5.2990   5.3835
     6.9029

          k =-0.1111-0.1111 0.6667 (  4723 PWs)   bands (ev):

   -30.1587 -13.6729 -13.6564 -13.6412   2.3623   3.8667   4.8047   5.8549
     6.5013

          k =-0.1111 0.7778-0.2222 (  4731 PWs)   bands (ev):

   -30.1582 -13.6757 -13.6623 -13.6411   3.1094   3.2820   4.4710   5.9655
     6.5780

          k = 0.5556-0.5556 0.4444 (  4748 PWs)   bands (ev):

   -30.1601 -13.6636 -13.6442 -13.6442   2.9326   3.6333   3.6333   5.3475
     7.7559

          k = 0.0000 0.0000 0.6667 (  4753 PWs)   bands (ev):

   -30.1585 -13.6642 -13.6545 -13.6545   2.2385   4.1494   5.4272   5.4272
     6.0570

          k = 0.0000-0.1111 0.7778 (  4722 PWs)   bands (ev):

   -30.1576 -13.6727 -13.6607 -13.6556   2.9650   3.6834   5.1076   5.4179
     6.1138

          k =-0.1111 0.8889-0.1111 (  4730 PWs)   bands (ev):

   -30.1572 -13.6695 -13.6695 -13.6571   3.4565   3.4565   4.7974   5.8446
     5.8446

          k = 0.0000 0.0000 0.8889 (  4742 PWs)   bands (ev):

   -30.1567 -13.6686 -13.6671 -13.6671   3.4183   3.6610   5.4798   5.4904
     5.4904

     the Fermi energy is     1.9570 ev

!    total energy              =     -58.77418923 Ry
     Harris-Foulkes estimate   =     -58.77418923 Ry
     estimated scf accuracy    <          1.3E-09 Ry

     The total energy is the sum of the following terms:

     one-electron contribution =     -36.58795588 Ry
     hartree contribution      =      18.88036312 Ry
     xc contribution           =     -11.16982176 Ry
     ewald contribution        =     -29.89633970 Ry
     smearing contrib. (-TS)   =      -0.00043501 Ry

     convergence has been achieved in   5 iterations

     Forces acting on atoms (cartesian axes, Ry/au):

     atom    1 type  1   force =     0.00000000    0.00000000    0.00000000

     Total force =     0.000000     Total SCF correction =     0.000000


     Computing stress (Cartesian axis) and pressure

          total   stress  (Ry/bohr**3)                   (kbar)     P=    1.37
   0.00000929   0.00000000  -0.00000000          1.37      0.00     -0.00
   0.00000000   0.00000929   0.00000000          0.00      1.37      0.00
  -0.00000000   0.00000000   0.00000929         -0.00      0.00      1.37


     Writing output data file K.save/

     init_run     :      0.66s CPU      0.70s WALL (       1 calls)
     electrons    :      9.45s CPU      9.82s WALL (       1 calls)
     forces       :      0.18s CPU      0.18s WALL (       1 calls)
     stress       :      0.69s CPU      0.69s WALL (       1 calls)

     Called by init_run:
     wfcinit      :      0.35s CPU      0.37s WALL (       1 calls)
     potinit      :      0.03s CPU      0.03s WALL (       1 calls)
     hinit0       :      0.21s CPU      0.21s WALL (       1 calls)

     Called by electrons:
     c_bands      :      7.73s CPU      8.04s WALL (       6 calls)
     sum_band     :      1.40s CPU      1.46s WALL (       6 calls)
     v_of_rho     :      0.13s CPU      0.13s WALL (       6 calls)
     newd         :      0.22s CPU      0.23s WALL (       6 calls)
     mix_rho      :      0.01s CPU      0.01s WALL (       6 calls)

     Called by c_bands:
     init_us_2    :      0.32s CPU      0.32s WALL (     525 calls)
     cegterg      :      7.35s CPU      7.66s WALL (     210 calls)

     Called by sum_band:
     sum_band:bec :      0.00s CPU      0.00s WALL (     210 calls)
     addusdens    :      0.21s CPU      0.21s WALL (       6 calls)

     Called by *egterg:
     h_psi        :      6.00s CPU      6.30s WALL (    1005 calls)
     s_psi        :      0.19s CPU      0.19s WALL (    1005 calls)
     g_psi        :      0.02s CPU      0.02s WALL (     760 calls)
     cdiaghg      :      0.25s CPU      0.25s WALL (     935 calls)

     Called by h_psi:
     h_psi:pot    :      5.97s CPU      6.27s WALL (    1005 calls)
     h_psi:calbec :      0.38s CPU      0.40s WALL (    1005 calls)
     vloc_psi     :      5.36s CPU      5.64s WALL (    1005 calls)
     add_vuspsi   :      0.21s CPU      0.22s WALL (    1005 calls)

     General routines
     calbec       :      0.61s CPU      0.63s WALL (    1390 calls)
     fft          :      0.09s CPU      0.10s WALL (      93 calls)
     ffts         :      0.00s CPU      0.00s WALL (       6 calls)
     fftw         :      5.85s CPU      6.14s WALL (   12948 calls)

     Parallel routines
     fft_scatt_xy :      0.42s CPU      0.44s WALL (   13047 calls)
     fft_scatt_yz :      1.79s CPU      1.89s WALL (   13047 calls)

     PWSCF        :    11.75s CPU        12.25s WALL


   This run was terminated on:   0:59:25   8Apr2024            

=------------------------------------------------------------------------------=
   JOB DONE.
=------------------------------------------------------------------------------=
