
     Program PWSCF v.6.3MaX starts on  8Apr2024 at  1:37: 7 

     This program is part of the open-source Quantum ESPRESSO suite
     for quantum simulation of materials; please cite
         "P. Giannozzi et al., J. Phys.:Condens. Matter 21 395502 (2009);
         "P. Giannozzi et al., J. Phys.:Condens. Matter 29 465901 (2017);
          URL http://www.quantum-espresso.org", 
     in publications or presentations arising from this work. More details at
     http://www.quantum-espresso.org/quote

     Parallel version (MPI), running on     5 processors

     MPI processes distributed on     1 nodes
     R & G space division:  proc/nbgrp/npool/nimage =       5
     Waiting for input...
     Reading input from standard input

     Current dimensions of program PWSCF are:
     Max number of different atomic species (ntypx) = 10
     Max number of k-points (npk) =  40000
     Max angular momentum in pseudopotentials (lmaxx) =  3
               file K.pbe-spn-kjpaw_psl.1.0.0.UPF: wavefunction(s)  3S renormalized

     Subspace diagonalization in iterative solution of the eigenvalue problem:
     a serial algorithm will be used


     Parallelization info
     --------------------
     sticks:   dense  smooth     PW     G-vecs:    dense   smooth      PW
     Min         417     417    113                12009    12009    1737
     Max         417     417    115                12010    12010    1737
     Sum        2085    2085    571                60047    60047    8685



     bravais-lattice index     =            3
     lattice parameter (alat)  =       9.8600  a.u.
     unit-cell volume          =     479.2926 (a.u.)^3
     number of atoms/cell      =            1
     number of atomic types    =            1
     number of electrons       =         9.00
     number of Kohn-Sham states=            9
     kinetic-energy cutoff     =      95.0000  Ry
     charge density cutoff     =     380.0000  Ry
     convergence threshold     =      1.0E-08
     mixing beta               =       0.7000
     number of iterations used =            8  plain     mixing
     Exchange-correlation      = SLA PW PBX PBC ( 1  4  3  4 0 0)

     celldm(1)=   9.860000  celldm(2)=   0.000000  celldm(3)=   0.000000
     celldm(4)=   0.000000  celldm(5)=   0.000000  celldm(6)=   0.000000

     crystal axes: (cart. coord. in units of alat)
               a(1) = (   0.500000   0.500000   0.500000 )  
               a(2) = (  -0.500000   0.500000   0.500000 )  
               a(3) = (  -0.500000  -0.500000   0.500000 )  

     reciprocal axes: (cart. coord. in units 2 pi/alat)
               b(1) = (  1.000000  0.000000  1.000000 )  
               b(2) = ( -1.000000  1.000000  0.000000 )  
               b(3) = (  0.000000 -1.000000  1.000000 )  


     PseudoPot. # 1 for K  read from file:
     /home/lorenzo/pseudos/K/K.pbe-spn-kjpaw_psl.1.0.0.UPF
     MD5 check sum: 34cc42130a09071ebe376fd42eb21491
     Pseudo is Projector augmented-wave + core cor, Zval =  9.0
     Generated using "atomic" code by A. Dal Corso v.6.2.2
     Shape of augmentation charge: PSQ
     Using radial grid of 1165 points,  6 beta functions with: 
                l(1) =   0
                l(2) =   0
                l(3) =   1
                l(4) =   1
                l(5) =   2
                l(6) =   2
     Q(r) pseudized with 0 coefficients 


     atomic species   valence    mass     pseudopotential
        K              9.00    39.09830     K ( 1.00)

     48 Sym. Ops., with inversion, found



   Cartesian axes

     site n.     atom                  positions (alat units)
         1           K   tau(   1) = (   0.0000000   0.0000000   0.0000000  )

     number of k points=     4  gaussian smearing, width (Ry)=  0.0100
                       cart. coord. in units 2pi/alat
        k(    1) = (   0.0000000   0.0000000   0.0000000), wk =   0.0740741
        k(    2) = (   0.0000000  -0.3333333   0.3333333), wk =   0.8888889
        k(    3) = (  -0.3333333   0.6666667  -0.3333333), wk =   0.5925926
        k(    4) = (   0.0000000   0.0000000   0.6666667), wk =   0.4444444

     Dense  grid:    60047 G-vectors     FFT dimensions: (  54,  54,  54)

     Estimated max dynamical RAM per process >      47.92 MB

     Estimated total dynamical RAM >     239.62 MB

     Check: negative/imaginary core charge=   -0.000001    0.000000

     Initial potential from superposition of free atoms

     starting charge    8.98117, renormalised to    9.00000
     Starting wfcs are    8 randomized atomic wfcs +    1 random wfcs
     Checking if some PAW data can be deallocated... 

     total cpu time spent up to now is        1.4 secs

     Self-consistent Calculation

     iteration #  1     ecut=    95.00 Ry     beta= 0.70
     Davidson diagonalization with overlap
     ethr =  1.00E-02,  avg # of iterations =  8.5

     Threshold (ethr) on eigenvalues was too large:
     Diagonalizing with lowered threshold

     Davidson diagonalization with overlap
     ethr =  1.40E-05,  avg # of iterations =  5.8

     total cpu time spent up to now is        2.7 secs

     total energy              =    -113.01805831 Ry
     Harris-Foulkes estimate   =    -113.01860528 Ry
     estimated scf accuracy    <       0.00126263 Ry

     iteration #  2     ecut=    95.00 Ry     beta= 0.70
     Davidson diagonalization with overlap
     ethr =  1.40E-05,  avg # of iterations =  2.2

     total cpu time spent up to now is        3.1 secs

     total energy              =    -113.01828392 Ry
     Harris-Foulkes estimate   =    -113.01829585 Ry
     estimated scf accuracy    <       0.00010113 Ry

     iteration #  3     ecut=    95.00 Ry     beta= 0.70
     Davidson diagonalization with overlap
     ethr =  1.12E-06,  avg # of iterations =  3.8

     total cpu time spent up to now is        3.6 secs

     total energy              =    -113.01829602 Ry
     Harris-Foulkes estimate   =    -113.01829392 Ry
     estimated scf accuracy    <       0.00000688 Ry

     iteration #  4     ecut=    95.00 Ry     beta= 0.70
     Davidson diagonalization with overlap
     ethr =  7.64E-08,  avg # of iterations =  1.8

     total cpu time spent up to now is        4.1 secs

     total energy              =    -113.01829667 Ry
     Harris-Foulkes estimate   =    -113.01829667 Ry
     estimated scf accuracy    <       0.00000005 Ry

     iteration #  5     ecut=    95.00 Ry     beta= 0.70
     Davidson diagonalization with overlap
     ethr =  5.56E-10,  avg # of iterations =  2.5

     total cpu time spent up to now is        4.6 secs

     End of self-consistent calculation

          k = 0.0000 0.0000 0.0000 (  7419 PWs)   bands (ev):

   -30.1682 -13.6160 -13.6160 -13.6160  -0.2614   6.2618   6.2618   6.2618
     7.1810

          k = 0.0000-0.3333 0.3333 (  7488 PWs)   bands (ev):

   -30.1646 -13.6735 -13.6352 -13.6159   1.0775   4.1198   5.3345   7.0325
     7.2488

          k =-0.3333 0.6667-0.3333 (  7476 PWs)   bands (ev):

   -30.1627 -13.6686 -13.6686 -13.6256   3.1572   3.1572   3.5770   6.5936
     7.3423

          k = 0.0000 0.0000 0.6667 (  7495 PWs)   bands (ev):

   -30.1615 -13.6662 -13.6566 -13.6566   2.2388   4.1502   5.4263   5.4263
     6.0566

     the Fermi energy is     2.1058 ev

!    total energy              =    -113.01829669 Ry
     Harris-Foulkes estimate   =    -113.01829669 Ry
     estimated scf accuracy    <          2.4E-09 Ry

     total all-electron energy =     -1204.257007 Ry

     The total energy is the sum of the following terms:

     one-electron contribution =     -35.41136631 Ry
     hartree contribution      =      18.87885135 Ry
     xc contribution           =     -11.16926965 Ry
     ewald contribution        =     -29.89633970 Ry
     one-center paw contrib.   =     -55.41969057 Ry
     smearing contrib. (-TS)   =      -0.00048182 Ry

     convergence has been achieved in   5 iterations

     Forces acting on atoms (cartesian axes, Ry/au):

     atom    1 type  1   force =     0.00000000    0.00000000    0.00000000

     Total force =     0.000000     Total SCF correction =     0.000000


     Computing stress (Cartesian axis) and pressure

          total   stress  (Ry/bohr**3)                   (kbar)     P=    0.27
   0.00000182  -0.00000000   0.00000000          0.27     -0.00      0.00
  -0.00000000   0.00000182  -0.00000000         -0.00      0.27     -0.00
   0.00000000  -0.00000000   0.00000182          0.00     -0.00      0.27


     Writing output data file K.save/

     init_run     :      0.69s CPU      0.73s WALL (       1 calls)
     electrons    :      3.03s CPU      3.13s WALL (       1 calls)
     forces       :      0.17s CPU      0.17s WALL (       1 calls)
     stress       :      0.51s CPU      0.51s WALL (       1 calls)

     Called by init_run:
     wfcinit      :      0.11s CPU      0.12s WALL (       1 calls)
     potinit      :      0.16s CPU      0.18s WALL (       1 calls)
     hinit0       :      0.23s CPU      0.24s WALL (       1 calls)

     Called by electrons:
     c_bands      :      1.52s CPU      1.57s WALL (       6 calls)
     sum_band     :      0.62s CPU      0.64s WALL (       6 calls)
     v_of_rho     :      0.21s CPU      0.21s WALL (       6 calls)
     newd         :      0.33s CPU      0.34s WALL (       6 calls)
     PAW_pot      :      0.53s CPU      0.55s WALL (       6 calls)
     mix_rho      :      0.02s CPU      0.02s WALL (       6 calls)

     Called by c_bands:
     init_us_2    :      0.06s CPU      0.07s WALL (      60 calls)
     cegterg      :      1.45s CPU      1.50s WALL (      24 calls)

     Called by sum_band:
     sum_band:bec :      0.00s CPU      0.00s WALL (      24 calls)
     addusdens    :      0.33s CPU      0.34s WALL (       6 calls)

     Called by *egterg:
     h_psi        :      1.24s CPU      1.29s WALL (     126 calls)
     s_psi        :      0.04s CPU      0.04s WALL (     126 calls)
     g_psi        :      0.00s CPU      0.00s WALL (      98 calls)
     cdiaghg      :      0.04s CPU      0.04s WALL (     118 calls)

     Called by h_psi:
     h_psi:pot    :      1.23s CPU      1.28s WALL (     126 calls)
     h_psi:calbec :      0.07s CPU      0.08s WALL (     126 calls)
     vloc_psi     :      1.11s CPU      1.16s WALL (     126 calls)
     add_vuspsi   :      0.05s CPU      0.05s WALL (     126 calls)

     General routines
     calbec       :      0.11s CPU      0.11s WALL (     170 calls)
     fft          :      0.13s CPU      0.14s WALL (      93 calls)
     ffts         :      0.01s CPU      0.01s WALL (       6 calls)
     fftw         :      1.16s CPU      1.22s WALL (    1526 calls)

     Parallel routines
     fft_scatt_xy :      0.10s CPU      0.11s WALL (    1625 calls)
     fft_scatt_yz :      0.30s CPU      0.32s WALL (    1625 calls)

     PWSCF        :     5.13s CPU         5.32s WALL


   This run was terminated on:   1:37:12   8Apr2024            

=------------------------------------------------------------------------------=
   JOB DONE.
=------------------------------------------------------------------------------=
