
     Program PWSCF v.6.3MaX starts on  8Apr2024 at  0:44:44 

     This program is part of the open-source Quantum ESPRESSO suite
     for quantum simulation of materials; please cite
         "P. Giannozzi et al., J. Phys.:Condens. Matter 21 395502 (2009);
         "P. Giannozzi et al., J. Phys.:Condens. Matter 29 465901 (2017);
          URL http://www.quantum-espresso.org", 
     in publications or presentations arising from this work. More details at
     http://www.quantum-espresso.org/quote

     Parallel version (MPI), running on     5 processors

     MPI processes distributed on     1 nodes
     R & G space division:  proc/nbgrp/npool/nimage =       5
     Waiting for input...
     Reading input from standard input

     Current dimensions of program PWSCF are:
     Max number of different atomic species (ntypx) = 10
     Max number of k-points (npk) =  40000
     Max angular momentum in pseudopotentials (lmaxx) =  3
               file K.pbe-spn-kjpaw_psl.1.0.0.UPF: wavefunction(s)  3S renormalized

     Subspace diagonalization in iterative solution of the eigenvalue problem:
     a serial algorithm will be used


     Parallelization info
     --------------------
     sticks:   dense  smooth     PW     G-vecs:    dense   smooth      PW
     Min         263     263     77                 6018     6018     950
     Max         263     263     78                 6019     6019     951
     Sum        1315    1315    387                30093    30093    4753



     bravais-lattice index     =            3
     lattice parameter (alat)  =       9.8600  a.u.
     unit-cell volume          =     479.2926 (a.u.)^3
     number of atoms/cell      =            1
     number of atomic types    =            1
     number of electrons       =         9.00
     number of Kohn-Sham states=            9
     kinetic-energy cutoff     =      60.0000  Ry
     charge density cutoff     =     240.0000  Ry
     convergence threshold     =      1.0E-08
     mixing beta               =       0.7000
     number of iterations used =            8  plain     mixing
     Exchange-correlation      = SLA PW PBX PBC ( 1  4  3  4 0 0)

     celldm(1)=   9.860000  celldm(2)=   0.000000  celldm(3)=   0.000000
     celldm(4)=   0.000000  celldm(5)=   0.000000  celldm(6)=   0.000000

     crystal axes: (cart. coord. in units of alat)
               a(1) = (   0.500000   0.500000   0.500000 )  
               a(2) = (  -0.500000   0.500000   0.500000 )  
               a(3) = (  -0.500000  -0.500000   0.500000 )  

     reciprocal axes: (cart. coord. in units 2 pi/alat)
               b(1) = (  1.000000  0.000000  1.000000 )  
               b(2) = ( -1.000000  1.000000  0.000000 )  
               b(3) = (  0.000000 -1.000000  1.000000 )  


     PseudoPot. # 1 for K  read from file:
     /home/lorenzo/pseudos/K/K.pbe-spn-kjpaw_psl.1.0.0.UPF
     MD5 check sum: 34cc42130a09071ebe376fd42eb21491
     Pseudo is Projector augmented-wave + core cor, Zval =  9.0
     Generated using "atomic" code by A. Dal Corso v.6.2.2
     Shape of augmentation charge: PSQ
     Using radial grid of 1165 points,  6 beta functions with: 
                l(1) =   0
                l(2) =   0
                l(3) =   1
                l(4) =   1
                l(5) =   2
                l(6) =   2
     Q(r) pseudized with 0 coefficients 


     atomic species   valence    mass     pseudopotential
        K              9.00    39.09830     K ( 1.00)

     48 Sym. Ops., with inversion, found



   Cartesian axes

     site n.     atom                  positions (alat units)
         1           K   tau(   1) = (   0.0000000   0.0000000   0.0000000  )

     number of k points=     8  gaussian smearing, width (Ry)=  0.0100
                       cart. coord. in units 2pi/alat
        k(    1) = (   0.0000000   0.0000000   0.0000000), wk =   0.0312500
        k(    2) = (   0.0000000  -0.2500000   0.2500000), wk =   0.3750000
        k(    3) = (   0.0000000   0.5000000  -0.5000000), wk =   0.1875000
        k(    4) = (  -0.2500000   0.7500000  -0.5000000), wk =   0.7500000
        k(    5) = (   0.0000000   0.0000000   0.5000000), wk =   0.1875000
        k(    6) = (   0.0000000   0.7500000  -0.2500000), wk =   0.3750000
        k(    7) = (   0.5000000  -0.5000000   0.5000000), wk =   0.0625000
        k(    8) = (   0.0000000   0.0000000  -1.0000000), wk =   0.0312500

     Dense  grid:    30093 G-vectors     FFT dimensions: (  45,  45,  45)

     Estimated max dynamical RAM per process >      25.30 MB

     Estimated total dynamical RAM >     126.51 MB

     Check: negative/imaginary core charge=   -0.000003    0.000000

     Initial potential from superposition of free atoms

     starting charge    8.98117, renormalised to    9.00000
     Starting wfcs are    8 randomized atomic wfcs +    1 random wfcs
     Checking if some PAW data can be deallocated... 

     total cpu time spent up to now is        1.2 secs

     Self-consistent Calculation

     iteration #  1     ecut=    60.00 Ry     beta= 0.70
     Davidson diagonalization with overlap
     ethr =  1.00E-02,  avg # of iterations =  6.2

     Threshold (ethr) on eigenvalues was too large:
     Diagonalizing with lowered threshold

     Davidson diagonalization with overlap
     ethr =  1.45E-05,  avg # of iterations =  6.0

     total cpu time spent up to now is        2.2 secs

     total energy              =    -113.00683448 Ry
     Harris-Foulkes estimate   =    -113.00732750 Ry
     estimated scf accuracy    <       0.00125124 Ry

     iteration #  2     ecut=    60.00 Ry     beta= 0.70
     Davidson diagonalization with overlap
     ethr =  1.39E-05,  avg # of iterations =  2.0

     total cpu time spent up to now is        2.6 secs

     total energy              =    -113.00705320 Ry
     Harris-Foulkes estimate   =    -113.00706054 Ry
     estimated scf accuracy    <       0.00010193 Ry

     iteration #  3     ecut=    60.00 Ry     beta= 0.70
     Davidson diagonalization with overlap
     ethr =  1.13E-06,  avg # of iterations =  2.6

     total cpu time spent up to now is        3.0 secs

     total energy              =    -113.00706530 Ry
     Harris-Foulkes estimate   =    -113.00706287 Ry
     estimated scf accuracy    <       0.00000690 Ry

     iteration #  4     ecut=    60.00 Ry     beta= 0.70
     Davidson diagonalization with overlap
     ethr =  7.66E-08,  avg # of iterations =  1.5

     total cpu time spent up to now is        3.4 secs

     total energy              =    -113.00706595 Ry
     Harris-Foulkes estimate   =    -113.00706596 Ry
     estimated scf accuracy    <       0.00000006 Ry

     iteration #  5     ecut=    60.00 Ry     beta= 0.70
     Davidson diagonalization with overlap
     ethr =  6.14E-10,  avg # of iterations =  2.4

     total cpu time spent up to now is        3.8 secs

     End of self-consistent calculation

          k = 0.0000 0.0000 0.0000 (  3781 PWs)   bands (ev):

   -30.1632 -13.6123 -13.6123 -13.6123  -0.2619   6.2640   6.2640   6.2640
     7.1821

          k = 0.0000-0.2500 0.2500 (  3779 PWs)   bands (ev):

   -30.1608 -13.6509 -13.6252 -13.6123   0.5130   4.9035   5.5841   6.8904
     7.0050

          k = 0.0000 0.5000-0.5000 (  3766 PWs)   bands (ev):

   -30.1584 -13.6887 -13.6380 -13.6123   2.3889   2.6481   5.1205   6.8720
     7.9893

          k =-0.2500 0.7500-0.5000 (  3755 PWs)   bands (ev):

   -30.1584 -13.6747 -13.6442 -13.6202   1.9105   3.8315   4.3656   6.7977
     7.0268

          k = 0.0000 0.0000 0.5000 (  3764 PWs)   bands (ev):

   -30.1586 -13.6519 -13.6390 -13.6390   1.2366   4.8176   5.5068   5.5068
     7.0909

          k = 0.0000 0.7500-0.2500 (  3746 PWs)   bands (ev):

   -30.1565 -13.6780 -13.6527 -13.6400   2.9889   3.1109   5.2003   5.3178
     6.7719

          k = 0.5000-0.5000 0.5000 (  3784 PWs)   bands (ev):

   -30.1581 -13.6496 -13.6496 -13.6496   3.4266   3.4266   3.4267   5.1277
     7.7851

          k = 0.0000 0.0000-1.0000 (  3716 PWs)   bands (ev):

   -30.1546 -13.6673 -13.6673 -13.6673   3.5990   5.5110   5.5111   5.5111
     7.6778

     the Fermi energy is     1.9206 ev

!    total energy              =    -113.00706596 Ry
     Harris-Foulkes estimate   =    -113.00706596 Ry
     estimated scf accuracy    <          2.0E-09 Ry

     total all-electron energy =     -1204.245776 Ry

     The total energy is the sum of the following terms:

     one-electron contribution =     -35.39996512 Ry
     hartree contribution      =      18.88130715 Ry
     xc contribution           =     -11.17030839 Ry
     ewald contribution        =     -29.89633971 Ry
     one-center paw contrib.   =     -55.41965573 Ry
     smearing contrib. (-TS)   =      -0.00210416 Ry

     convergence has been achieved in   5 iterations

     Forces acting on atoms (cartesian axes, Ry/au):

     atom    1 type  1   force =     0.00000000    0.00000000    0.00000000

     Total force =     0.000000     Total SCF correction =     0.000000


     Computing stress (Cartesian axis) and pressure

          total   stress  (Ry/bohr**3)                   (kbar)     P=    2.29
   0.00001558   0.00000000  -0.00000000          2.29      0.00     -0.00
   0.00000000   0.00001558   0.00000000          0.00      2.29      0.00
  -0.00000000   0.00000000   0.00001558         -0.00      0.00      2.29


     Writing output data file K.save/

     init_run     :      0.47s CPU      0.49s WALL (       1 calls)
     electrons    :      2.48s CPU      2.58s WALL (       1 calls)
     forces       :      0.12s CPU      0.12s WALL (       1 calls)
     stress       :      0.35s CPU      0.35s WALL (       1 calls)

     Called by init_run:
     wfcinit      :      0.07s CPU      0.07s WALL (       1 calls)
     potinit      :      0.13s CPU      0.15s WALL (       1 calls)
     hinit0       :      0.18s CPU      0.18s WALL (       1 calls)

     Called by electrons:
     c_bands      :      1.39s CPU      1.46s WALL (       6 calls)
     sum_band     :      0.42s CPU      0.43s WALL (       6 calls)
     v_of_rho     :      0.11s CPU      0.11s WALL (       6 calls)
     newd         :      0.17s CPU      0.17s WALL (       6 calls)
     PAW_pot      :      0.52s CPU      0.55s WALL (       6 calls)
     mix_rho      :      0.01s CPU      0.01s WALL (       6 calls)

     Called by c_bands:
     init_us_2    :      0.06s CPU      0.06s WALL (     120 calls)
     cegterg      :      1.33s CPU      1.40s WALL (      48 calls)

     Called by sum_band:
     sum_band:bec :      0.00s CPU      0.00s WALL (      48 calls)
     addusdens    :      0.17s CPU      0.18s WALL (       6 calls)

     Called by *egterg:
     h_psi        :      1.11s CPU      1.17s WALL (     222 calls)
     s_psi        :      0.03s CPU      0.03s WALL (     222 calls)
     g_psi        :      0.00s CPU      0.00s WALL (     166 calls)
     cdiaghg      :      0.05s CPU      0.05s WALL (     206 calls)

     Called by h_psi:
     h_psi:pot    :      1.10s CPU      1.17s WALL (     222 calls)
     h_psi:calbec :      0.07s CPU      0.07s WALL (     222 calls)
     vloc_psi     :      1.00s CPU      1.06s WALL (     222 calls)
     add_vuspsi   :      0.04s CPU      0.04s WALL (     222 calls)

     General routines
     calbec       :      0.11s CPU      0.12s WALL (     310 calls)
     fft          :      0.09s CPU      0.09s WALL (      93 calls)
     ffts         :      0.00s CPU      0.00s WALL (       6 calls)
     fftw         :      1.09s CPU      1.15s WALL (    2934 calls)

     Parallel routines
     fft_scatt_xy :      0.09s CPU      0.10s WALL (    3033 calls)
     fft_scatt_yz :      0.25s CPU      0.27s WALL (    3033 calls)

     PWSCF        :     4.16s CPU         4.33s WALL


   This run was terminated on:   0:44:49   8Apr2024            

=------------------------------------------------------------------------------=
   JOB DONE.
=------------------------------------------------------------------------------=
