
     Program PWSCF v.6.3MaX starts on  8Apr2024 at  0:15:12 

     This program is part of the open-source Quantum ESPRESSO suite
     for quantum simulation of materials; please cite
         "P. Giannozzi et al., J. Phys.:Condens. Matter 21 395502 (2009);
         "P. Giannozzi et al., J. Phys.:Condens. Matter 29 465901 (2017);
          URL http://www.quantum-espresso.org", 
     in publications or presentations arising from this work. More details at
     http://www.quantum-espresso.org/quote

     Parallel version (MPI), running on     5 processors

     MPI processes distributed on     1 nodes
     R & G space division:  proc/nbgrp/npool/nimage =       5
     Waiting for input...
     Reading input from standard input

     Current dimensions of program PWSCF are:
     Max number of different atomic species (ntypx) = 10
     Max number of k-points (npk) =  40000
     Max angular momentum in pseudopotentials (lmaxx) =  3
               file K.pz-spn-kjpaw_psl.1.0.0.UPF: wavefunction(s)  3S renormalized

     Subspace diagonalization in iterative solution of the eigenvalue problem:
     a serial algorithm will be used


     Parallelization info
     --------------------
     sticks:   dense  smooth     PW     G-vecs:    dense   smooth      PW
     Min          87      87     25                 1155     1155     190
     Max          88      88     26                 1155     1155     193
     Sum         437     437    129                 5775     5775     959



     bravais-lattice index     =            3
     lattice parameter (alat)  =       9.8600  a.u.
     unit-cell volume          =     479.2926 (a.u.)^3
     number of atoms/cell      =            1
     number of atomic types    =            1
     number of electrons       =         9.00
     number of Kohn-Sham states=            9
     kinetic-energy cutoff     =      20.0000  Ry
     charge density cutoff     =      80.0000  Ry
     convergence threshold     =      1.0E-08
     mixing beta               =       0.7000
     number of iterations used =            8  plain     mixing
     Exchange-correlation      = SLA PZ NOGX NOGC ( 1  1  0  0 0 0)

     celldm(1)=   9.860000  celldm(2)=   0.000000  celldm(3)=   0.000000
     celldm(4)=   0.000000  celldm(5)=   0.000000  celldm(6)=   0.000000

     crystal axes: (cart. coord. in units of alat)
               a(1) = (   0.500000   0.500000   0.500000 )  
               a(2) = (  -0.500000   0.500000   0.500000 )  
               a(3) = (  -0.500000  -0.500000   0.500000 )  

     reciprocal axes: (cart. coord. in units 2 pi/alat)
               b(1) = (  1.000000  0.000000  1.000000 )  
               b(2) = ( -1.000000  1.000000  0.000000 )  
               b(3) = (  0.000000 -1.000000  1.000000 )  


     PseudoPot. # 1 for K  read from file:
     /home/lorenzo/pseudos/K/K.pz-spn-kjpaw_psl.1.0.0.UPF
     MD5 check sum: 59b94f4c1a6681f21e103574f2c5fc67
     Pseudo is Projector augmented-wave + core cor, Zval =  9.0
     Generated using "atomic" code by A. Dal Corso v.6.2.2
     Shape of augmentation charge: PSQ
     Using radial grid of 1165 points,  6 beta functions with: 
                l(1) =   0
                l(2) =   0
                l(3) =   1
                l(4) =   1
                l(5) =   2
                l(6) =   2
     Q(r) pseudized with 0 coefficients 


     atomic species   valence    mass     pseudopotential
        K              9.00    39.09830     K ( 1.00)

     48 Sym. Ops., with inversion, found



   Cartesian axes

     site n.     atom                  positions (alat units)
         1           K   tau(   1) = (   0.0000000   0.0000000   0.0000000  )

     number of k points=     4  gaussian smearing, width (Ry)=  0.0100
                       cart. coord. in units 2pi/alat
        k(    1) = (   0.0000000   0.0000000   0.0000000), wk =   0.0740741
        k(    2) = (   0.0000000  -0.3333333   0.3333333), wk =   0.8888889
        k(    3) = (  -0.3333333   0.6666667  -0.3333333), wk =   0.5925926
        k(    4) = (   0.0000000   0.0000000   0.6666667), wk =   0.4444444

     Dense  grid:     5775 G-vectors     FFT dimensions: (  25,  25,  25)

     Estimated max dynamical RAM per process >       5.50 MB

     Estimated total dynamical RAM >      27.51 MB

     Check: negative/imaginary core charge=   -0.000042    0.000000

     Initial potential from superposition of free atoms

     starting charge    8.98437, renormalised to    9.00000
     Starting wfcs are    8 randomized atomic wfcs +    1 random wfcs
     Checking if some PAW data can be deallocated... 

     total cpu time spent up to now is        1.1 secs

     Self-consistent Calculation

     iteration #  1     ecut=    20.00 Ry     beta= 0.70
     Davidson diagonalization with overlap
     ethr =  1.00E-02,  avg # of iterations =  9.0

     Threshold (ethr) on eigenvalues was too large:
     Diagonalizing with lowered threshold

     Davidson diagonalization with overlap
     ethr =  6.39E-05,  avg # of iterations =  2.8

     total cpu time spent up to now is        1.2 secs

     total energy              =    -109.78393891 Ry
     Harris-Foulkes estimate   =    -109.78876495 Ry
     estimated scf accuracy    <       0.00601290 Ry

     iteration #  2     ecut=    20.00 Ry     beta= 0.70
     Davidson diagonalization with overlap
     ethr =  6.68E-05,  avg # of iterations =  3.5

     total cpu time spent up to now is        1.3 secs

     total energy              =    -109.78556463 Ry
     Harris-Foulkes estimate   =    -109.78577551 Ry
     estimated scf accuracy    <       0.00059156 Ry

     iteration #  3     ecut=    20.00 Ry     beta= 0.70
     Davidson diagonalization with overlap
     ethr =  6.57E-06,  avg # of iterations =  2.0

     total cpu time spent up to now is        1.4 secs

     total energy              =    -109.78562651 Ry
     Harris-Foulkes estimate   =    -109.78562752 Ry
     estimated scf accuracy    <       0.00003066 Ry

     iteration #  4     ecut=    20.00 Ry     beta= 0.70
     Davidson diagonalization with overlap
     ethr =  3.41E-07,  avg # of iterations =  3.5

     total cpu time spent up to now is        1.5 secs

     total energy              =    -109.78562717 Ry
     Harris-Foulkes estimate   =    -109.78562717 Ry
     estimated scf accuracy    <       0.00000003 Ry

     iteration #  5     ecut=    20.00 Ry     beta= 0.70
     Davidson diagonalization with overlap
     ethr =  3.42E-10,  avg # of iterations =  3.0

     total cpu time spent up to now is        1.6 secs

     End of self-consistent calculation

          k = 0.0000 0.0000 0.0000 (   683 PWs)   bands (ev):

   -30.3453 -13.6839 -13.6839 -13.6839  -0.4850   6.1641   6.1641   6.1641
     7.1482

          k = 0.0000-0.3333 0.3333 (   714 PWs)   bands (ev):

   -30.3415 -13.7971 -13.7291 -13.7095   0.8660   3.9560   5.1928   6.9305
     7.1620

          k =-0.3333 0.6667-0.3333 (   727 PWs)   bands (ev):

   -30.3397 -13.7942 -13.7942 -13.7451   3.0055   3.0055   3.3244   6.3193
     7.2466

          k = 0.0000 0.0000 0.6667 (   735 PWs)   bands (ev):

   -30.3384 -13.8262 -13.7759 -13.7759   2.0482   4.0240   5.2310   5.2310
     5.8314

     the Fermi energy is     1.9152 ev

!    total energy              =    -109.78562723 Ry
     Harris-Foulkes estimate   =    -109.78562723 Ry
     estimated scf accuracy    <          1.0E-09 Ry

     total all-electron energy =     -1201.110627 Ry

     The total energy is the sum of the following terms:

     one-electron contribution =     -35.27842076 Ry
     hartree contribution      =      18.73788667 Ry
     xc contribution           =     -10.99174327 Ry
     ewald contribution        =     -29.89633972 Ry
     one-center paw contrib.   =     -52.35652832 Ry
     smearing contrib. (-TS)   =      -0.00048182 Ry

     convergence has been achieved in   5 iterations

     Forces acting on atoms (cartesian axes, Ry/au):

     atom    1 type  1   force =     0.00000000    0.00000000    0.00000000

     Total force =     0.000000     Total SCF correction =     0.000000


     Computing stress (Cartesian axis) and pressure

          total   stress  (Ry/bohr**3)                   (kbar)     P= -124.03
  -0.00084313  -0.00000000   0.00000000       -124.03     -0.00      0.00
  -0.00000000  -0.00084313  -0.00000000         -0.00   -124.03     -0.00
   0.00000000  -0.00000000  -0.00084313          0.00     -0.00   -124.03


     Writing output data file K.save/

     init_run     :      0.18s CPU      0.19s WALL (       1 calls)
     electrons    :      0.52s CPU      0.55s WALL (       1 calls)
     forces       :      0.02s CPU      0.02s WALL (       1 calls)
     stress       :      0.07s CPU      0.07s WALL (       1 calls)

     Called by init_run:
     wfcinit      :      0.01s CPU      0.01s WALL (       1 calls)
     potinit      :      0.05s CPU      0.05s WALL (       1 calls)
     hinit0       :      0.11s CPU      0.11s WALL (       1 calls)

     Called by electrons:
     c_bands      :      0.18s CPU      0.19s WALL (       6 calls)
     sum_band     :      0.07s CPU      0.07s WALL (       6 calls)
     v_of_rho     :      0.00s CPU      0.00s WALL (       6 calls)
     newd         :      0.04s CPU      0.04s WALL (       6 calls)
     PAW_pot      :      0.28s CPU      0.28s WALL (       6 calls)
     mix_rho      :      0.00s CPU      0.00s WALL (       6 calls)

     Called by c_bands:
     init_us_2    :      0.01s CPU      0.01s WALL (      60 calls)
     cegterg      :      0.17s CPU      0.18s WALL (      24 calls)

     Called by sum_band:
     sum_band:bec :      0.00s CPU      0.00s WALL (      24 calls)
     addusdens    :      0.04s CPU      0.04s WALL (       6 calls)

     Called by *egterg:
     h_psi        :      0.13s CPU      0.14s WALL (     123 calls)
     s_psi        :      0.00s CPU      0.00s WALL (     123 calls)
     g_psi        :      0.00s CPU      0.00s WALL (      95 calls)
     cdiaghg      :      0.03s CPU      0.03s WALL (     115 calls)

     Called by h_psi:
     h_psi:pot    :      0.13s CPU      0.14s WALL (     123 calls)
     h_psi:calbec :      0.01s CPU      0.01s WALL (     123 calls)
     vloc_psi     :      0.12s CPU      0.13s WALL (     123 calls)
     add_vuspsi   :      0.00s CPU      0.00s WALL (     123 calls)

     General routines
     calbec       :      0.02s CPU      0.02s WALL (     167 calls)
     fft          :      0.01s CPU      0.01s WALL (      34 calls)
     ffts         :      0.00s CPU      0.00s WALL (       6 calls)
     fftw         :      0.13s CPU      0.13s WALL (    1502 calls)

     Parallel routines
     fft_scatt_xy :      0.01s CPU      0.01s WALL (    1542 calls)
     fft_scatt_yz :      0.03s CPU      0.03s WALL (    1542 calls)

     PWSCF        :     1.67s CPU         1.75s WALL


   This run was terminated on:   0:15:14   8Apr2024            

=------------------------------------------------------------------------------=
   JOB DONE.
=------------------------------------------------------------------------------=
