
     Program PWSCF v.6.3MaX starts on  8Apr2024 at  0:52:57 

     This program is part of the open-source Quantum ESPRESSO suite
     for quantum simulation of materials; please cite
         "P. Giannozzi et al., J. Phys.:Condens. Matter 21 395502 (2009);
         "P. Giannozzi et al., J. Phys.:Condens. Matter 29 465901 (2017);
          URL http://www.quantum-espresso.org", 
     in publications or presentations arising from this work. More details at
     http://www.quantum-espresso.org/quote

     Parallel version (MPI), running on     5 processors

     MPI processes distributed on     1 nodes
     R & G space division:  proc/nbgrp/npool/nimage =       5
     Waiting for input...
     Reading input from standard input

     Current dimensions of program PWSCF are:
     Max number of different atomic species (ntypx) = 10
     Max number of k-points (npk) =  40000
     Max angular momentum in pseudopotentials (lmaxx) =  3
               file K.pbe-spn-kjpaw_psl.1.0.0.UPF: wavefunction(s)  3S renormalized

     Subspace diagonalization in iterative solution of the eigenvalue problem:
     a serial algorithm will be used


     Parallelization info
     --------------------
     sticks:   dense  smooth     PW     G-vecs:    dense   smooth      PW
     Min         282     282     82                 6766     6766    1056
     Max         283     283     83                 6768     6768    1057
     Sum        1411    1411    411                33837    33837    5281



     bravais-lattice index     =            3
     lattice parameter (alat)  =       9.8600  a.u.
     unit-cell volume          =     479.2926 (a.u.)^3
     number of atoms/cell      =            1
     number of atomic types    =            1
     number of electrons       =         9.00
     number of Kohn-Sham states=            9
     kinetic-energy cutoff     =      65.0000  Ry
     charge density cutoff     =     260.0000  Ry
     convergence threshold     =      1.0E-08
     mixing beta               =       0.7000
     number of iterations used =            8  plain     mixing
     Exchange-correlation      = SLA PW PBX PBC ( 1  4  3  4 0 0)

     celldm(1)=   9.860000  celldm(2)=   0.000000  celldm(3)=   0.000000
     celldm(4)=   0.000000  celldm(5)=   0.000000  celldm(6)=   0.000000

     crystal axes: (cart. coord. in units of alat)
               a(1) = (   0.500000   0.500000   0.500000 )  
               a(2) = (  -0.500000   0.500000   0.500000 )  
               a(3) = (  -0.500000  -0.500000   0.500000 )  

     reciprocal axes: (cart. coord. in units 2 pi/alat)
               b(1) = (  1.000000  0.000000  1.000000 )  
               b(2) = ( -1.000000  1.000000  0.000000 )  
               b(3) = (  0.000000 -1.000000  1.000000 )  


     PseudoPot. # 1 for K  read from file:
     /home/lorenzo/pseudos/K/K.pbe-spn-kjpaw_psl.1.0.0.UPF
     MD5 check sum: 34cc42130a09071ebe376fd42eb21491
     Pseudo is Projector augmented-wave + core cor, Zval =  9.0
     Generated using "atomic" code by A. Dal Corso v.6.2.2
     Shape of augmentation charge: PSQ
     Using radial grid of 1165 points,  6 beta functions with: 
                l(1) =   0
                l(2) =   0
                l(3) =   1
                l(4) =   1
                l(5) =   2
                l(6) =   2
     Q(r) pseudized with 0 coefficients 


     atomic species   valence    mass     pseudopotential
        K              9.00    39.09830     K ( 1.00)

     48 Sym. Ops., with inversion, found



   Cartesian axes

     site n.     atom                  positions (alat units)
         1           K   tau(   1) = (   0.0000000   0.0000000   0.0000000  )

     number of k points=    35  gaussian smearing, width (Ry)=  0.0100
                       cart. coord. in units 2pi/alat
        k(    1) = (   0.0000000   0.0000000   0.0000000), wk =   0.0027435
        k(    2) = (   0.0000000  -0.1111111   0.1111111), wk =   0.0329218
        k(    3) = (   0.0000000  -0.2222222   0.2222222), wk =   0.0329218
        k(    4) = (   0.0000000  -0.3333333   0.3333333), wk =   0.0329218
        k(    5) = (   0.0000000  -0.4444444   0.4444444), wk =   0.0329218
        k(    6) = (  -0.1111111  -0.1111111   0.2222222), wk =   0.0658436
        k(    7) = (  -0.1111111  -0.2222222   0.3333333), wk =   0.1316872
        k(    8) = (  -0.1111111  -0.3333333   0.4444444), wk =   0.1316872
        k(    9) = (  -0.1111111   0.5555556  -0.4444444), wk =   0.0658436
        k(   10) = (  -0.2222222  -0.2222222   0.4444444), wk =   0.0658436
        k(   11) = (  -0.2222222   0.6666667  -0.4444444), wk =   0.1316872
        k(   12) = (  -0.3333333   0.6666667  -0.3333333), wk =   0.0219479
        k(   13) = (   0.0000000   0.0000000   0.2222222), wk =   0.0164609
        k(   14) = (   0.0000000  -0.1111111   0.3333333), wk =   0.0658436
        k(   15) = (   0.0000000  -0.2222222   0.4444444), wk =   0.0658436
        k(   16) = (   0.0000000  -0.3333333   0.5555556), wk =   0.0658436
        k(   17) = (  -0.1111111  -0.1111111   0.4444444), wk =   0.0658436
        k(   18) = (  -0.1111111  -0.2222222   0.5555556), wk =   0.1316872
        k(   19) = (  -0.1111111   0.6666667  -0.3333333), wk =   0.0658436
        k(   20) = (  -0.2222222   0.2222222   0.2222222), wk =   0.0219479
        k(   21) = (  -0.2222222   0.7777778  -0.3333333), wk =   0.0658436
        k(   22) = (  -0.3333333   0.3333333   0.2222222), wk =   0.0658436
        k(   23) = (   0.5555556  -0.5555556   0.2222222), wk =   0.0658436
        k(   24) = (   0.5555556  -0.6666667   0.3333333), wk =   0.0658436
        k(   25) = (   0.4444444  -0.5555556   0.3333333), wk =   0.0658436
        k(   26) = (   0.0000000   0.0000000   0.4444444), wk =   0.0164609
        k(   27) = (   0.0000000  -0.1111111   0.5555556), wk =   0.0658436
        k(   28) = (   0.0000000  -0.2222222   0.6666667), wk =   0.0658436
        k(   29) = (  -0.1111111  -0.1111111   0.6666667), wk =   0.0658436
        k(   30) = (  -0.1111111   0.7777778  -0.2222222), wk =   0.0658436
        k(   31) = (   0.5555556  -0.5555556   0.4444444), wk =   0.0219479
        k(   32) = (   0.0000000   0.0000000   0.6666667), wk =   0.0164609
        k(   33) = (   0.0000000  -0.1111111   0.7777778), wk =   0.0658436
        k(   34) = (  -0.1111111   0.8888889  -0.1111111), wk =   0.0219479
        k(   35) = (   0.0000000   0.0000000   0.8888889), wk =   0.0164609

     Dense  grid:    33837 G-vectors     FFT dimensions: (  45,  45,  45)

     Estimated max dynamical RAM per process >      31.28 MB

     Estimated total dynamical RAM >     156.39 MB

     Check: negative/imaginary core charge=   -0.000004    0.000000

     Initial potential from superposition of free atoms

     starting charge    8.98117, renormalised to    9.00000
     Starting wfcs are    8 randomized atomic wfcs +    1 random wfcs
     Checking if some PAW data can be deallocated... 

     total cpu time spent up to now is        1.6 secs

     Self-consistent Calculation

     iteration #  1     ecut=    65.00 Ry     beta= 0.70
     Davidson diagonalization with overlap
     ethr =  1.00E-02,  avg # of iterations =  6.7

     Threshold (ethr) on eigenvalues was too large:
     Diagonalizing with lowered threshold

     Davidson diagonalization with overlap
     ethr =  1.41E-05,  avg # of iterations =  6.6

     total cpu time spent up to now is        5.4 secs

     total energy              =    -113.01115019 Ry
     Harris-Foulkes estimate   =    -113.01166838 Ry
     estimated scf accuracy    <       0.00125995 Ry

     iteration #  2     ecut=    65.00 Ry     beta= 0.70
     Davidson diagonalization with overlap
     ethr =  1.40E-05,  avg # of iterations =  2.2

     total cpu time spent up to now is        6.7 secs

     total energy              =    -113.01137334 Ry
     Harris-Foulkes estimate   =    -113.01138311 Ry
     estimated scf accuracy    <       0.00010182 Ry

     iteration #  3     ecut=    65.00 Ry     beta= 0.70
     Davidson diagonalization with overlap
     ethr =  1.13E-06,  avg # of iterations =  2.1

     total cpu time spent up to now is        8.0 secs

     total energy              =    -113.01138533 Ry
     Harris-Foulkes estimate   =    -113.01138308 Ry
     estimated scf accuracy    <       0.00000696 Ry

     iteration #  4     ecut=    65.00 Ry     beta= 0.70
     Davidson diagonalization with overlap
     ethr =  7.73E-08,  avg # of iterations =  1.7

     total cpu time spent up to now is        9.2 secs

     total energy              =    -113.01138613 Ry
     Harris-Foulkes estimate   =    -113.01138613 Ry
     estimated scf accuracy    <       0.00000005 Ry

     iteration #  5     ecut=    65.00 Ry     beta= 0.70
     Davidson diagonalization with overlap
     ethr =  6.03E-10,  avg # of iterations =  2.5

     total cpu time spent up to now is       10.5 secs

     End of self-consistent calculation

          k = 0.0000 0.0000 0.0000 (  4213 PWs)   bands (ev):

   -30.1653 -13.6141 -13.6141 -13.6141  -0.2612   6.2635   6.2635   6.2635
     7.1811

          k = 0.0000-0.1111 0.1111 (  4210 PWs)   bands (ev):

   -30.1648 -13.6232 -13.6171 -13.6141  -0.1037   6.0104   6.0705   6.3895
     6.9674

          k = 0.0000-0.2222 0.2222 (  4236 PWs)   bands (ev):

   -30.1633 -13.6460 -13.6247 -13.6140   0.3556   5.1573   5.6806   6.7608
     6.9767

          k = 0.0000-0.3333 0.3333 (  4214 PWs)   bands (ev):

   -30.1617 -13.6716 -13.6333 -13.6140   1.0777   4.1200   5.3357   7.0333
     7.2488

          k = 0.0000-0.4444 0.4444 (  4238 PWs)   bands (ev):

   -30.1606 -13.6882 -13.6389 -13.6140   1.9919   3.0633   5.1451   6.9037
     7.5599

          k =-0.1111-0.1111 0.2222 (  4224 PWs)   bands (ev):

   -30.1638 -13.6389 -13.6204 -13.6163   0.2049   5.5223   5.6927   6.6172
     6.8003

          k =-0.1111-0.2222 0.3333 (  4238 PWs)   bands (ev):

   -30.1622 -13.6612 -13.6296 -13.6171   0.7968   4.6504   5.2738   6.8304
     7.0159

          k =-0.1111-0.3333 0.4444 (  4237 PWs)   bands (ev):

   -30.1609 -13.6801 -13.6386 -13.6173   1.6205   3.6477   5.0023   6.7738
     7.4243

          k =-0.1111 0.5556-0.4444 (  4232 PWs)   bands (ev):

   -30.1604 -13.6874 -13.6423 -13.6174   2.5097   2.7035   4.9077   6.6539
     7.8987

          k =-0.2222-0.2222 0.4444 (  4237 PWs)   bands (ev):

   -30.1610 -13.6736 -13.6396 -13.6209   1.4934   4.1235   4.6546   6.9386
     6.9440

          k =-0.2222 0.6667-0.4444 (  4240 PWs)   bands (ev):

   -30.1602 -13.6785 -13.6504 -13.6221   2.3798   3.3353   4.2973   6.6264
     7.2539

          k =-0.3333 0.6667-0.3333 (  4237 PWs)   bands (ev):

   -30.1599 -13.6667 -13.6667 -13.6237   3.1572   3.1572   3.5778   6.5950
     7.3431

          k = 0.0000 0.0000 0.2222 (  4221 PWs)   bands (ev):

   -30.1642 -13.6256 -13.6202 -13.6202   0.0518   5.9740   5.9740   6.3457
     6.4470

          k = 0.0000-0.1111 0.3333 (  4227 PWs)   bands (ev):

   -30.1628 -13.6457 -13.6279 -13.6214   0.5053   5.2035   5.6668   6.2130
     6.7770

          k = 0.0000-0.2222 0.4444 (  4248 PWs)   bands (ev):

   -30.1612 -13.6700 -13.6367 -13.6209   1.2182   4.1892   5.3626   6.2626
     7.3527

          k = 0.0000-0.3333 0.5556 (  4249 PWs)   bands (ev):

   -30.1602 -13.6858 -13.6424 -13.6206   2.1239   3.1566   5.1893   6.1747
     7.4848

          k =-0.1111-0.1111 0.4444 (  4246 PWs)   bands (ev):

   -30.1614 -13.6616 -13.6370 -13.6257   1.0812   4.6161   5.2405   6.1652
     7.0905

          k =-0.1111-0.2222 0.5556 (  4248 PWs)   bands (ev):

   -30.1601 -13.6768 -13.6469 -13.6263   1.8824   3.7890   4.8516   6.2364
     7.1102

          k =-0.1111 0.6667-0.3333 (  4238 PWs)   bands (ev):

   -30.1596 -13.6829 -13.6509 -13.6262   2.8124   2.8415   4.7140   6.1742
     7.2762

          k =-0.2222 0.2222 0.2222 (  4240 PWs)   bands (ev):

   -30.1626 -13.6578 -13.6211 -13.6211   0.6526   5.0367   5.0367   6.8546
     7.2417

          k =-0.2222 0.7778-0.3333 (  4240 PWs)   bands (ev):

   -30.1593 -13.6754 -13.6613 -13.6278   2.7156   3.4544   4.0403   6.6390
     6.8904

          k =-0.3333 0.3333 0.2222 (  4250 PWs)   bands (ev):

   -30.1613 -13.6729 -13.6329 -13.6220   1.3592   4.1944   4.6984   6.7954
     7.3773

          k = 0.5556-0.5556 0.2222 (  4235 PWs)   bands (ev):

   -30.1605 -13.6803 -13.6430 -13.6225   2.2574   3.2483   4.5270   6.4481
     7.5907

          k = 0.5556-0.6667 0.3333 (  4239 PWs)   bands (ev):

   -30.1606 -13.6745 -13.6425 -13.6283   2.1430   3.7950   4.1230   6.1703
     7.5111

          k = 0.4444-0.5556 0.3333 (  4219 PWs)   bands (ev):

   -30.1602 -13.6702 -13.6522 -13.6297   3.0080   3.0757   3.9303   5.8703
     7.6142

          k = 0.0000 0.0000 0.4444 (  4253 PWs)   bands (ev):

   -30.1615 -13.6486 -13.6360 -13.6360   0.9408   5.0916   5.5707   5.5707
     6.9602

          k = 0.0000-0.1111 0.5556 (  4257 PWs)   bands (ev):

   -30.1600 -13.6661 -13.6451 -13.6381   1.6225   4.3137   5.4105   5.5637
     6.8803

          k = 0.0000-0.2222 0.6667 (  4252 PWs)   bands (ev):

   -30.1591 -13.6797 -13.6511 -13.6371   2.4825   3.4201   5.2991   5.3836
     6.9030

          k =-0.1111-0.1111 0.6667 (  4250 PWs)   bands (ev):

   -30.1588 -13.6731 -13.6565 -13.6414   2.3625   3.8669   4.8049   5.8550
     6.5013

          k =-0.1111 0.7778-0.2222 (  4246 PWs)   bands (ev):

   -30.1584 -13.6759 -13.6625 -13.6413   3.1097   3.2822   4.4711   5.9656
     6.5780

          k = 0.5556-0.5556 0.4444 (  4234 PWs)   bands (ev):

   -30.1603 -13.6637 -13.6444 -13.6444   2.9328   3.6335   3.6335   5.3476
     7.7556

          k = 0.0000 0.0000 0.6667 (  4276 PWs)   bands (ev):

   -30.1587 -13.6643 -13.6547 -13.6547   2.2388   4.1494   5.4274   5.4274
     6.0569

          k = 0.0000-0.1111 0.7778 (  4263 PWs)   bands (ev):

   -30.1578 -13.6728 -13.6609 -13.6557   2.9652   3.6835   5.1078   5.4182
     6.1139

          k =-0.1111 0.8889-0.1111 (  4268 PWs)   bands (ev):

   -30.1573 -13.6697 -13.6697 -13.6572   3.4567   3.4567   4.7977   5.8448
     5.8449

          k = 0.0000 0.0000 0.8889 (  4260 PWs)   bands (ev):

   -30.1569 -13.6688 -13.6673 -13.6673   3.4184   3.6611   5.4800   5.4907
     5.4908

     the Fermi energy is     1.9573 ev

!    total energy              =    -113.01138614 Ry
     Harris-Foulkes estimate   =    -113.01138614 Ry
     estimated scf accuracy    <          2.4E-09 Ry

     total all-electron energy =     -1204.250096 Ry

     The total energy is the sum of the following terms:

     one-electron contribution =     -35.40530142 Ry
     hartree contribution      =      18.88015741 Ry
     xc contribution           =     -11.16978371 Ry
     ewald contribution        =     -29.89633970 Ry
     one-center paw contrib.   =     -55.41968370 Ry
     smearing contrib. (-TS)   =      -0.00043502 Ry

     convergence has been achieved in   5 iterations

     Forces acting on atoms (cartesian axes, Ry/au):

     atom    1 type  1   force =     0.00000000    0.00000000    0.00000000

     Total force =     0.000000     Total SCF correction =     0.000000


     Computing stress (Cartesian axis) and pressure

          total   stress  (Ry/bohr**3)                   (kbar)     P=    1.36
   0.00000924  -0.00000000   0.00000000          1.36     -0.00      0.00
  -0.00000000   0.00000924  -0.00000000         -0.00      1.36     -0.00
   0.00000000   0.00000000   0.00000924          0.00      0.00      1.36


     Writing output data file K.save/

     init_run     :      0.78s CPU      0.82s WALL (       1 calls)
     electrons    :      8.65s CPU      8.96s WALL (       1 calls)
     forces       :      0.16s CPU      0.16s WALL (       1 calls)
     stress       :      0.61s CPU      0.61s WALL (       1 calls)

     Called by init_run:
     wfcinit      :      0.34s CPU      0.36s WALL (       1 calls)
     potinit      :      0.16s CPU      0.18s WALL (       1 calls)
     hinit0       :      0.19s CPU      0.19s WALL (       1 calls)

     Called by electrons:
     c_bands      :      6.63s CPU      6.88s WALL (       6 calls)
     sum_band     :      1.25s CPU      1.30s WALL (       6 calls)
     v_of_rho     :      0.12s CPU      0.12s WALL (       6 calls)
     newd         :      0.21s CPU      0.21s WALL (       6 calls)
     PAW_pot      :      0.61s CPU      0.63s WALL (       6 calls)
     mix_rho      :      0.01s CPU      0.01s WALL (       6 calls)

     Called by c_bands:
     init_us_2    :      0.27s CPU      0.27s WALL (     525 calls)
     cegterg      :      6.33s CPU      6.57s WALL (     210 calls)

     Called by sum_band:
     sum_band:bec :      0.00s CPU      0.00s WALL (     210 calls)
     addusdens    :      0.18s CPU      0.19s WALL (       6 calls)

     Called by *egterg:
     h_psi        :      5.20s CPU      5.44s WALL (    1008 calls)
     s_psi        :      0.18s CPU      0.18s WALL (    1008 calls)
     g_psi        :      0.02s CPU      0.02s WALL (     763 calls)
     cdiaghg      :      0.24s CPU      0.24s WALL (     938 calls)

     Called by h_psi:
     h_psi:pot    :      5.17s CPU      5.41s WALL (    1008 calls)
     h_psi:calbec :      0.31s CPU      0.33s WALL (    1008 calls)
     vloc_psi     :      4.66s CPU      4.87s WALL (    1008 calls)
     add_vuspsi   :      0.19s CPU      0.20s WALL (    1008 calls)

     General routines
     calbec       :      0.49s CPU      0.51s WALL (    1393 calls)
     fft          :      0.08s CPU      0.09s WALL (      93 calls)
     ffts         :      0.00s CPU      0.00s WALL (       6 calls)
     fftw         :      5.08s CPU      5.32s WALL (   13136 calls)

     Parallel routines
     fft_scatt_xy :      0.40s CPU      0.42s WALL (   13235 calls)
     fft_scatt_yz :      1.19s CPU      1.25s WALL (   13235 calls)

     PWSCF        :    11.03s CPU        11.53s WALL


   This run was terminated on:   0:53: 8   8Apr2024            

=------------------------------------------------------------------------------=
   JOB DONE.
=------------------------------------------------------------------------------=
