
     Program PWSCF v.6.3MaX starts on  8Apr2024 at  1: 4:13 

     This program is part of the open-source Quantum ESPRESSO suite
     for quantum simulation of materials; please cite
         "P. Giannozzi et al., J. Phys.:Condens. Matter 21 395502 (2009);
         "P. Giannozzi et al., J. Phys.:Condens. Matter 29 465901 (2017);
          URL http://www.quantum-espresso.org", 
     in publications or presentations arising from this work. More details at
     http://www.quantum-espresso.org/quote

     Parallel version (MPI), running on     5 processors

     MPI processes distributed on     1 nodes
     R & G space division:  proc/nbgrp/npool/nimage =       5
     Waiting for input...
     Reading input from standard input

     Current dimensions of program PWSCF are:
     Max number of different atomic species (ntypx) = 10
     Max number of k-points (npk) =  40000
     Max angular momentum in pseudopotentials (lmaxx) =  3
               file K.pz-spn-kjpaw_psl.1.0.0.UPF: wavefunction(s)  3S renormalized

     Subspace diagonalization in iterative solution of the eigenvalue problem:
     a serial algorithm will be used


     Parallelization info
     --------------------
     sticks:   dense  smooth     PW     G-vecs:    dense   smooth      PW
     Min         330     330     94                 8429     8429    1305
     Max         331     331     95                 8430     8430    1307
     Sum        1653    1653    471                42147    42147    6531



     bravais-lattice index     =            3
     lattice parameter (alat)  =       9.8600  a.u.
     unit-cell volume          =     479.2926 (a.u.)^3
     number of atoms/cell      =            1
     number of atomic types    =            1
     number of electrons       =         9.00
     number of Kohn-Sham states=            9
     kinetic-energy cutoff     =      75.0000  Ry
     charge density cutoff     =     300.0000  Ry
     convergence threshold     =      1.0E-08
     mixing beta               =       0.7000
     number of iterations used =            8  plain     mixing
     Exchange-correlation      = SLA PZ NOGX NOGC ( 1  1  0  0 0 0)

     celldm(1)=   9.860000  celldm(2)=   0.000000  celldm(3)=   0.000000
     celldm(4)=   0.000000  celldm(5)=   0.000000  celldm(6)=   0.000000

     crystal axes: (cart. coord. in units of alat)
               a(1) = (   0.500000   0.500000   0.500000 )  
               a(2) = (  -0.500000   0.500000   0.500000 )  
               a(3) = (  -0.500000  -0.500000   0.500000 )  

     reciprocal axes: (cart. coord. in units 2 pi/alat)
               b(1) = (  1.000000  0.000000  1.000000 )  
               b(2) = ( -1.000000  1.000000  0.000000 )  
               b(3) = (  0.000000 -1.000000  1.000000 )  


     PseudoPot. # 1 for K  read from file:
     /home/lorenzo/pseudos/K/K.pz-spn-kjpaw_psl.1.0.0.UPF
     MD5 check sum: 59b94f4c1a6681f21e103574f2c5fc67
     Pseudo is Projector augmented-wave + core cor, Zval =  9.0
     Generated using "atomic" code by A. Dal Corso v.6.2.2
     Shape of augmentation charge: PSQ
     Using radial grid of 1165 points,  6 beta functions with: 
                l(1) =   0
                l(2) =   0
                l(3) =   1
                l(4) =   1
                l(5) =   2
                l(6) =   2
     Q(r) pseudized with 0 coefficients 


     atomic species   valence    mass     pseudopotential
        K              9.00    39.09830     K ( 1.00)

     48 Sym. Ops., with inversion, found



   Cartesian axes

     site n.     atom                  positions (alat units)
         1           K   tau(   1) = (   0.0000000   0.0000000   0.0000000  )

     number of k points=    16  gaussian smearing, width (Ry)=  0.0100
                       cart. coord. in units 2pi/alat
        k(    1) = (   0.0000000   0.0000000   0.0000000), wk =   0.0092593
        k(    2) = (   0.0000000  -0.1666667   0.1666667), wk =   0.1111111
        k(    3) = (   0.0000000  -0.3333333   0.3333333), wk =   0.1111111
        k(    4) = (   0.0000000   0.5000000  -0.5000000), wk =   0.0555556
        k(    5) = (  -0.1666667  -0.1666667   0.3333333), wk =   0.2222222
        k(    6) = (  -0.1666667   0.6666667  -0.5000000), wk =   0.4444444
        k(    7) = (  -0.3333333   0.6666667  -0.3333333), wk =   0.0740741
        k(    8) = (   0.0000000   0.0000000   0.3333333), wk =   0.0555556
        k(    9) = (   0.0000000  -0.1666667   0.5000000), wk =   0.2222222
        k(   10) = (   0.0000000   0.6666667  -0.3333333), wk =   0.1111111
        k(   11) = (  -0.1666667   0.8333333  -0.3333333), wk =   0.2222222
        k(   12) = (   0.6666667  -0.6666667   0.3333333), wk =   0.0740741
        k(   13) = (   0.5000000  -0.5000000   0.3333333), wk =   0.1111111
        k(   14) = (   0.0000000   0.0000000   0.6666667), wk =   0.0555556
        k(   15) = (   0.0000000   0.8333333  -0.1666667), wk =   0.1111111
        k(   16) = (   0.0000000   0.0000000  -1.0000000), wk =   0.0092593

     Dense  grid:    42147 G-vectors     FFT dimensions: (  48,  48,  48)

     Estimated max dynamical RAM per process >      35.87 MB

     Estimated total dynamical RAM >     179.33 MB

     Check: negative/imaginary core charge=   -0.000002    0.000000

     Initial potential from superposition of free atoms

     starting charge    8.98437, renormalised to    9.00000
     Starting wfcs are    8 randomized atomic wfcs +    1 random wfcs
     Checking if some PAW data can be deallocated... 

     total cpu time spent up to now is        1.3 secs

     Self-consistent Calculation

     iteration #  1     ecut=    75.00 Ry     beta= 0.70
     Davidson diagonalization with overlap
     ethr =  1.00E-02,  avg # of iterations =  6.9

     Threshold (ethr) on eigenvalues was too large:
     Diagonalizing with lowered threshold

     Davidson diagonalization with overlap
     ethr =  1.22E-05,  avg # of iterations =  5.7

     total cpu time spent up to now is        3.6 secs

     total energy              =    -109.87068877 Ry
     Harris-Foulkes estimate   =    -109.87123825 Ry
     estimated scf accuracy    <       0.00109612 Ry

     iteration #  2     ecut=    75.00 Ry     beta= 0.70
     Davidson diagonalization with overlap
     ethr =  1.22E-05,  avg # of iterations =  2.1

     total cpu time spent up to now is        4.5 secs

     total energy              =    -109.87087366 Ry
     Harris-Foulkes estimate   =    -109.87089844 Ry
     estimated scf accuracy    <       0.00008862 Ry

     iteration #  3     ecut=    75.00 Ry     beta= 0.70
     Davidson diagonalization with overlap
     ethr =  9.85E-07,  avg # of iterations =  2.0

     total cpu time spent up to now is        5.3 secs

     total energy              =    -109.87088494 Ry
     Harris-Foulkes estimate   =    -109.87088467 Ry
     estimated scf accuracy    <       0.00000591 Ry

     iteration #  4     ecut=    75.00 Ry     beta= 0.70
     Davidson diagonalization with overlap
     ethr =  6.57E-08,  avg # of iterations =  1.4

     total cpu time spent up to now is        5.9 secs

     total energy              =    -109.87088565 Ry
     Harris-Foulkes estimate   =    -109.87088564 Ry
     estimated scf accuracy    <       0.00000004 Ry

     iteration #  5     ecut=    75.00 Ry     beta= 0.70
     Davidson diagonalization with overlap
     ethr =  4.51E-10,  avg # of iterations =  2.4

     total cpu time spent up to now is        7.0 secs

     End of self-consistent calculation

          k = 0.0000 0.0000 0.0000 (  5281 PWs)   bands (ev):

   -30.0975 -13.7358 -13.7358 -13.7358  -0.4766   5.9289   5.9289   6.8753
     6.8754

          k = 0.0000-0.1667 0.1667 (  5259 PWs)   bands (ev):

   -30.0962 -13.7560 -13.7425 -13.7357  -0.1232   5.3545   5.5695   6.2125
     6.6289

          k = 0.0000-0.3333 0.3333 (  5269 PWs)   bands (ev):

   -30.0936 -13.7959 -13.7559 -13.7357   0.8680   3.9019   5.0444   6.7056
     7.0217

          k = 0.0000 0.5000-0.5000 (  5284 PWs)   bands (ev):

   -30.0923 -13.8155 -13.7626 -13.7357   2.1433   2.4885   4.8352   6.5326
     7.8350

          k =-0.1667-0.1667 0.3333 (  5253 PWs)   bands (ev):

   -30.0942 -13.7831 -13.7508 -13.7404   0.5513   4.5551   4.9191   6.5131
     6.6125

          k =-0.1667 0.6667-0.5000 (  5244 PWs)   bands (ev):

   -30.0923 -13.8054 -13.7665 -13.7420   1.7704   3.2644   4.4359   6.3535
     7.0068

          k =-0.3333 0.6667-0.3333 (  5270 PWs)   bands (ev):

   -30.0916 -13.7907 -13.7907 -13.7458   2.9759   2.9759   3.3018   6.2471
     7.0175

          k = 0.0000 0.0000 0.3333 (  5249 PWs)   bands (ev):

   -30.0949 -13.7596 -13.7495 -13.7495   0.2202   5.4561   5.4561   5.4650
     6.3317

          k = 0.0000-0.1667 0.5000 (  5276 PWs)   bands (ev):

   -30.0925 -13.7923 -13.7634 -13.7510   1.1836   4.0437   5.1097   5.5969
     6.9423

          k = 0.0000 0.6667-0.3333 (  5274 PWs)   bands (ev):

   -30.0913 -13.8099 -13.7703 -13.7502   2.4997   2.6359   4.9459   5.4359
     6.9575

          k =-0.1667 0.8333-0.3333 (  5262 PWs)   bands (ev):

   -30.0908 -13.8001 -13.7824 -13.7563   2.3154   3.4574   4.1424   5.9586
     6.4091

          k = 0.6667-0.6667 0.3333 (  5249 PWs)   bands (ev):

   -30.0928 -13.7986 -13.7535 -13.7535   1.4907   4.0002   4.0003   6.0846
     7.2191

          k = 0.5000-0.5000 0.3333 (  5250 PWs)   bands (ev):

   -30.0921 -13.7948 -13.7716 -13.7549   2.8135   2.8191   3.8181   5.3876
     7.3202

          k = 0.0000 0.0000 0.6667 (  5242 PWs)   bands (ev):

   -30.0903 -13.7883 -13.7782 -13.7782   2.0409   3.9448   5.1733   5.1733
     5.7571

          k = 0.0000 0.8333-0.1667 (  5258 PWs)   bands (ev):

   -30.0892 -13.7988 -13.7856 -13.7790   3.0505   3.2525   4.7480   5.1706
     5.9418

          k = 0.0000 0.0000-1.0000 (  5162 PWs)   bands (ev):

   -30.0882 -13.7932 -13.7932 -13.7932   3.4014   5.2834   5.2834   5.2834
     7.2562

     the Fermi energy is     1.7553 ev

!    total energy              =    -109.87088566 Ry
     Harris-Foulkes estimate   =    -109.87088567 Ry
     estimated scf accuracy    <          3.7E-09 Ry

     total all-electron energy =     -1201.195885 Ry

     The total energy is the sum of the following terms:

     one-electron contribution =     -35.36905876 Ry
     hartree contribution      =      18.82646559 Ry
     xc contribution           =     -11.01694646 Ry
     ewald contribution        =     -29.89633970 Ry
     one-center paw contrib.   =     -52.41376113 Ry
     smearing contrib. (-TS)   =      -0.00124521 Ry

     convergence has been achieved in   5 iterations

     Forces acting on atoms (cartesian axes, Ry/au):

     atom    1 type  1   force =     0.00000000    0.00000000    0.00000000

     Total force =     0.000000     Total SCF correction =     0.000000


     Computing stress (Cartesian axis) and pressure

          total   stress  (Ry/bohr**3)                   (kbar)     P=   -3.72
  -0.00002526  -0.00000000   0.00000000         -3.72     -0.00      0.00
  -0.00000000  -0.00002526  -0.00000000         -0.00     -3.72     -0.00
   0.00000000  -0.00000000  -0.00002526          0.00     -0.00     -3.72


     Writing output data file K.save/

     init_run     :      0.54s CPU      0.55s WALL (       1 calls)
     electrons    :      5.59s CPU      5.78s WALL (       1 calls)
     forces       :      0.20s CPU      0.21s WALL (       1 calls)
     stress       :      0.59s CPU      0.59s WALL (       1 calls)

     Called by init_run:
     wfcinit      :      0.19s CPU      0.19s WALL (       1 calls)
     potinit      :      0.05s CPU      0.05s WALL (       1 calls)
     hinit0       :      0.21s CPU      0.21s WALL (       1 calls)

     Called by electrons:
     c_bands      :      4.25s CPU      4.40s WALL (       6 calls)
     sum_band     :      0.86s CPU      0.89s WALL (       6 calls)
     v_of_rho     :      0.02s CPU      0.02s WALL (       6 calls)
     newd         :      0.26s CPU      0.26s WALL (       6 calls)
     PAW_pot      :      0.26s CPU      0.26s WALL (       6 calls)
     mix_rho      :      0.01s CPU      0.01s WALL (       6 calls)

     Called by c_bands:
     init_us_2    :      0.17s CPU      0.17s WALL (     240 calls)
     cegterg      :      4.02s CPU      4.17s WALL (      96 calls)

     Called by sum_band:
     sum_band:bec :      0.00s CPU      0.00s WALL (      96 calls)
     addusdens    :      0.23s CPU      0.24s WALL (       6 calls)

     Called by *egterg:
     h_psi        :      3.31s CPU      3.44s WALL (     441 calls)
     s_psi        :      0.11s CPU      0.11s WALL (     441 calls)
     g_psi        :      0.01s CPU      0.01s WALL (     329 calls)
     cdiaghg      :      0.11s CPU      0.11s WALL (     409 calls)

     Called by h_psi:
     h_psi:pot    :      3.28s CPU      3.42s WALL (     441 calls)
     h_psi:calbec :      0.20s CPU      0.21s WALL (     441 calls)
     vloc_psi     :      2.95s CPU      3.08s WALL (     441 calls)
     add_vuspsi   :      0.12s CPU      0.13s WALL (     441 calls)

     General routines
     calbec       :      0.35s CPU      0.36s WALL (     617 calls)
     fft          :      0.05s CPU      0.05s WALL (      34 calls)
     ffts         :      0.01s CPU      0.01s WALL (       6 calls)
     fftw         :      3.12s CPU      3.26s WALL (    5986 calls)

     Parallel routines
     fft_scatt_xy :      0.24s CPU      0.25s WALL (    6026 calls)
     fft_scatt_yz :      0.92s CPU      0.96s WALL (    6026 calls)

     PWSCF        :     7.73s CPU         8.04s WALL


   This run was terminated on:   1: 4:21   8Apr2024            

=------------------------------------------------------------------------------=
   JOB DONE.
=------------------------------------------------------------------------------=
