
     Program PWSCF v.6.3MaX starts on  8Apr2024 at  0: 5:59 

     This program is part of the open-source Quantum ESPRESSO suite
     for quantum simulation of materials; please cite
         "P. Giannozzi et al., J. Phys.:Condens. Matter 21 395502 (2009);
         "P. Giannozzi et al., J. Phys.:Condens. Matter 29 465901 (2017);
          URL http://www.quantum-espresso.org", 
     in publications or presentations arising from this work. More details at
     http://www.quantum-espresso.org/quote

     Parallel version (MPI), running on     5 processors

     MPI processes distributed on     1 nodes
     R & G space division:  proc/nbgrp/npool/nimage =       5
     Waiting for input...
     Reading input from standard input

     Current dimensions of program PWSCF are:
     Max number of different atomic species (ntypx) = 10
     Max number of k-points (npk) =  40000
     Max angular momentum in pseudopotentials (lmaxx) =  3
               file K.pbe-spn-rrkjus_psl.1.0.0.UPF: wavefunction(s)  3S renormalized

     Subspace diagonalization in iterative solution of the eigenvalue problem:
     a serial algorithm will be used


     Parallelization info
     --------------------
     sticks:   dense  smooth     PW     G-vecs:    dense   smooth      PW
     Min         438     438    124                12915    12915    1972
     Max         439     439    126                12916    12916    1973
     Sum        2191    2191    623                64579    64579    9861



     bravais-lattice index     =            3
     lattice parameter (alat)  =       9.8600  a.u.
     unit-cell volume          =     479.2926 (a.u.)^3
     number of atoms/cell      =            1
     number of atomic types    =            1
     number of electrons       =         9.00
     number of Kohn-Sham states=            9
     kinetic-energy cutoff     =     100.0000  Ry
     charge density cutoff     =     400.0000  Ry
     convergence threshold     =      1.0E-08
     mixing beta               =       0.7000
     number of iterations used =            8  plain     mixing
     Exchange-correlation      = PBE ( 1  4  3  4 0 0)

     celldm(1)=   9.860000  celldm(2)=   0.000000  celldm(3)=   0.000000
     celldm(4)=   0.000000  celldm(5)=   0.000000  celldm(6)=   0.000000

     crystal axes: (cart. coord. in units of alat)
               a(1) = (   0.500000   0.500000   0.500000 )  
               a(2) = (  -0.500000   0.500000   0.500000 )  
               a(3) = (  -0.500000  -0.500000   0.500000 )  

     reciprocal axes: (cart. coord. in units 2 pi/alat)
               b(1) = (  1.000000  0.000000  1.000000 )  
               b(2) = ( -1.000000  1.000000  0.000000 )  
               b(3) = (  0.000000 -1.000000  1.000000 )  


     PseudoPot. # 1 for K  read from file:
     /home/lorenzo/pseudos/K/K.pbe-spn-rrkjus_psl.1.0.0.UPF
     MD5 check sum: 897b700350bb708b0563e904352feb48
     Pseudo is Ultrasoft + core correction, Zval =  9.0
     Generated using "atomic" code by A. Dal Corso v.6.2.2
     Using radial grid of 1165 points,  6 beta functions with: 
                l(1) =   0
                l(2) =   0
                l(3) =   1
                l(4) =   1
                l(5) =   2
                l(6) =   2
     Q(r) pseudized with 0 coefficients 


     atomic species   valence    mass     pseudopotential
        K              9.00    39.09830     K ( 1.00)

     48 Sym. Ops., with inversion, found



   Cartesian axes

     site n.     atom                  positions (alat units)
         1           K   tau(   1) = (   0.0000000   0.0000000   0.0000000  )

     number of k points=    16  gaussian smearing, width (Ry)=  0.0100
                       cart. coord. in units 2pi/alat
        k(    1) = (   0.0000000   0.0000000   0.0000000), wk =   0.0092593
        k(    2) = (   0.0000000  -0.1666667   0.1666667), wk =   0.1111111
        k(    3) = (   0.0000000  -0.3333333   0.3333333), wk =   0.1111111
        k(    4) = (   0.0000000   0.5000000  -0.5000000), wk =   0.0555556
        k(    5) = (  -0.1666667  -0.1666667   0.3333333), wk =   0.2222222
        k(    6) = (  -0.1666667   0.6666667  -0.5000000), wk =   0.4444444
        k(    7) = (  -0.3333333   0.6666667  -0.3333333), wk =   0.0740741
        k(    8) = (   0.0000000   0.0000000   0.3333333), wk =   0.0555556
        k(    9) = (   0.0000000  -0.1666667   0.5000000), wk =   0.2222222
        k(   10) = (   0.0000000   0.6666667  -0.3333333), wk =   0.1111111
        k(   11) = (  -0.1666667   0.8333333  -0.3333333), wk =   0.2222222
        k(   12) = (   0.6666667  -0.6666667   0.3333333), wk =   0.0740741
        k(   13) = (   0.5000000  -0.5000000   0.3333333), wk =   0.1111111
        k(   14) = (   0.0000000   0.0000000   0.6666667), wk =   0.0555556
        k(   15) = (   0.0000000   0.8333333  -0.1666667), wk =   0.1111111
        k(   16) = (   0.0000000   0.0000000  -1.0000000), wk =   0.0092593

     Dense  grid:    64579 G-vectors     FFT dimensions: (  60,  60,  60)

     Estimated max dynamical RAM per process >      54.69 MB

     Estimated total dynamical RAM >     273.45 MB

     Check: negative/imaginary core charge=   -0.000001    0.000000

     Initial potential from superposition of free atoms

     starting charge    8.98117, renormalised to    9.00000
     Starting wfcs are    8 randomized atomic wfcs +    1 random wfcs

     total cpu time spent up to now is        1.7 secs

     Self-consistent Calculation

     iteration #  1     ecut=   100.00 Ry     beta= 0.70
     Davidson diagonalization with overlap
     ethr =  1.00E-02,  avg # of iterations =  6.8

     Threshold (ethr) on eigenvalues was too large:
     Diagonalizing with lowered threshold

     Davidson diagonalization with overlap
     ethr =  1.42E-05,  avg # of iterations =  5.9

     total cpu time spent up to now is        5.5 secs

     total energy              =     -58.77291683 Ry
     Harris-Foulkes estimate   =     -58.77344202 Ry
     estimated scf accuracy    <       0.00126390 Ry

     iteration #  2     ecut=   100.00 Ry     beta= 0.70
     Davidson diagonalization with overlap
     ethr =  1.40E-05,  avg # of iterations =  2.1

     total cpu time spent up to now is        6.8 secs

     total energy              =     -58.77314949 Ry
     Harris-Foulkes estimate   =     -58.77315193 Ry
     estimated scf accuracy    <       0.00010102 Ry

     iteration #  3     ecut=   100.00 Ry     beta= 0.70
     Davidson diagonalization with overlap
     ethr =  1.12E-06,  avg # of iterations =  2.2

     total cpu time spent up to now is        8.2 secs

     total energy              =     -58.77315942 Ry
     Harris-Foulkes estimate   =     -58.77315679 Ry
     estimated scf accuracy    <       0.00000685 Ry

     iteration #  4     ecut=   100.00 Ry     beta= 0.70
     Davidson diagonalization with overlap
     ethr =  7.61E-08,  avg # of iterations =  1.5

     total cpu time spent up to now is        9.5 secs

     total energy              =     -58.77315994 Ry
     Harris-Foulkes estimate   =     -58.77315994 Ry
     estimated scf accuracy    <       0.00000005 Ry

     iteration #  5     ecut=   100.00 Ry     beta= 0.70
     Davidson diagonalization with overlap
     ethr =  5.48E-10,  avg # of iterations =  2.4

     total cpu time spent up to now is       10.8 secs

     End of self-consistent calculation

          k = 0.0000 0.0000 0.0000 (  8151 PWs)   bands (ev):

   -30.1644 -13.6128 -13.6128 -13.6128  -0.2615   6.2636   6.2636   6.2636
     7.1826

          k = 0.0000-0.1667 0.1667 (  8110 PWs)   bands (ev):

   -30.1632 -13.6322 -13.6192 -13.6128   0.0898   5.6329   5.8815   6.5455
     6.9370

          k = 0.0000-0.3333 0.3333 (  8108 PWs)   bands (ev):

   -30.1608 -13.6704 -13.6320 -13.6127   1.0774   4.1199   5.3356   7.0342
     7.2499

          k = 0.0000 0.5000-0.5000 (  8050 PWs)   bands (ev):

   -30.1595 -13.6892 -13.6384 -13.6127   2.3892   2.6487   5.1203   6.8721
     7.9905

          k =-0.1667-0.1667 0.3333 (  8113 PWs)   bands (ev):

   -30.1614 -13.6581 -13.6272 -13.6172   0.7610   4.7937   5.1890   6.8186
     6.9390

          k =-0.1667 0.6667-0.5000 (  8091 PWs)   bands (ev):

   -30.1595 -13.6795 -13.6422 -13.6187   1.9774   3.4681   4.6896   6.6782
     7.3334

          k =-0.3333 0.6667-0.3333 (  8088 PWs)   bands (ev):

   -30.1589 -13.6654 -13.6654 -13.6224   3.1569   3.1569   3.5775   6.5950
     7.3441

          k = 0.0000 0.0000 0.3333 (  8108 PWs)   bands (ev):

   -30.1620 -13.6357 -13.6259 -13.6259   0.4311   5.6998   5.7503   5.7503
     6.6682

          k = 0.0000-0.1667 0.5000 (  8093 PWs)   bands (ev):

   -30.1597 -13.6669 -13.6392 -13.6274   1.3896   4.2596   5.3876   5.8634
     7.2777

          k = 0.0000 0.6667-0.3333 (  8082 PWs)   bands (ev):

   -30.1586 -13.6838 -13.6458 -13.6267   2.7374   2.8021   5.2191   5.7077
     7.2748

          k =-0.1667 0.8333-0.3333 (  8083 PWs)   bands (ev):

   -30.1581 -13.6744 -13.6574 -13.6325   2.5131   3.6520   4.4032   6.2366
     6.7208

          k = 0.6667-0.6667 0.3333 (  8076 PWs)   bands (ev):

   -30.1600 -13.6730 -13.6298 -13.6298   1.6962   4.2249   4.2249   6.4107
     7.5581

          k = 0.5000-0.5000 0.3333 (  8088 PWs)   bands (ev):

   -30.1594 -13.6694 -13.6471 -13.6311   2.9892   3.0443   4.0380   5.7325
     7.6661

          k = 0.0000 0.0000 0.6667 (  8088 PWs)   bands (ev):

   -30.1577 -13.6631 -13.6534 -13.6534   2.2386   4.1500   5.4269   5.4269
     6.0574

          k = 0.0000 0.8333-0.1667 (  8084 PWs)   bands (ev):

   -30.1567 -13.6731 -13.6605 -13.6542   3.2335   3.4576   5.0192   5.4152
     6.2007

          k = 0.0000 0.0000-1.0000 (  8128 PWs)   bands (ev):

   -30.1557 -13.6678 -13.6678 -13.6678   3.5999   5.5109   5.5109   5.5109
     7.6780

     the Fermi energy is     1.9623 ev

!    total energy              =     -58.77315996 Ry
     Harris-Foulkes estimate   =     -58.77315996 Ry
     estimated scf accuracy    <          1.6E-09 Ry

     The total energy is the sum of the following terms:

     one-electron contribution =     -36.58681641 Ry
     hartree contribution      =      18.88127807 Ry
     xc contribution           =     -11.17003638 Ry
     ewald contribution        =     -29.89633970 Ry
     smearing contrib. (-TS)   =      -0.00124554 Ry

     convergence has been achieved in   5 iterations

     Forces acting on atoms (cartesian axes, Ry/au):

     atom    1 type  1   force =     0.00000000    0.00000000    0.00000000

     Total force =     0.000000     Total SCF correction =     0.000000


     Computing stress (Cartesian axis) and pressure

          total   stress  (Ry/bohr**3)                   (kbar)     P=    1.79
   0.00001219  -0.00000000   0.00000000          1.79     -0.00      0.00
  -0.00000000   0.00001219  -0.00000000         -0.00      1.79     -0.00
   0.00000000  -0.00000000   0.00001219          0.00     -0.00      1.79


     Writing output data file K.save/

     init_run     :      0.89s CPU      0.93s WALL (       1 calls)
     electrons    :      8.67s CPU      9.08s WALL (       1 calls)
     forces       :      0.20s CPU      0.22s WALL (       1 calls)
     stress       :      0.79s CPU      0.84s WALL (       1 calls)

     Called by init_run:
     wfcinit      :      0.40s CPU      0.41s WALL (       1 calls)
     potinit      :      0.06s CPU      0.07s WALL (       1 calls)
     hinit0       :      0.26s CPU      0.27s WALL (       1 calls)

     Called by electrons:
     c_bands      :      6.60s CPU      6.84s WALL (       6 calls)
     sum_band     :      1.50s CPU      1.61s WALL (       6 calls)
     v_of_rho     :      0.26s CPU      0.28s WALL (       6 calls)
     newd         :      0.38s CPU      0.43s WALL (       6 calls)
     mix_rho      :      0.02s CPU      0.02s WALL (       6 calls)

     Called by c_bands:
     init_us_2    :      0.25s CPU      0.25s WALL (     240 calls)
     cegterg      :      6.34s CPU      6.57s WALL (      96 calls)

     Called by sum_band:
     sum_band:bec :      0.00s CPU      0.00s WALL (      96 calls)
     addusdens    :      0.35s CPU      0.41s WALL (       6 calls)

     Called by *egterg:
     h_psi        :      5.55s CPU      5.79s WALL (     447 calls)
     s_psi        :      0.16s CPU      0.16s WALL (     447 calls)
     g_psi        :      0.02s CPU      0.02s WALL (     335 calls)
     cdiaghg      :      0.10s CPU      0.10s WALL (     415 calls)

     Called by h_psi:
     h_psi:pot    :      5.53s CPU      5.76s WALL (     447 calls)
     h_psi:calbec :      0.29s CPU      0.29s WALL (     447 calls)
     vloc_psi     :      5.07s CPU      5.29s WALL (     447 calls)
     add_vuspsi   :      0.17s CPU      0.17s WALL (     447 calls)

     General routines
     calbec       :      0.44s CPU      0.45s WALL (     623 calls)
     fft          :      0.17s CPU      0.18s WALL (      93 calls)
     ffts         :      0.01s CPU      0.01s WALL (       6 calls)
     fftw         :      5.32s CPU      5.57s WALL (    5892 calls)

     Parallel routines
     fft_scatt_xy :      0.47s CPU      0.49s WALL (    5991 calls)
     fft_scatt_yz :      1.18s CPU      1.24s WALL (    5991 calls)

     PWSCF        :    11.37s CPU        11.95s WALL


   This run was terminated on:   0: 6:11   8Apr2024            

=------------------------------------------------------------------------------=
   JOB DONE.
=------------------------------------------------------------------------------=
