
     Program PWSCF v.6.3MaX starts on  8Apr2024 at  1: 4: 5 

     This program is part of the open-source Quantum ESPRESSO suite
     for quantum simulation of materials; please cite
         "P. Giannozzi et al., J. Phys.:Condens. Matter 21 395502 (2009);
         "P. Giannozzi et al., J. Phys.:Condens. Matter 29 465901 (2017);
          URL http://www.quantum-espresso.org", 
     in publications or presentations arising from this work. More details at
     http://www.quantum-espresso.org/quote

     Parallel version (MPI), running on     5 processors

     MPI processes distributed on     1 nodes
     R & G space division:  proc/nbgrp/npool/nimage =       5
     Waiting for input...
     Reading input from standard input

     Current dimensions of program PWSCF are:
     Max number of different atomic species (ntypx) = 10
     Max number of k-points (npk) =  40000
     Max angular momentum in pseudopotentials (lmaxx) =  3
               file K.pbe-spn-rrkjus_psl.1.0.0.UPF: wavefunction(s)  3S renormalized

     Subspace diagonalization in iterative solution of the eigenvalue problem:
     a serial algorithm will be used


     Parallelization info
     --------------------
     sticks:   dense  smooth     PW     G-vecs:    dense   smooth      PW
     Min         330     330     94                 8429     8429    1305
     Max         331     331     95                 8430     8430    1307
     Sum        1653    1653    471                42147    42147    6531



     bravais-lattice index     =            3
     lattice parameter (alat)  =       9.8600  a.u.
     unit-cell volume          =     479.2926 (a.u.)^3
     number of atoms/cell      =            1
     number of atomic types    =            1
     number of electrons       =         9.00
     number of Kohn-Sham states=            9
     kinetic-energy cutoff     =      75.0000  Ry
     charge density cutoff     =     300.0000  Ry
     convergence threshold     =      1.0E-08
     mixing beta               =       0.7000
     number of iterations used =            8  plain     mixing
     Exchange-correlation      = PBE ( 1  4  3  4 0 0)

     celldm(1)=   9.860000  celldm(2)=   0.000000  celldm(3)=   0.000000
     celldm(4)=   0.000000  celldm(5)=   0.000000  celldm(6)=   0.000000

     crystal axes: (cart. coord. in units of alat)
               a(1) = (   0.500000   0.500000   0.500000 )  
               a(2) = (  -0.500000   0.500000   0.500000 )  
               a(3) = (  -0.500000  -0.500000   0.500000 )  

     reciprocal axes: (cart. coord. in units 2 pi/alat)
               b(1) = (  1.000000  0.000000  1.000000 )  
               b(2) = ( -1.000000  1.000000  0.000000 )  
               b(3) = (  0.000000 -1.000000  1.000000 )  


     PseudoPot. # 1 for K  read from file:
     /home/lorenzo/pseudos/K/K.pbe-spn-rrkjus_psl.1.0.0.UPF
     MD5 check sum: 897b700350bb708b0563e904352feb48
     Pseudo is Ultrasoft + core correction, Zval =  9.0
     Generated using "atomic" code by A. Dal Corso v.6.2.2
     Using radial grid of 1165 points,  6 beta functions with: 
                l(1) =   0
                l(2) =   0
                l(3) =   1
                l(4) =   1
                l(5) =   2
                l(6) =   2
     Q(r) pseudized with 0 coefficients 


     atomic species   valence    mass     pseudopotential
        K              9.00    39.09830     K ( 1.00)

     48 Sym. Ops., with inversion, found



   Cartesian axes

     site n.     atom                  positions (alat units)
         1           K   tau(   1) = (   0.0000000   0.0000000   0.0000000  )

     number of k points=    16  gaussian smearing, width (Ry)=  0.0100
                       cart. coord. in units 2pi/alat
        k(    1) = (   0.0000000   0.0000000   0.0000000), wk =   0.0092593
        k(    2) = (   0.0000000  -0.1666667   0.1666667), wk =   0.1111111
        k(    3) = (   0.0000000  -0.3333333   0.3333333), wk =   0.1111111
        k(    4) = (   0.0000000   0.5000000  -0.5000000), wk =   0.0555556
        k(    5) = (  -0.1666667  -0.1666667   0.3333333), wk =   0.2222222
        k(    6) = (  -0.1666667   0.6666667  -0.5000000), wk =   0.4444444
        k(    7) = (  -0.3333333   0.6666667  -0.3333333), wk =   0.0740741
        k(    8) = (   0.0000000   0.0000000   0.3333333), wk =   0.0555556
        k(    9) = (   0.0000000  -0.1666667   0.5000000), wk =   0.2222222
        k(   10) = (   0.0000000   0.6666667  -0.3333333), wk =   0.1111111
        k(   11) = (  -0.1666667   0.8333333  -0.3333333), wk =   0.2222222
        k(   12) = (   0.6666667  -0.6666667   0.3333333), wk =   0.0740741
        k(   13) = (   0.5000000  -0.5000000   0.3333333), wk =   0.1111111
        k(   14) = (   0.0000000   0.0000000   0.6666667), wk =   0.0555556
        k(   15) = (   0.0000000   0.8333333  -0.1666667), wk =   0.1111111
        k(   16) = (   0.0000000   0.0000000  -1.0000000), wk =   0.0092593

     Dense  grid:    42147 G-vectors     FFT dimensions: (  48,  48,  48)

     Estimated max dynamical RAM per process >      35.87 MB

     Estimated total dynamical RAM >     179.33 MB

     Check: negative/imaginary core charge=   -0.000002    0.000000

     Initial potential from superposition of free atoms

     starting charge    8.98117, renormalised to    9.00000
     Starting wfcs are    8 randomized atomic wfcs +    1 random wfcs

     total cpu time spent up to now is        1.3 secs

     Self-consistent Calculation

     iteration #  1     ecut=    75.00 Ry     beta= 0.70
     Davidson diagonalization with overlap
     ethr =  1.00E-02,  avg # of iterations =  6.8

     Threshold (ethr) on eigenvalues was too large:
     Diagonalizing with lowered threshold

     Davidson diagonalization with overlap
     ethr =  1.42E-05,  avg # of iterations =  5.2

     total cpu time spent up to now is        3.5 secs

     total energy              =     -58.77276070 Ry
     Harris-Foulkes estimate   =     -58.77328412 Ry
     estimated scf accuracy    <       0.00126446 Ry

     iteration #  2     ecut=    75.00 Ry     beta= 0.70
     Davidson diagonalization with overlap
     ethr =  1.40E-05,  avg # of iterations =  2.5

     total cpu time spent up to now is        4.3 secs

     total energy              =     -58.77299359 Ry
     Harris-Foulkes estimate   =     -58.77299581 Ry
     estimated scf accuracy    <       0.00010102 Ry

     iteration #  3     ecut=    75.00 Ry     beta= 0.70
     Davidson diagonalization with overlap
     ethr =  1.12E-06,  avg # of iterations =  2.9

     total cpu time spent up to now is        5.0 secs

     total energy              =     -58.77300361 Ry
     Harris-Foulkes estimate   =     -58.77300095 Ry
     estimated scf accuracy    <       0.00000683 Ry

     iteration #  4     ecut=    75.00 Ry     beta= 0.70
     Davidson diagonalization with overlap
     ethr =  7.58E-08,  avg # of iterations =  1.5

     total cpu time spent up to now is        5.7 secs

     total energy              =     -58.77300413 Ry
     Harris-Foulkes estimate   =     -58.77300412 Ry
     estimated scf accuracy    <       0.00000005 Ry

     iteration #  5     ecut=    75.00 Ry     beta= 0.70
     Davidson diagonalization with overlap
     ethr =  5.50E-10,  avg # of iterations =  2.3

     total cpu time spent up to now is        6.5 secs

     End of self-consistent calculation

          k = 0.0000 0.0000 0.0000 (  5281 PWs)   bands (ev):

   -30.1639 -13.6126 -13.6126 -13.6126  -0.2616   6.2636   6.2636   6.2636
     7.1826

          k = 0.0000-0.1667 0.1667 (  5259 PWs)   bands (ev):

   -30.1627 -13.6320 -13.6190 -13.6126   0.0897   5.6329   5.8815   6.5455
     6.9371

          k = 0.0000-0.3333 0.3333 (  5269 PWs)   bands (ev):

   -30.1602 -13.6702 -13.6318 -13.6125   1.0773   4.1198   5.3355   7.0343
     7.2499

          k = 0.0000 0.5000-0.5000 (  5284 PWs)   bands (ev):

   -30.1590 -13.6890 -13.6382 -13.6125   2.3891   2.6485   5.1202   6.8721
     7.9903

          k =-0.1667-0.1667 0.3333 (  5253 PWs)   bands (ev):

   -30.1608 -13.6579 -13.6270 -13.6170   0.7609   4.7937   5.1890   6.8186
     6.9389

          k =-0.1667 0.6667-0.5000 (  5244 PWs)   bands (ev):

   -30.1590 -13.6793 -13.6420 -13.6185   1.9773   3.4680   4.6895   6.6782
     7.3334

          k =-0.3333 0.6667-0.3333 (  5270 PWs)   bands (ev):

   -30.1584 -13.6652 -13.6652 -13.6222   3.1568   3.1568   3.5774   6.5950
     7.3441

          k = 0.0000 0.0000 0.3333 (  5249 PWs)   bands (ev):

   -30.1615 -13.6355 -13.6257 -13.6257   0.4309   5.6997   5.7502   5.7502
     6.6683

          k = 0.0000-0.1667 0.5000 (  5276 PWs)   bands (ev):

   -30.1592 -13.6667 -13.6390 -13.6272   1.3894   4.2595   5.3875   5.8634
     7.2777

          k = 0.0000 0.6667-0.3333 (  5274 PWs)   bands (ev):

   -30.1581 -13.6836 -13.6456 -13.6265   2.7373   2.8020   5.2190   5.7076
     7.2747

          k =-0.1667 0.8333-0.3333 (  5262 PWs)   bands (ev):

   -30.1576 -13.6742 -13.6572 -13.6323   2.5130   3.6519   4.4031   6.2365
     6.7208

          k = 0.6667-0.6667 0.3333 (  5249 PWs)   bands (ev):

   -30.1595 -13.6728 -13.6296 -13.6296   1.6961   4.2248   4.2248   6.4105
     7.5582

          k = 0.5000-0.5000 0.3333 (  5250 PWs)   bands (ev):

   -30.1588 -13.6692 -13.6469 -13.6309   2.9890   3.0442   4.0379   5.7324
     7.6667

          k = 0.0000 0.0000 0.6667 (  5242 PWs)   bands (ev):

   -30.1572 -13.6629 -13.6532 -13.6532   2.2385   4.1500   5.4268   5.4268
     6.0574

          k = 0.0000 0.8333-0.1667 (  5258 PWs)   bands (ev):

   -30.1562 -13.6729 -13.6603 -13.6540   3.2334   3.4575   5.0191   5.4151
     6.2005

          k = 0.0000 0.0000-1.0000 (  5162 PWs)   bands (ev):

   -30.1552 -13.6676 -13.6676 -13.6676   3.5998   5.5105   5.5107   5.5107
     7.6780

     the Fermi energy is     1.9622 ev

!    total energy              =     -58.77300414 Ry
     Harris-Foulkes estimate   =     -58.77300414 Ry
     estimated scf accuracy    <          1.6E-09 Ry

     The total energy is the sum of the following terms:

     one-electron contribution =     -36.58673339 Ry
     hartree contribution      =      18.88130523 Ry
     xc contribution           =     -11.16999074 Ry
     ewald contribution        =     -29.89633970 Ry
     smearing contrib. (-TS)   =      -0.00124554 Ry

     convergence has been achieved in   5 iterations

     Forces acting on atoms (cartesian axes, Ry/au):

     atom    1 type  1   force =     0.00000000    0.00000000    0.00000000

     Total force =     0.000000     Total SCF correction =     0.000000


     Computing stress (Cartesian axis) and pressure

          total   stress  (Ry/bohr**3)                   (kbar)     P=    1.64
   0.00001116  -0.00000000   0.00000000          1.64     -0.00      0.00
  -0.00000000   0.00001116  -0.00000000         -0.00      1.64     -0.00
   0.00000000  -0.00000000   0.00001116          0.00     -0.00      1.64


     Writing output data file K.save/

     init_run     :      0.54s CPU      0.56s WALL (       1 calls)
     electrons    :      5.06s CPU      5.23s WALL (       1 calls)
     forces       :      0.14s CPU      0.14s WALL (       1 calls)
     stress       :      0.52s CPU      0.52s WALL (       1 calls)

     Called by init_run:
     wfcinit      :      0.18s CPU      0.19s WALL (       1 calls)
     potinit      :      0.04s CPU      0.04s WALL (       1 calls)
     hinit0       :      0.22s CPU      0.23s WALL (       1 calls)

     Called by electrons:
     c_bands      :      3.85s CPU      3.98s WALL (       6 calls)
     sum_band     :      0.85s CPU      0.88s WALL (       6 calls)
     v_of_rho     :      0.15s CPU      0.16s WALL (       6 calls)
     newd         :      0.26s CPU      0.26s WALL (       6 calls)
     mix_rho      :      0.01s CPU      0.01s WALL (       6 calls)

     Called by c_bands:
     init_us_2    :      0.16s CPU      0.16s WALL (     240 calls)
     cegterg      :      3.66s CPU      3.79s WALL (      96 calls)

     Called by sum_band:
     sum_band:bec :      0.00s CPU      0.00s WALL (      96 calls)
     addusdens    :      0.23s CPU      0.24s WALL (       6 calls)

     Called by *egterg:
     h_psi        :      2.96s CPU      3.10s WALL (     450 calls)
     s_psi        :      0.11s CPU      0.11s WALL (     450 calls)
     g_psi        :      0.01s CPU      0.01s WALL (     338 calls)
     cdiaghg      :      0.12s CPU      0.12s WALL (     418 calls)

     Called by h_psi:
     h_psi:pot    :      2.94s CPU      3.07s WALL (     450 calls)
     h_psi:calbec :      0.19s CPU      0.20s WALL (     450 calls)
     vloc_psi     :      2.63s CPU      2.75s WALL (     450 calls)
     add_vuspsi   :      0.11s CPU      0.11s WALL (     450 calls)

     General routines
     calbec       :      0.30s CPU      0.31s WALL (     626 calls)
     fft          :      0.09s CPU      0.10s WALL (      93 calls)
     ffts         :      0.00s CPU      0.00s WALL (       6 calls)
     fftw         :      2.83s CPU      2.96s WALL (    5876 calls)

     Parallel routines
     fft_scatt_xy :      0.22s CPU      0.23s WALL (    5975 calls)
     fft_scatt_yz :      0.83s CPU      0.87s WALL (    5975 calls)

     PWSCF        :     6.97s CPU         7.23s WALL


   This run was terminated on:   1: 4:12   8Apr2024            

=------------------------------------------------------------------------------=
   JOB DONE.
=------------------------------------------------------------------------------=
