
     Program PWSCF v.6.3MaX starts on  8Apr2024 at  1: 3: 6 

     This program is part of the open-source Quantum ESPRESSO suite
     for quantum simulation of materials; please cite
         "P. Giannozzi et al., J. Phys.:Condens. Matter 21 395502 (2009);
         "P. Giannozzi et al., J. Phys.:Condens. Matter 29 465901 (2017);
          URL http://www.quantum-espresso.org", 
     in publications or presentations arising from this work. More details at
     http://www.quantum-espresso.org/quote

     Parallel version (MPI), running on     5 processors

     MPI processes distributed on     1 nodes
     R & G space division:  proc/nbgrp/npool/nimage =       5
     Waiting for input...
     Reading input from standard input

     Current dimensions of program PWSCF are:
     Max number of different atomic species (ntypx) = 10
     Max number of k-points (npk) =  40000
     Max angular momentum in pseudopotentials (lmaxx) =  3
               file K.pz-spn-kjpaw_psl.1.0.0.UPF: wavefunction(s)  3S renormalized

     Subspace diagonalization in iterative solution of the eigenvalue problem:
     a serial algorithm will be used


     Parallelization info
     --------------------
     sticks:   dense  smooth     PW     G-vecs:    dense   smooth      PW
     Min         330     330     93                 8429     8429    1267
     Max         331     331     94                 8430     8430    1269
     Sum        1653    1653    467                42147    42147    6339



     bravais-lattice index     =            3
     lattice parameter (alat)  =       9.8600  a.u.
     unit-cell volume          =     479.2926 (a.u.)^3
     number of atoms/cell      =            1
     number of atomic types    =            1
     number of electrons       =         9.00
     number of Kohn-Sham states=            9
     kinetic-energy cutoff     =      75.0000  Ry
     charge density cutoff     =     300.0000  Ry
     convergence threshold     =      1.0E-08
     mixing beta               =       0.7000
     number of iterations used =            8  plain     mixing
     Exchange-correlation      = SLA PZ NOGX NOGC ( 1  1  0  0 0 0)

     celldm(1)=   9.860000  celldm(2)=   0.000000  celldm(3)=   0.000000
     celldm(4)=   0.000000  celldm(5)=   0.000000  celldm(6)=   0.000000

     crystal axes: (cart. coord. in units of alat)
               a(1) = (   0.500000   0.500000   0.500000 )  
               a(2) = (  -0.500000   0.500000   0.500000 )  
               a(3) = (  -0.500000  -0.500000   0.500000 )  

     reciprocal axes: (cart. coord. in units 2 pi/alat)
               b(1) = (  1.000000  0.000000  1.000000 )  
               b(2) = ( -1.000000  1.000000  0.000000 )  
               b(3) = (  0.000000 -1.000000  1.000000 )  


     PseudoPot. # 1 for K  read from file:
     /home/lorenzo/pseudos/K/K.pz-spn-kjpaw_psl.1.0.0.UPF
     MD5 check sum: 59b94f4c1a6681f21e103574f2c5fc67
     Pseudo is Projector augmented-wave + core cor, Zval =  9.0
     Generated using "atomic" code by A. Dal Corso v.6.2.2
     Shape of augmentation charge: PSQ
     Using radial grid of 1165 points,  6 beta functions with: 
                l(1) =   0
                l(2) =   0
                l(3) =   1
                l(4) =   1
                l(5) =   2
                l(6) =   2
     Q(r) pseudized with 0 coefficients 


     atomic species   valence    mass     pseudopotential
        K              9.00    39.09830     K ( 1.00)

     48 Sym. Ops., with inversion, found



   Cartesian axes

     site n.     atom                  positions (alat units)
         1           K   tau(   1) = (   0.0000000   0.0000000   0.0000000  )

     number of k points=     4  gaussian smearing, width (Ry)=  0.0100
                       cart. coord. in units 2pi/alat
        k(    1) = (   0.0000000   0.0000000   0.0000000), wk =   0.0740741
        k(    2) = (   0.0000000  -0.3333333   0.3333333), wk =   0.8888889
        k(    3) = (  -0.3333333   0.6666667  -0.3333333), wk =   0.5925926
        k(    4) = (   0.0000000   0.0000000   0.6666667), wk =   0.4444444

     Dense  grid:    42147 G-vectors     FFT dimensions: (  48,  48,  48)

     Estimated max dynamical RAM per process >      34.13 MB

     Estimated total dynamical RAM >     170.67 MB

     Check: negative/imaginary core charge=   -0.000002    0.000000

     Initial potential from superposition of free atoms

     starting charge    8.98437, renormalised to    9.00000
     Starting wfcs are    8 randomized atomic wfcs +    1 random wfcs
     Checking if some PAW data can be deallocated... 

     total cpu time spent up to now is        1.2 secs

     Self-consistent Calculation

     iteration #  1     ecut=    75.00 Ry     beta= 0.70
     Davidson diagonalization with overlap
     ethr =  1.00E-02,  avg # of iterations =  7.8

     Threshold (ethr) on eigenvalues was too large:
     Diagonalizing with lowered threshold

     Davidson diagonalization with overlap
     ethr =  1.22E-05,  avg # of iterations =  5.5

     total cpu time spent up to now is        2.0 secs

     total energy              =    -109.87866501 Ry
     Harris-Foulkes estimate   =    -109.87924550 Ry
     estimated scf accuracy    <       0.00111776 Ry

     iteration #  2     ecut=    75.00 Ry     beta= 0.70
     Davidson diagonalization with overlap
     ethr =  1.24E-05,  avg # of iterations =  2.2

     total cpu time spent up to now is        2.3 secs

     total energy              =    -109.87885589 Ry
     Harris-Foulkes estimate   =    -109.87888328 Ry
     estimated scf accuracy    <       0.00008967 Ry

     iteration #  3     ecut=    75.00 Ry     beta= 0.70
     Davidson diagonalization with overlap
     ethr =  9.96E-07,  avg # of iterations =  2.0

     total cpu time spent up to now is        2.7 secs

     total energy              =    -109.87886746 Ry
     Harris-Foulkes estimate   =    -109.87886733 Ry
     estimated scf accuracy    <       0.00000595 Ry

     iteration #  4     ecut=    75.00 Ry     beta= 0.70
     Davidson diagonalization with overlap
     ethr =  6.61E-08,  avg # of iterations =  1.2

     total cpu time spent up to now is        3.0 secs

     total energy              =    -109.87886802 Ry
     Harris-Foulkes estimate   =    -109.87886801 Ry
     estimated scf accuracy    <       0.00000004 Ry

     iteration #  5     ecut=    75.00 Ry     beta= 0.70
     Davidson diagonalization with overlap
     ethr =  4.46E-10,  avg # of iterations =  2.8

     total cpu time spent up to now is        3.4 secs

     End of self-consistent calculation

          k = 0.0000 0.0000 0.0000 (  5281 PWs)   bands (ev):

   -30.1020 -13.7399 -13.7399 -13.7399  -0.4767   5.9270   5.9270   5.9270
     6.8735

          k = 0.0000-0.3333 0.3333 (  5269 PWs)   bands (ev):

   -30.0982 -13.7999 -13.7600 -13.7398   0.8679   3.9015   5.0431   6.7036
     6.9661

          k =-0.3333 0.6667-0.3333 (  5270 PWs)   bands (ev):

   -30.0962 -13.7947 -13.7947 -13.7499   2.9759   2.9759   3.3011   6.2455
     7.0154

          k = 0.0000 0.0000 0.6667 (  5242 PWs)   bands (ev):

   -30.0949 -13.7923 -13.7823 -13.7823   2.0408   3.9446   5.1725   5.1725
     5.7559

     the Fermi energy is     1.9077 ev

!    total energy              =    -109.87886804 Ry
     Harris-Foulkes estimate   =    -109.87886804 Ry
     estimated scf accuracy    <          3.7E-09 Ry

     total all-electron energy =     -1201.203868 Ry

     The total energy is the sum of the following terms:

     one-electron contribution =     -35.37574820 Ry
     hartree contribution      =      18.82383473 Ry
     xc contribution           =     -11.01629706 Ry
     ewald contribution        =     -29.89633970 Ry
     one-center paw contrib.   =     -52.41383599 Ry
     smearing contrib. (-TS)   =      -0.00048182 Ry

     convergence has been achieved in   5 iterations

     Forces acting on atoms (cartesian axes, Ry/au):

     atom    1 type  1   force =     0.00000000    0.00000000    0.00000000

     Total force =     0.000000     Total SCF correction =     0.000000


     Computing stress (Cartesian axis) and pressure

          total   stress  (Ry/bohr**3)                   (kbar)     P=   -5.22
  -0.00003551  -0.00000000   0.00000000         -5.22     -0.00      0.00
  -0.00000000  -0.00003551  -0.00000000         -0.00     -5.22     -0.00
   0.00000000  -0.00000000  -0.00003551          0.00     -0.00     -5.22


     Writing output data file K.save/

     init_run     :      0.42s CPU      0.44s WALL (       1 calls)
     electrons    :      2.14s CPU      2.20s WALL (       1 calls)
     forces       :      0.11s CPU      0.11s WALL (       1 calls)
     stress       :      0.39s CPU      0.39s WALL (       1 calls)

     Called by init_run:
     wfcinit      :      0.05s CPU      0.05s WALL (       1 calls)
     potinit      :      0.06s CPU      0.06s WALL (       1 calls)
     hinit0       :      0.21s CPU      0.21s WALL (       1 calls)

     Called by electrons:
     c_bands      :      1.14s CPU      1.18s WALL (       6 calls)
     sum_band     :      0.51s CPU      0.53s WALL (       6 calls)
     v_of_rho     :      0.03s CPU      0.03s WALL (       6 calls)
     newd         :      0.27s CPU      0.28s WALL (       6 calls)
     PAW_pot      :      0.25s CPU      0.25s WALL (       6 calls)
     mix_rho      :      0.01s CPU      0.01s WALL (       6 calls)

     Called by c_bands:
     init_us_2    :      0.04s CPU      0.04s WALL (      60 calls)
     cegterg      :      1.09s CPU      1.13s WALL (      24 calls)

     Called by sum_band:
     sum_band:bec :      0.00s CPU      0.00s WALL (      24 calls)
     addusdens    :      0.24s CPU      0.25s WALL (       6 calls)

     Called by *egterg:
     h_psi        :      0.89s CPU      0.92s WALL (     114 calls)
     s_psi        :      0.03s CPU      0.03s WALL (     114 calls)
     g_psi        :      0.00s CPU      0.00s WALL (      86 calls)
     cdiaghg      :      0.03s CPU      0.03s WALL (     106 calls)

     Called by h_psi:
     h_psi:pot    :      0.88s CPU      0.91s WALL (     114 calls)
     h_psi:calbec :      0.06s CPU      0.06s WALL (     114 calls)
     vloc_psi     :      0.79s CPU      0.82s WALL (     114 calls)
     add_vuspsi   :      0.03s CPU      0.03s WALL (     114 calls)

     General routines
     calbec       :      0.09s CPU      0.09s WALL (     158 calls)
     fft          :      0.05s CPU      0.05s WALL (      34 calls)
     ffts         :      0.00s CPU      0.00s WALL (       6 calls)
     fftw         :      0.89s CPU      0.92s WALL (    1524 calls)

     Parallel routines
     fft_scatt_xy :      0.07s CPU      0.07s WALL (    1564 calls)
     fft_scatt_yz :      0.34s CPU      0.35s WALL (    1564 calls)

     PWSCF        :     3.87s CPU         3.98s WALL


   This run was terminated on:   1: 3:10   8Apr2024            

=------------------------------------------------------------------------------=
   JOB DONE.
=------------------------------------------------------------------------------=
