
     Program PWSCF v.6.3MaX starts on  8Apr2024 at  0: 8:35 

     This program is part of the open-source Quantum ESPRESSO suite
     for quantum simulation of materials; please cite
         "P. Giannozzi et al., J. Phys.:Condens. Matter 21 395502 (2009);
         "P. Giannozzi et al., J. Phys.:Condens. Matter 29 465901 (2017);
          URL http://www.quantum-espresso.org", 
     in publications or presentations arising from this work. More details at
     http://www.quantum-espresso.org/quote

     Parallel version (MPI), running on     5 processors

     MPI processes distributed on     1 nodes
     R & G space division:  proc/nbgrp/npool/nimage =       5
     Waiting for input...
     Reading input from standard input

     Current dimensions of program PWSCF are:
     Max number of different atomic species (ntypx) = 10
     Max number of k-points (npk) =  40000
     Max angular momentum in pseudopotentials (lmaxx) =  3
               file K.pz-spn-rrkjus_psl.1.0.0.UPF: wavefunction(s)  3S renormalized

     Subspace diagonalization in iterative solution of the eigenvalue problem:
     a serial algorithm will be used


     Parallelization info
     --------------------
     sticks:   dense  smooth     PW     G-vecs:    dense   smooth      PW
     Min         438     438    124                12915    12915    1972
     Max         439     439    126                12916    12916    1973
     Sum        2191    2191    623                64579    64579    9861



     bravais-lattice index     =            3
     lattice parameter (alat)  =       9.8600  a.u.
     unit-cell volume          =     479.2926 (a.u.)^3
     number of atoms/cell      =            1
     number of atomic types    =            1
     number of electrons       =         9.00
     number of Kohn-Sham states=            9
     kinetic-energy cutoff     =     100.0000  Ry
     charge density cutoff     =     400.0000  Ry
     convergence threshold     =      1.0E-08
     mixing beta               =       0.7000
     number of iterations used =            8  plain     mixing
     Exchange-correlation      = LDA ( 1  1  0  0 0 0)

     celldm(1)=   9.860000  celldm(2)=   0.000000  celldm(3)=   0.000000
     celldm(4)=   0.000000  celldm(5)=   0.000000  celldm(6)=   0.000000

     crystal axes: (cart. coord. in units of alat)
               a(1) = (   0.500000   0.500000   0.500000 )  
               a(2) = (  -0.500000   0.500000   0.500000 )  
               a(3) = (  -0.500000  -0.500000   0.500000 )  

     reciprocal axes: (cart. coord. in units 2 pi/alat)
               b(1) = (  1.000000  0.000000  1.000000 )  
               b(2) = ( -1.000000  1.000000  0.000000 )  
               b(3) = (  0.000000 -1.000000  1.000000 )  


     PseudoPot. # 1 for K  read from file:
     /home/lorenzo/pseudos/K/K.pz-spn-rrkjus_psl.1.0.0.UPF
     MD5 check sum: af434a66a3b91719abff201b8f79bb09
     Pseudo is Ultrasoft + core correction, Zval =  9.0
     Generated using "atomic" code by A. Dal Corso v.6.2.2
     Using radial grid of 1165 points,  6 beta functions with: 
                l(1) =   0
                l(2) =   0
                l(3) =   1
                l(4) =   1
                l(5) =   2
                l(6) =   2
     Q(r) pseudized with 0 coefficients 


     atomic species   valence    mass     pseudopotential
        K              9.00    39.09830     K ( 1.00)

     48 Sym. Ops., with inversion, found



   Cartesian axes

     site n.     atom                  positions (alat units)
         1           K   tau(   1) = (   0.0000000   0.0000000   0.0000000  )

     number of k points=    29  gaussian smearing, width (Ry)=  0.0100
                       cart. coord. in units 2pi/alat
        k(    1) = (   0.0000000   0.0000000   0.0000000), wk =   0.0039062
        k(    2) = (   0.0000000  -0.1250000   0.1250000), wk =   0.0468750
        k(    3) = (   0.0000000  -0.2500000   0.2500000), wk =   0.0468750
        k(    4) = (   0.0000000  -0.3750000   0.3750000), wk =   0.0468750
        k(    5) = (   0.0000000   0.5000000  -0.5000000), wk =   0.0234375
        k(    6) = (  -0.1250000  -0.1250000   0.2500000), wk =   0.0937500
        k(    7) = (  -0.1250000  -0.2500000   0.3750000), wk =   0.1875000
        k(    8) = (  -0.1250000   0.6250000  -0.5000000), wk =   0.1875000
        k(    9) = (  -0.2500000   0.7500000  -0.5000000), wk =   0.0937500
        k(   10) = (  -0.2500000   0.6250000  -0.3750000), wk =   0.0937500
        k(   11) = (   0.0000000   0.0000000   0.2500000), wk =   0.0234375
        k(   12) = (   0.0000000  -0.1250000   0.3750000), wk =   0.0937500
        k(   13) = (   0.0000000  -0.2500000   0.5000000), wk =   0.0937500
        k(   14) = (   0.0000000   0.6250000  -0.3750000), wk =   0.0468750
        k(   15) = (  -0.1250000  -0.1250000   0.5000000), wk =   0.0937500
        k(   16) = (  -0.1250000   0.7500000  -0.3750000), wk =   0.1875000
        k(   17) = (  -0.2500000   0.2500000   0.2500000), wk =   0.0312500
        k(   18) = (  -0.2500000   0.7500000  -0.2500000), wk =   0.0312500
        k(   19) = (   0.6250000  -0.6250000   0.2500000), wk =   0.0937500
        k(   20) = (   0.5000000  -0.5000000   0.2500000), wk =   0.0468750
        k(   21) = (   0.5000000  -0.6250000   0.3750000), wk =   0.0937500
        k(   22) = (   0.0000000   0.0000000   0.5000000), wk =   0.0234375
        k(   23) = (   0.0000000  -0.1250000   0.6250000), wk =   0.0937500
        k(   24) = (   0.0000000   0.7500000  -0.2500000), wk =   0.0468750
        k(   25) = (  -0.1250000   0.8750000  -0.2500000), wk =   0.0937500
        k(   26) = (   0.5000000  -0.5000000   0.5000000), wk =   0.0078125
        k(   27) = (   0.0000000   0.0000000   0.7500000), wk =   0.0234375
        k(   28) = (   0.0000000   0.8750000  -0.1250000), wk =   0.0468750
        k(   29) = (   0.0000000   0.0000000  -1.0000000), wk =   0.0039062

     Dense  grid:    64579 G-vectors     FFT dimensions: (  60,  60,  60)

     Estimated max dynamical RAM per process >      57.58 MB

     Estimated total dynamical RAM >     287.89 MB

     Check: negative/imaginary core charge=   -0.000001    0.000000

     Initial potential from superposition of free atoms

     starting charge    8.98437, renormalised to    9.00000
     Starting wfcs are    8 randomized atomic wfcs +    1 random wfcs

     total cpu time spent up to now is        1.9 secs

     Self-consistent Calculation

     iteration #  1     ecut=   100.00 Ry     beta= 0.70
     Davidson diagonalization with overlap
     ethr =  1.00E-02,  avg # of iterations =  6.6

     Threshold (ethr) on eigenvalues was too large:
     Diagonalizing with lowered threshold

     Davidson diagonalization with overlap
     ethr =  1.25E-05,  avg # of iterations =  6.5

     total cpu time spent up to now is        8.6 secs

     total energy              =     -58.74287353 Ry
     Harris-Foulkes estimate   =     -58.74344120 Ry
     estimated scf accuracy    <       0.00112018 Ry

     iteration #  2     ecut=   100.00 Ry     beta= 0.70
     Davidson diagonalization with overlap
     ethr =  1.24E-05,  avg # of iterations =  2.1

     total cpu time spent up to now is       11.1 secs

     total energy              =     -58.74307220 Ry
     Harris-Foulkes estimate   =     -58.74308957 Ry
     estimated scf accuracy    <       0.00008952 Ry

     iteration #  3     ecut=   100.00 Ry     beta= 0.70
     Davidson diagonalization with overlap
     ethr =  9.95E-07,  avg # of iterations =  1.9

     total cpu time spent up to now is       13.2 secs

     total energy              =     -58.74308105 Ry
     Harris-Foulkes estimate   =     -58.74308028 Ry
     estimated scf accuracy    <       0.00000566 Ry

     iteration #  4     ecut=   100.00 Ry     beta= 0.70
     Davidson diagonalization with overlap
     ethr =  6.29E-08,  avg # of iterations =  1.4

     total cpu time spent up to now is       15.2 secs

     total energy              =     -58.74308160 Ry
     Harris-Foulkes estimate   =     -58.74308160 Ry
     estimated scf accuracy    <       0.00000004 Ry

     iteration #  5     ecut=   100.00 Ry     beta= 0.70
     Davidson diagonalization with overlap
     ethr =  3.90E-10,  avg # of iterations =  2.2

     total cpu time spent up to now is       17.2 secs

     End of self-consistent calculation

          k = 0.0000 0.0000 0.0000 (  8151 PWs)   bands (ev):

   -30.0985 -13.7366 -13.7366 -13.7366  -0.4766   5.9287   5.9287   5.9287
     6.8749

          k = 0.0000-0.1250 0.1250 (  8108 PWs)   bands (ev):

   -30.0977 -13.7485 -13.7406 -13.7366  -0.2765   5.6290   5.7065   6.0890
     6.6496

          k = 0.0000-0.2500 0.2500 (  8112 PWs)   bands (ev):

   -30.0959 -13.7769 -13.7501 -13.7366   0.3023   4.6611   5.2843   6.5583
     6.6844

          k = 0.0000-0.3750 0.3750 (  8100 PWs)   bands (ev):

   -30.0941 -13.8049 -13.7595 -13.7365   1.1937   3.5135   4.9544   6.6642
     7.0597

          k = 0.0000 0.5000-0.5000 (  8050 PWs)   bands (ev):

   -30.0933 -13.8163 -13.7634 -13.7365   2.1432   2.4884   4.8351   6.5322
     7.8348

          k =-0.1250-0.1250 0.2500 (  8109 PWs)   bands (ev):

   -30.0964 -13.7680 -13.7450 -13.7394   0.1134   5.0788   5.2817   6.3689
     6.4912

          k =-0.1250-0.2500 0.3750 (  8105 PWs)   bands (ev):

   -30.0946 -13.7931 -13.7564 -13.7405   0.8518   4.1237   4.8464   6.5261
     6.8132

          k =-0.1250 0.6250-0.5000 (  8084 PWs)   bands (ev):

   -30.0933 -13.8100 -13.7656 -13.7408   1.8489   3.0166   4.6147   6.3549
     7.1994

          k =-0.2500 0.7500-0.5000 (  8090 PWs)   bands (ev):

   -30.0933 -13.8017 -13.7700 -13.7448   1.7060   3.6272   4.1185   6.4592
     6.7127

          k =-0.2500 0.6250-0.3750 (  8090 PWs)   bands (ev):

   -30.0928 -13.8014 -13.7801 -13.7459   2.7309   2.7577   3.8110   6.2436
     7.0008

          k = 0.0000 0.0000 0.2500 (  8099 PWs)   bands (ev):

   -30.0970 -13.7514 -13.7446 -13.7446  -0.0795   5.6100   5.6100   5.9348
     6.1590

          k = 0.0000-0.1250 0.3750 (  8102 PWs)   bands (ev):

   -30.0952 -13.7760 -13.7543 -13.7460   0.4902   4.7251   5.2905   5.8517
     6.5733

          k = 0.0000-0.2500 0.5000 (  8091 PWs)   bands (ev):

   -30.0934 -13.8023 -13.7640 -13.7454   1.3686   3.6133   5.0059   5.8597
     7.0819

          k = 0.0000 0.6250-0.3750 (  8106 PWs)   bands (ev):

   -30.0927 -13.8131 -13.7679 -13.7451   2.3478   2.5715   4.8997   5.7550
     7.1328

          k =-0.1250-0.1250 0.5000 (  8112 PWs)   bands (ev):

   -30.0935 -13.7926 -13.7661 -13.7510   1.2036   4.1234   4.7918   5.8672
     6.7621

          k =-0.1250 0.7500-0.3750 (  8087 PWs)   bands (ev):

   -30.0923 -13.8049 -13.7768 -13.7514   2.1692   3.2329   4.3703   5.9250
     6.7480

          k =-0.2500 0.2500 0.2500 (  8133 PWs)   bands (ev):

   -30.0951 -13.7888 -13.7462 -13.7462   0.6738   4.5696   4.5696   6.5648
     6.9951

          k =-0.2500 0.7500-0.2500 (  8073 PWs)   bands (ev):

   -30.0918 -13.7947 -13.7947 -13.7525   3.0209   3.0209   3.5231   6.4916
     6.9761

          k = 0.6250-0.6250 0.2500 (  8094 PWs)   bands (ev):

   -30.0937 -13.8013 -13.7610 -13.7473   1.5432   3.6647   4.2559   6.2041
     7.1474

          k = 0.5000-0.5000 0.2500 (  8082 PWs)   bands (ev):

   -30.0932 -13.8042 -13.7695 -13.7477   2.5433   2.6696   4.1510   5.8935
     7.2771

          k = 0.5000-0.6250 0.3750 (  8092 PWs)   bands (ev):

   -30.0931 -13.7948 -13.7739 -13.7548   2.4747   3.3302   3.6204   5.4624
     7.2751

          k = 0.0000 0.0000 0.5000 (  8120 PWs)   bands (ev):

   -30.0936 -13.7780 -13.7645 -13.7645   1.0314   4.6028   5.2338   5.2338
     6.7663

          k = 0.0000-0.1250 0.6250 (  8071 PWs)   bands (ev):

   -30.0919 -13.7961 -13.7746 -13.7664   1.8585   3.8169   5.1149   5.1395
     6.3057

          k = 0.0000 0.7500-0.2500 (  8084 PWs)   bands (ev):

   -30.0913 -13.8052 -13.7788 -13.7656   2.8160   2.8868   4.9320   5.0578
     6.4840

          k =-0.1250 0.8750-0.2500 (  8093 PWs)   bands (ev):

   -30.0909 -13.7989 -13.7880 -13.7695   2.7014   3.4254   4.3062   5.6550
     6.0548

          k = 0.5000-0.5000 0.5000 (  8088 PWs)   bands (ev):

   -30.0930 -13.7755 -13.7755 -13.7755   3.2329   3.2329   3.2329   4.7546
     7.4343

          k = 0.0000 0.0000 0.7500 (  8096 PWs)   bands (ev):

   -30.0905 -13.7919 -13.7852 -13.7852   2.5567   3.7084   5.1946   5.1946
     5.4148

          k = 0.0000 0.8750-0.1250 (  8094 PWs)   bands (ev):

   -30.0898 -13.7974 -13.7896 -13.7858   3.1745   3.3534   4.8312   5.2174
     5.6897

          k = 0.0000 0.0000-1.0000 (  8128 PWs)   bands (ev):

   -30.0892 -13.7941 -13.7941 -13.7941   3.4012   5.2833   5.2834   5.2834
     7.2558

     the Fermi energy is     1.7669 ev

!    total energy              =     -58.74308161 Ry
     Harris-Foulkes estimate   =     -58.74308161 Ry
     estimated scf accuracy    <          6.1E-10 Ry

     The total energy is the sum of the following terms:

     one-electron contribution =     -36.65498405 Ry
     hartree contribution      =      18.82590166 Ry
     xc contribution           =     -11.01688929 Ry
     ewald contribution        =     -29.89633970 Ry
     smearing contrib. (-TS)   =      -0.00077024 Ry

     convergence has been achieved in   5 iterations

     Forces acting on atoms (cartesian axes, Ry/au):

     atom    1 type  1   force =     0.00000000    0.00000000    0.00000000

     Total force =     0.000000     Total SCF correction =     0.000000


     Computing stress (Cartesian axis) and pressure

          total   stress  (Ry/bohr**3)                   (kbar)     P=   -3.73
  -0.00002535  -0.00000000   0.00000000         -3.73     -0.00      0.00
  -0.00000000  -0.00002535  -0.00000000         -0.00     -3.73     -0.00
   0.00000000  -0.00000000  -0.00002535          0.00     -0.00     -3.73


     Writing output data file K.save/

     init_run     :      1.07s CPU      1.12s WALL (       1 calls)
     electrons    :     14.68s CPU     15.25s WALL (       1 calls)
     forces       :      0.24s CPU      0.25s WALL (       1 calls)
     stress       :      0.96s CPU      0.99s WALL (       1 calls)

     Called by init_run:
     wfcinit      :      0.62s CPU      0.65s WALL (       1 calls)
     potinit      :      0.02s CPU      0.02s WALL (       1 calls)
     hinit0       :      0.26s CPU      0.26s WALL (       1 calls)

     Called by electrons:
     c_bands      :     11.93s CPU     12.30s WALL (       6 calls)
     sum_band     :      2.41s CPU      2.55s WALL (       6 calls)
     v_of_rho     :      0.04s CPU      0.04s WALL (       6 calls)
     newd         :      0.34s CPU      0.41s WALL (       6 calls)
     mix_rho      :      0.02s CPU      0.02s WALL (       6 calls)

     Called by c_bands:
     init_us_2    :      0.44s CPU      0.44s WALL (     435 calls)
     cegterg      :     11.42s CPU     11.79s WALL (     174 calls)

     Called by sum_band:
     sum_band:bec :      0.00s CPU      0.00s WALL (     174 calls)
     addusdens    :      0.33s CPU      0.41s WALL (       6 calls)

     Called by *egterg:
     h_psi        :      9.92s CPU     10.29s WALL (     800 calls)
     s_psi        :      0.27s CPU      0.27s WALL (     800 calls)
     g_psi        :      0.03s CPU      0.03s WALL (     597 calls)
     cdiaghg      :      0.20s CPU      0.20s WALL (     742 calls)

     Called by h_psi:
     h_psi:pot    :      9.87s CPU     10.23s WALL (     800 calls)
     h_psi:calbec :      0.51s CPU      0.53s WALL (     800 calls)
     vloc_psi     :      9.04s CPU      9.38s WALL (     800 calls)
     add_vuspsi   :      0.30s CPU      0.31s WALL (     800 calls)

     General routines
     calbec       :      0.82s CPU      0.84s WALL (    1119 calls)
     fft          :      0.07s CPU      0.07s WALL (      34 calls)
     ffts         :      0.01s CPU      0.01s WALL (       6 calls)
     fftw         :      9.60s CPU      9.97s WALL (   10586 calls)

     Parallel routines
     fft_scatt_xy :      0.82s CPU      0.86s WALL (   10626 calls)
     fft_scatt_yz :      2.08s CPU      2.17s WALL (   10626 calls)

     PWSCF        :    17.84s CPU        18.61s WALL


   This run was terminated on:   0: 8:54   8Apr2024            

=------------------------------------------------------------------------------=
   JOB DONE.
=------------------------------------------------------------------------------=
