
     Program PWSCF v.6.3MaX starts on  8Apr2024 at  0:18:53 

     This program is part of the open-source Quantum ESPRESSO suite
     for quantum simulation of materials; please cite
         "P. Giannozzi et al., J. Phys.:Condens. Matter 21 395502 (2009);
         "P. Giannozzi et al., J. Phys.:Condens. Matter 29 465901 (2017);
          URL http://www.quantum-espresso.org", 
     in publications or presentations arising from this work. More details at
     http://www.quantum-espresso.org/quote

     Parallel version (MPI), running on     5 processors

     MPI processes distributed on     1 nodes
     R & G space division:  proc/nbgrp/npool/nimage =       5
     Waiting for input...
     Reading input from standard input

     Current dimensions of program PWSCF are:
     Max number of different atomic species (ntypx) = 10
     Max number of k-points (npk) =  40000
     Max angular momentum in pseudopotentials (lmaxx) =  3
               file K.pbe-spn-kjpaw_psl.1.0.0.UPF: wavefunction(s)  3S renormalized

     Subspace diagonalization in iterative solution of the eigenvalue problem:
     a serial algorithm will be used


     Parallelization info
     --------------------
     sticks:   dense  smooth     PW     G-vecs:    dense   smooth      PW
     Min         131     131     41                 2128     2128     373
     Max         132     132     41                 2129     2129     373
     Sum         657     657    205                10641    10641    1865



     bravais-lattice index     =            3
     lattice parameter (alat)  =       9.8600  a.u.
     unit-cell volume          =     479.2926 (a.u.)^3
     number of atoms/cell      =            1
     number of atomic types    =            1
     number of electrons       =         9.00
     number of Kohn-Sham states=            9
     kinetic-energy cutoff     =      30.0000  Ry
     charge density cutoff     =     120.0000  Ry
     convergence threshold     =      1.0E-08
     mixing beta               =       0.7000
     number of iterations used =            8  plain     mixing
     Exchange-correlation      = SLA PW PBX PBC ( 1  4  3  4 0 0)

     celldm(1)=   9.860000  celldm(2)=   0.000000  celldm(3)=   0.000000
     celldm(4)=   0.000000  celldm(5)=   0.000000  celldm(6)=   0.000000

     crystal axes: (cart. coord. in units of alat)
               a(1) = (   0.500000   0.500000   0.500000 )  
               a(2) = (  -0.500000   0.500000   0.500000 )  
               a(3) = (  -0.500000  -0.500000   0.500000 )  

     reciprocal axes: (cart. coord. in units 2 pi/alat)
               b(1) = (  1.000000  0.000000  1.000000 )  
               b(2) = ( -1.000000  1.000000  0.000000 )  
               b(3) = (  0.000000 -1.000000  1.000000 )  


     PseudoPot. # 1 for K  read from file:
     /home/lorenzo/pseudos/K/K.pbe-spn-kjpaw_psl.1.0.0.UPF
     MD5 check sum: 34cc42130a09071ebe376fd42eb21491
     Pseudo is Projector augmented-wave + core cor, Zval =  9.0
     Generated using "atomic" code by A. Dal Corso v.6.2.2
     Shape of augmentation charge: PSQ
     Using radial grid of 1165 points,  6 beta functions with: 
                l(1) =   0
                l(2) =   0
                l(3) =   1
                l(4) =   1
                l(5) =   2
                l(6) =   2
     Q(r) pseudized with 0 coefficients 


     atomic species   valence    mass     pseudopotential
        K              9.00    39.09830     K ( 1.00)

     48 Sym. Ops., with inversion, found



   Cartesian axes

     site n.     atom                  positions (alat units)
         1           K   tau(   1) = (   0.0000000   0.0000000   0.0000000  )

     number of k points=    47  gaussian smearing, width (Ry)=  0.0100
                       cart. coord. in units 2pi/alat
        k(    1) = (   0.0000000   0.0000000   0.0000000), wk =   0.0020000
        k(    2) = (   0.0000000  -0.1000000   0.1000000), wk =   0.0240000
        k(    3) = (   0.0000000  -0.2000000   0.2000000), wk =   0.0240000
        k(    4) = (   0.0000000  -0.3000000   0.3000000), wk =   0.0240000
        k(    5) = (   0.0000000  -0.4000000   0.4000000), wk =   0.0240000
        k(    6) = (   0.0000000   0.5000000  -0.5000000), wk =   0.0120000
        k(    7) = (  -0.1000000  -0.1000000   0.2000000), wk =   0.0480000
        k(    8) = (  -0.1000000  -0.2000000   0.3000000), wk =   0.0960000
        k(    9) = (  -0.1000000  -0.3000000   0.4000000), wk =   0.0960000
        k(   10) = (  -0.1000000   0.6000000  -0.5000000), wk =   0.0960000
        k(   11) = (  -0.2000000  -0.2000000   0.4000000), wk =   0.0480000
        k(   12) = (  -0.2000000   0.7000000  -0.5000000), wk =   0.0960000
        k(   13) = (  -0.2000000   0.6000000  -0.4000000), wk =   0.0480000
        k(   14) = (  -0.3000000   0.7000000  -0.4000000), wk =   0.0480000
        k(   15) = (   0.0000000   0.0000000   0.2000000), wk =   0.0120000
        k(   16) = (   0.0000000  -0.1000000   0.3000000), wk =   0.0480000
        k(   17) = (   0.0000000  -0.2000000   0.4000000), wk =   0.0480000
        k(   18) = (   0.0000000  -0.3000000   0.5000000), wk =   0.0480000
        k(   19) = (   0.0000000   0.6000000  -0.4000000), wk =   0.0240000
        k(   20) = (  -0.1000000  -0.1000000   0.4000000), wk =   0.0480000
        k(   21) = (  -0.1000000  -0.2000000   0.5000000), wk =   0.0960000
        k(   22) = (  -0.1000000   0.7000000  -0.4000000), wk =   0.0960000
        k(   23) = (  -0.2000000   0.2000000   0.2000000), wk =   0.0160000
        k(   24) = (  -0.2000000   0.8000000  -0.4000000), wk =   0.0480000
        k(   25) = (  -0.2000000   0.7000000  -0.3000000), wk =   0.0480000
        k(   26) = (  -0.3000000   0.3000000   0.2000000), wk =   0.0480000
        k(   27) = (   0.6000000  -0.6000000   0.2000000), wk =   0.0480000
        k(   28) = (   0.6000000  -0.7000000   0.3000000), wk =   0.0480000
        k(   29) = (   0.5000000  -0.5000000   0.2000000), wk =   0.0240000
        k(   30) = (   0.5000000  -0.6000000   0.3000000), wk =   0.0960000
        k(   31) = (   0.4000000  -0.6000000   0.4000000), wk =   0.0160000
        k(   32) = (   0.0000000   0.0000000   0.4000000), wk =   0.0120000
        k(   33) = (   0.0000000  -0.1000000   0.5000000), wk =   0.0480000
        k(   34) = (   0.0000000  -0.2000000   0.6000000), wk =   0.0480000
        k(   35) = (   0.0000000   0.7000000  -0.3000000), wk =   0.0240000
        k(   36) = (  -0.1000000  -0.1000000   0.6000000), wk =   0.0480000
        k(   37) = (  -0.1000000   0.8000000  -0.3000000), wk =   0.0960000
        k(   38) = (  -0.2000000   0.8000000  -0.2000000), wk =   0.0160000
        k(   39) = (   0.6000000  -0.6000000   0.4000000), wk =   0.0160000
        k(   40) = (   0.5000000  -0.5000000   0.4000000), wk =   0.0240000
        k(   41) = (   0.0000000   0.0000000   0.6000000), wk =   0.0120000
        k(   42) = (   0.0000000  -0.1000000   0.7000000), wk =   0.0480000
        k(   43) = (   0.0000000   0.8000000  -0.2000000), wk =   0.0240000
        k(   44) = (  -0.1000000   0.9000000  -0.2000000), wk =   0.0480000
        k(   45) = (   0.0000000   0.0000000   0.8000000), wk =   0.0120000
        k(   46) = (   0.0000000   0.9000000  -0.1000000), wk =   0.0240000
        k(   47) = (   0.0000000   0.0000000  -1.0000000), wk =   0.0020000

     Dense  grid:    10641 G-vectors     FFT dimensions: (  30,  30,  30)

     Estimated max dynamical RAM per process >      10.99 MB

     Estimated total dynamical RAM >      54.96 MB

     Check: negative/imaginary core charge=   -0.000029    0.000000

     Initial potential from superposition of free atoms

     starting charge    8.98117, renormalised to    9.00000
     Starting wfcs are    8 randomized atomic wfcs +    1 random wfcs
     Checking if some PAW data can be deallocated... 

     total cpu time spent up to now is        1.1 secs

     Self-consistent Calculation

     iteration #  1     ecut=    30.00 Ry     beta= 0.70
     Davidson diagonalization with overlap
     ethr =  1.00E-02,  avg # of iterations =  6.5

     Threshold (ethr) on eigenvalues was too large:
     Diagonalizing with lowered threshold

     Davidson diagonalization with overlap
     ethr =  1.41E-05,  avg # of iterations =  6.3

     total cpu time spent up to now is        2.8 secs

     total energy              =    -113.00799810 Ry
     Harris-Foulkes estimate   =    -113.00848613 Ry
     estimated scf accuracy    <       0.00126049 Ry

     iteration #  2     ecut=    30.00 Ry     beta= 0.70
     Davidson diagonalization with overlap
     ethr =  1.40E-05,  avg # of iterations =  2.1

     total cpu time spent up to now is        3.4 secs

     total energy              =    -113.00823773 Ry
     Harris-Foulkes estimate   =    -113.00824376 Ry
     estimated scf accuracy    <       0.00010598 Ry

     iteration #  3     ecut=    30.00 Ry     beta= 0.70
     Davidson diagonalization with overlap
     ethr =  1.18E-06,  avg # of iterations =  2.1

     total cpu time spent up to now is        3.9 secs

     total energy              =    -113.00825096 Ry
     Harris-Foulkes estimate   =    -113.00824794 Ry
     estimated scf accuracy    <       0.00000750 Ry

     iteration #  4     ecut=    30.00 Ry     beta= 0.70
     Davidson diagonalization with overlap
     ethr =  8.33E-08,  avg # of iterations =  1.6

     total cpu time spent up to now is        4.5 secs

     total energy              =    -113.00825162 Ry
     Harris-Foulkes estimate   =    -113.00825163 Ry
     estimated scf accuracy    <       0.00000005 Ry

     iteration #  5     ecut=    30.00 Ry     beta= 0.70
     Davidson diagonalization with overlap
     ethr =  5.71E-10,  avg # of iterations =  2.7

     total cpu time spent up to now is        5.1 secs

     End of self-consistent calculation

          k = 0.0000 0.0000 0.0000 (  1289 PWs)   bands (ev):

   -30.1667 -13.6089 -13.6089 -13.6089  -0.2518   6.2833   6.2833   6.2833
     7.2035

          k = 0.0000-0.1000 0.1000 (  1346 PWs)   bands (ev):

   -30.1664 -13.6182 -13.6133 -13.6108  -0.1241   6.0810   6.1191   6.3816
     7.0035

          k = 0.0000-0.2000 0.2000 (  1342 PWs)   bands (ev):

   -30.1652 -13.6376 -13.6198 -13.6106   0.2506   5.3675   5.7754   6.6836
     6.9724

          k = 0.0000-0.3000 0.3000 (  1336 PWs)   bands (ev):

   -30.1637 -13.6609 -13.6276 -13.6108   0.8466   4.4486   5.4397   7.0532
     7.1742

          k = 0.0000-0.4000 0.4000 (  1332 PWs)   bands (ev):

   -30.1624 -13.6794 -13.6343 -13.6107   1.6201   3.4956   5.2128   6.9762
     7.4334

          k = 0.0000 0.5000-0.5000 (  1340 PWs)   bands (ev):

   -30.1620 -13.6869 -13.6368 -13.6110   2.3984   2.6616   5.1332   6.8833
     8.0019

          k =-0.1000-0.1000 0.2000 (  1343 PWs)   bands (ev):

   -30.1656 -13.6316 -13.6159 -13.6125   0.1273   5.6748   5.8019   6.5706
     6.8316

          k =-0.1000-0.2000 0.3000 (  1338 PWs)   bands (ev):

   -30.1642 -13.6519 -13.6235 -13.6131   0.6132   4.9074   5.4176   6.8390
     6.9194

          k =-0.1000-0.3000 0.4000 (  1330 PWs)   bands (ev):

   -30.1628 -13.6709 -13.6322 -13.6133   1.3004   4.0098   5.1329   6.8501
     7.3424

          k =-0.1000 0.6000-0.5000 (  1331 PWs)   bands (ev):

   -30.1620 -13.6826 -13.6378 -13.6135   2.1331   3.0807   4.9820   6.7184
     7.6215

          k =-0.2000-0.2000 0.4000 (  1342 PWs)   bands (ev):

   -30.1630 -13.6660 -13.6317 -13.6167   1.1920   4.3916   4.8864   6.8969
     7.0225

          k =-0.2000 0.7000-0.5000 (  1324 PWs)   bands (ev):

   -30.1620 -13.6743 -13.6413 -13.6177   1.9457   3.6750   4.5346   6.7332
     7.1854

          k =-0.2000 0.6000-0.4000 (  1326 PWs)   bands (ev):

   -30.1616 -13.6772 -13.6460 -13.6180   2.7770   2.8403   4.4262   6.5818
     7.4817

          k =-0.3000 0.7000-0.4000 (  1327 PWs)   bands (ev):

   -30.1614 -13.6694 -13.6548 -13.6201   2.7227   3.4038   3.8356   6.6238
     7.2302

          k = 0.0000 0.0000 0.2000 (  1345 PWs)   bands (ev):

   -30.1660 -13.6204 -13.6157 -13.6157   0.0024   6.0338   6.0338   6.4293
     6.4868

          k = 0.0000-0.1000 0.3000 (  1345 PWs)   bands (ev):

   -30.1648 -13.6376 -13.6224 -13.6168   0.3733   5.4060   5.7550   6.3043
     6.6981

          k = 0.0000-0.2000 0.4000 (  1344 PWs)   bands (ev):

   -30.1633 -13.6601 -13.6305 -13.6167   0.9632   4.4982   5.4541   6.3593
     7.1737

          k = 0.0000-0.3000 0.5000 (  1327 PWs)   bands (ev):

   -30.1621 -13.6776 -13.6370 -13.6158   1.7294   3.5659   5.2454   6.3220
     7.5127

          k = 0.0000 0.6000-0.4000 (  1324 PWs)   bands (ev):

   -30.1616 -13.6847 -13.6392 -13.6155   2.5279   2.7171   5.1722   6.2546
     7.5705

          k =-0.1000-0.1000 0.4000 (  1336 PWs)   bands (ev):

   -30.1634 -13.6524 -13.6297 -13.6206   0.8488   4.8651   5.3914   6.2116
     6.9915

          k =-0.1000-0.2000 0.5000 (  1333 PWs)   bands (ev):

   -30.1621 -13.6687 -13.6388 -13.6213   1.5211   4.1012   5.0435   6.2836
     7.1978

          k =-0.1000 0.7000-0.4000 (  1325 PWs)   bands (ev):

   -30.1613 -13.6789 -13.6445 -13.6211   2.3386   3.2315   4.8550   6.2115
     7.3202

          k =-0.2000 0.2000 0.2000 (  1337 PWs)   bands (ev):

   -30.1645 -13.6490 -13.6162 -13.6162   0.4941   5.2308   5.2308   6.8056
     7.2029

          k =-0.2000 0.8000-0.4000 (  1325 PWs)   bands (ev):

   -30.1612 -13.6727 -13.6505 -13.6231   2.2458   3.7149   4.3642   6.5580
     6.9200

          k =-0.2000 0.7000-0.3000 (  1328 PWs)   bands (ev):

   -30.1608 -13.6725 -13.6574 -13.6234   3.0118   3.1030   4.0726   6.6147
     7.1170

          k =-0.3000 0.3000 0.2000 (  1342 PWs)   bands (ev):

   -30.1633 -13.6652 -13.6263 -13.6171   1.0795   4.4707   4.8904   6.9206
     7.3033

          k = 0.6000-0.6000 0.2000 (  1321 PWs)   bands (ev):

   -30.1622 -13.6750 -13.6359 -13.6173   1.8412   3.6215   4.6816   6.6763
     7.5343

          k = 0.6000-0.7000 0.3000 (  1328 PWs)   bands (ev):

   -30.1624 -13.6712 -13.6336 -13.6221   1.7413   4.0539   4.3674   6.5000
     7.4353

          k = 0.5000-0.5000 0.2000 (  1328 PWs)   bands (ev):

   -30.1619 -13.6789 -13.6405 -13.6174   2.6541   2.7829   4.6113   6.5075
     7.6749

          k = 0.5000-0.6000 0.3000 (  1321 PWs)   bands (ev):

   -30.1618 -13.6703 -13.6442 -13.6237   2.5410   3.3732   4.1324   6.0915
     7.5715

          k = 0.4000-0.6000 0.4000 (  1325 PWs)   bands (ev):

   -30.1616 -13.6581 -13.6581 -13.6263   3.2171   3.2171   3.5901   5.8443
     7.6649

          k = 0.0000 0.0000 0.4000 (  1337 PWs)   bands (ev):

   -30.1636 -13.6406 -13.6289 -13.6289   0.7324   5.3396   5.6489   5.6489
     6.8544

          k = 0.0000-0.1000 0.5000 (  1339 PWs)   bands (ev):

   -30.1622 -13.6574 -13.6376 -13.6313   1.3026   4.5827   5.4718   5.6860
     7.1814

          k = 0.0000-0.2000 0.6000 (  1318 PWs)   bands (ev):

   -30.1610 -13.6728 -13.6438 -13.6300   2.0412   3.7524   5.3255   5.5934
     7.0119

          k = 0.0000 0.7000-0.3000 (  1320 PWs)   bands (ev):

   -30.1606 -13.6792 -13.6465 -13.6295   2.8817   2.8884   5.2705   5.4873
     7.1063

          k =-0.1000-0.1000 0.6000 (  1327 PWs)   bands (ev):

   -30.1610 -13.6666 -13.6471 -13.6346   1.9395   4.1213   5.0191   5.8474
     6.7084

          k =-0.1000 0.8000-0.3000 (  1325 PWs)   bands (ev):

   -30.1602 -13.6733 -13.6545 -13.6345   2.6990   3.4920   4.6402   5.9417
     6.7314

          k =-0.2000 0.8000-0.2000 (  1322 PWs)   bands (ev):

   -30.1599 -13.6664 -13.6664 -13.6350   3.2890   3.2890   4.0942   6.4375
     6.4375

          k = 0.6000-0.6000 0.4000 (  1325 PWs)   bands (ev):

   -30.1619 -13.6673 -13.6352 -13.6352   2.4491   3.8542   3.8542   5.7317
     7.7213

          k = 0.5000-0.5000 0.4000 (  1322 PWs)   bands (ev):

   -30.1617 -13.6591 -13.6467 -13.6356   3.1553   3.2695   3.7884   5.3812
     7.7547

          k = 0.0000 0.0000 0.6000 (  1320 PWs)   bands (ev):

   -30.1609 -13.6571 -13.6457 -13.6457   1.8350   4.4007   5.4532   5.4532
     6.4426

          k = 0.0000-0.1000 0.7000 (  1333 PWs)   bands (ev):

   -30.1599 -13.6678 -13.6530 -13.6478   2.5070   3.9086   5.2586   5.4110
     6.2562

          k = 0.0000 0.8000-0.2000 (  1332 PWs)   bands (ev):

   -30.1595 -13.6727 -13.6556 -13.6475   3.1438   3.3484   5.0500   5.3903
     6.4405

          k =-0.1000 0.9000-0.2000 (  1323 PWs)   bands (ev):

   -30.1592 -13.6686 -13.6615 -13.6498   3.1254   3.6223   4.7532   5.7796
     6.1024

          k = 0.0000 0.0000 0.8000 (  1324 PWs)   bands (ev):

   -30.1589 -13.6648 -13.6599 -13.6599   3.0433   3.8118   5.4683   5.4683
     5.5783

          k = 0.0000 0.9000-0.1000 (  1312 PWs)   bands (ev):

   -30.1585 -13.6671 -13.6626 -13.6601   3.4489   3.5935   5.1997   5.4865
     5.8088

          k = 0.0000 0.0000-1.0000 (  1312 PWs)   bands (ev):

   -30.1581 -13.6653 -13.6653 -13.6653   3.6124   5.5222   5.5223   5.5223
     7.6712

     the Fermi energy is     1.9542 ev

!    total energy              =    -113.00825164 Ry
     Harris-Foulkes estimate   =    -113.00825164 Ry
     estimated scf accuracy    <          2.3E-09 Ry

     total all-electron energy =     -1204.246962 Ry

     The total energy is the sum of the following terms:

     one-electron contribution =     -35.40229368 Ry
     hartree contribution      =      18.88009710 Ry
     xc contribution           =     -11.17038691 Ry
     ewald contribution        =     -29.89633973 Ry
     one-center paw contrib.   =     -55.41868095 Ry
     smearing contrib. (-TS)   =      -0.00064747 Ry

     convergence has been achieved in   5 iterations

     Forces acting on atoms (cartesian axes, Ry/au):

     atom    1 type  1   force =     0.00000000    0.00000000    0.00000000

     Total force =     0.000000     Total SCF correction =     0.000000


     Computing stress (Cartesian axis) and pressure

          total   stress  (Ry/bohr**3)                   (kbar)     P=   -2.31
  -0.00001572  -0.00000000   0.00000000         -2.31     -0.00      0.00
  -0.00000000  -0.00001572  -0.00000000         -0.00     -2.31     -0.00
   0.00000000  -0.00000000  -0.00001572          0.00     -0.00     -2.31


     Writing output data file K.save/

     init_run     :      0.41s CPU      0.43s WALL (       1 calls)
     electrons    :      3.80s CPU      3.97s WALL (       1 calls)
     forces       :      0.08s CPU      0.09s WALL (       1 calls)
     stress       :      0.25s CPU      0.25s WALL (       1 calls)

     Called by init_run:
     wfcinit      :      0.16s CPU      0.16s WALL (       1 calls)
     potinit      :      0.09s CPU      0.11s WALL (       1 calls)
     hinit0       :      0.13s CPU      0.13s WALL (       1 calls)

     Called by electrons:
     c_bands      :      2.76s CPU      2.89s WALL (       6 calls)
     sum_band     :      0.52s CPU      0.54s WALL (       6 calls)
     v_of_rho     :      0.03s CPU      0.03s WALL (       6 calls)
     newd         :      0.06s CPU      0.06s WALL (       6 calls)
     PAW_pot      :      0.53s CPU      0.56s WALL (       6 calls)
     mix_rho      :      0.00s CPU      0.00s WALL (       6 calls)

     Called by c_bands:
     init_us_2    :      0.11s CPU      0.11s WALL (     705 calls)
     cegterg      :      2.62s CPU      2.74s WALL (     282 calls)

     Called by sum_band:
     sum_band:bec :      0.00s CPU      0.00s WALL (     282 calls)
     addusdens    :      0.06s CPU      0.06s WALL (       6 calls)

     Called by *egterg:
     h_psi        :      2.03s CPU      2.12s WALL (    1325 calls)
     s_psi        :      0.08s CPU      0.08s WALL (    1325 calls)
     g_psi        :      0.01s CPU      0.01s WALL (     996 calls)
     cdiaghg      :      0.26s CPU      0.27s WALL (    1231 calls)

     Called by h_psi:
     h_psi:pot    :      2.02s CPU      2.11s WALL (    1325 calls)
     h_psi:calbec :      0.11s CPU      0.11s WALL (    1325 calls)
     vloc_psi     :      1.83s CPU      1.91s WALL (    1325 calls)
     add_vuspsi   :      0.08s CPU      0.08s WALL (    1325 calls)

     General routines
     calbec       :      0.20s CPU      0.21s WALL (    1842 calls)
     fft          :      0.02s CPU      0.02s WALL (      93 calls)
     ffts         :      0.00s CPU      0.00s WALL (       6 calls)
     fftw         :      2.03s CPU      2.12s WALL (   17446 calls)

     Parallel routines
     fft_scatt_xy :      0.18s CPU      0.19s WALL (   17545 calls)
     fft_scatt_yz :      0.47s CPU      0.49s WALL (   17545 calls)

     PWSCF        :     5.30s CPU         5.57s WALL


   This run was terminated on:   0:18:58   8Apr2024            

=------------------------------------------------------------------------------=
   JOB DONE.
=------------------------------------------------------------------------------=
