
     Program PWSCF v.6.3MaX starts on  8Apr2024 at  0:30: 2 

     This program is part of the open-source Quantum ESPRESSO suite
     for quantum simulation of materials; please cite
         "P. Giannozzi et al., J. Phys.:Condens. Matter 21 395502 (2009);
         "P. Giannozzi et al., J. Phys.:Condens. Matter 29 465901 (2017);
          URL http://www.quantum-espresso.org", 
     in publications or presentations arising from this work. More details at
     http://www.quantum-espresso.org/quote

     Parallel version (MPI), running on     5 processors

     MPI processes distributed on     1 nodes
     R & G space division:  proc/nbgrp/npool/nimage =       5
     Waiting for input...
     Reading input from standard input

     Current dimensions of program PWSCF are:
     Max number of different atomic species (ntypx) = 10
     Max number of k-points (npk) =  40000
     Max angular momentum in pseudopotentials (lmaxx) =  3
               file K.pz-spn-rrkjus_psl.1.0.0.UPF: wavefunction(s)  3S renormalized

     Subspace diagonalization in iterative solution of the eigenvalue problem:
     a serial algorithm will be used


     Parallelization info
     --------------------
     sticks:   dense  smooth     PW     G-vecs:    dense   smooth      PW
     Min         196     196     57                 3895     3895     630
     Max         197     197     59                 3897     3897     631
     Sum         981     981    291                19477    19477    3151



     bravais-lattice index     =            3
     lattice parameter (alat)  =       9.8600  a.u.
     unit-cell volume          =     479.2926 (a.u.)^3
     number of atoms/cell      =            1
     number of atomic types    =            1
     number of electrons       =         9.00
     number of Kohn-Sham states=            9
     kinetic-energy cutoff     =      45.0000  Ry
     charge density cutoff     =     180.0000  Ry
     convergence threshold     =      1.0E-08
     mixing beta               =       0.7000
     number of iterations used =            8  plain     mixing
     Exchange-correlation      = LDA ( 1  1  0  0 0 0)

     celldm(1)=   9.860000  celldm(2)=   0.000000  celldm(3)=   0.000000
     celldm(4)=   0.000000  celldm(5)=   0.000000  celldm(6)=   0.000000

     crystal axes: (cart. coord. in units of alat)
               a(1) = (   0.500000   0.500000   0.500000 )  
               a(2) = (  -0.500000   0.500000   0.500000 )  
               a(3) = (  -0.500000  -0.500000   0.500000 )  

     reciprocal axes: (cart. coord. in units 2 pi/alat)
               b(1) = (  1.000000  0.000000  1.000000 )  
               b(2) = ( -1.000000  1.000000  0.000000 )  
               b(3) = (  0.000000 -1.000000  1.000000 )  


     PseudoPot. # 1 for K  read from file:
     /home/lorenzo/pseudos/K/K.pz-spn-rrkjus_psl.1.0.0.UPF
     MD5 check sum: af434a66a3b91719abff201b8f79bb09
     Pseudo is Ultrasoft + core correction, Zval =  9.0
     Generated using "atomic" code by A. Dal Corso v.6.2.2
     Using radial grid of 1165 points,  6 beta functions with: 
                l(1) =   0
                l(2) =   0
                l(3) =   1
                l(4) =   1
                l(5) =   2
                l(6) =   2
     Q(r) pseudized with 0 coefficients 


     atomic species   valence    mass     pseudopotential
        K              9.00    39.09830     K ( 1.00)

     48 Sym. Ops., with inversion, found



   Cartesian axes

     site n.     atom                  positions (alat units)
         1           K   tau(   1) = (   0.0000000   0.0000000   0.0000000  )

     number of k points=     3  gaussian smearing, width (Ry)=  0.0100
                       cart. coord. in units 2pi/alat
        k(    1) = (   0.0000000   0.0000000   0.0000000), wk =   0.2500000
        k(    2) = (   0.0000000   0.5000000  -0.5000000), wk =   1.5000000
        k(    3) = (   0.0000000   0.0000000  -1.0000000), wk =   0.2500000

     Dense  grid:    19477 G-vectors     FFT dimensions: (  40,  40,  40)

     Estimated max dynamical RAM per process >      16.54 MB

     Estimated total dynamical RAM >      82.72 MB

     Check: negative/imaginary core charge=   -0.000011    0.000000

     Initial potential from superposition of free atoms

     starting charge    8.98437, renormalised to    9.00000
     Starting wfcs are    8 randomized atomic wfcs +    1 random wfcs

     total cpu time spent up to now is        1.0 secs

     Self-consistent Calculation

     iteration #  1     ecut=    45.00 Ry     beta= 0.70
     Davidson diagonalization with overlap
     ethr =  1.00E-02,  avg # of iterations =  8.7

     Threshold (ethr) on eigenvalues was too large:
     Diagonalizing with lowered threshold

     Davidson diagonalization with overlap
     ethr =  5.31E-06,  avg # of iterations = 10.3

     total cpu time spent up to now is        1.3 secs

     total energy              =     -58.70316481 Ry
     Harris-Foulkes estimate   =     -58.70352894 Ry
     estimated scf accuracy    <       0.00050616 Ry

     iteration #  2     ecut=    45.00 Ry     beta= 0.70
     Davidson diagonalization with overlap
     ethr =  5.62E-06,  avg # of iterations =  2.0

     total cpu time spent up to now is        1.4 secs

     total energy              =     -58.70329950 Ry
     Harris-Foulkes estimate   =     -58.70331590 Ry
     estimated scf accuracy    <       0.00002988 Ry

     iteration #  3     ecut=    45.00 Ry     beta= 0.70
     Davidson diagonalization with overlap
     ethr =  3.32E-07,  avg # of iterations =  2.0

     total cpu time spent up to now is        1.5 secs

     total energy              =     -58.70330558 Ry
     Harris-Foulkes estimate   =     -58.70330514 Ry
     estimated scf accuracy    <       0.00000053 Ry

     iteration #  4     ecut=    45.00 Ry     beta= 0.70
     Davidson diagonalization with overlap
     ethr =  5.88E-09,  avg # of iterations =  1.7

     total cpu time spent up to now is        1.6 secs

     End of self-consistent calculation

          k = 0.0000 0.0000 0.0000 (  2491 PWs)   bands (ev):

   -29.9777 -13.6201 -13.6201 -13.6201  -0.4435   5.9759   5.9759   5.9759
     6.9476

          k = 0.0000 0.5000-0.5000 (  2422 PWs)   bands (ev):

   -29.9723 -13.7011 -13.6472 -13.6198   2.1764   2.5290   4.8763   6.5884
     7.4307

          k = 0.0000 0.0000-1.0000 (  2454 PWs)   bands (ev):

   -29.9683 -13.6785 -13.6785 -13.6785   3.4555   5.3066   5.3066   5.3066
     7.2899

     the Fermi energy is     2.1763 ev

!    total energy              =     -58.70330565 Ry
     Harris-Foulkes estimate   =     -58.70330565 Ry
     estimated scf accuracy    <          4.7E-09 Ry

     The total energy is the sum of the following terms:

     one-electron contribution =     -36.67690361 Ry
     hartree contribution      =      18.89820621 Ry
     xc contribution           =     -11.02403195 Ry
     ewald contribution        =     -29.89633975 Ry
     smearing contrib. (-TS)   =      -0.00423654 Ry

     convergence has been achieved in   4 iterations

     Forces acting on atoms (cartesian axes, Ry/au):

     atom    1 type  1   force =     0.00000000    0.00000000    0.00000000

     Total force =     0.000000     Total SCF correction =     0.000000


     Computing stress (Cartesian axis) and pressure

          total   stress  (Ry/bohr**3)                   (kbar)     P=   -3.46
  -0.00002350   0.00000000   0.00000000         -3.46      0.00      0.00
   0.00000000  -0.00002350   0.00000000          0.00     -3.46      0.00
   0.00000000   0.00000000  -0.00002350          0.00      0.00     -3.46


     Writing output data file K.save/

     init_run     :      0.21s CPU      0.22s WALL (       1 calls)
     electrons    :      0.56s CPU      0.58s WALL (       1 calls)
     forces       :      0.05s CPU      0.05s WALL (       1 calls)
     stress       :      0.16s CPU      0.16s WALL (       1 calls)

     Called by init_run:
     wfcinit      :      0.02s CPU      0.02s WALL (       1 calls)
     potinit      :      0.01s CPU      0.01s WALL (       1 calls)
     hinit0       :      0.15s CPU      0.15s WALL (       1 calls)

     Called by electrons:
     c_bands      :      0.32s CPU      0.34s WALL (       5 calls)
     sum_band     :      0.15s CPU      0.15s WALL (       5 calls)
     v_of_rho     :      0.01s CPU      0.01s WALL (       5 calls)
     newd         :      0.09s CPU      0.09s WALL (       5 calls)
     mix_rho      :      0.00s CPU      0.00s WALL (       5 calls)

     Called by c_bands:
     init_us_2    :      0.01s CPU      0.01s WALL (      39 calls)
     cegterg      :      0.31s CPU      0.32s WALL (      15 calls)

     Called by sum_band:
     sum_band:bec :      0.00s CPU      0.00s WALL (      15 calls)
     addusdens    :      0.09s CPU      0.09s WALL (       5 calls)

     Called by *egterg:
     h_psi        :      0.25s CPU      0.27s WALL (      92 calls)
     s_psi        :      0.01s CPU      0.01s WALL (      92 calls)
     g_psi        :      0.00s CPU      0.00s WALL (      74 calls)
     cdiaghg      :      0.02s CPU      0.02s WALL (      86 calls)

     Called by h_psi:
     h_psi:pot    :      0.25s CPU      0.27s WALL (      92 calls)
     h_psi:calbec :      0.01s CPU      0.01s WALL (      92 calls)
     vloc_psi     :      0.23s CPU      0.24s WALL (      92 calls)
     add_vuspsi   :      0.01s CPU      0.01s WALL (      92 calls)

     General routines
     calbec       :      0.02s CPU      0.02s WALL (     122 calls)
     fft          :      0.01s CPU      0.01s WALL (      30 calls)
     ffts         :      0.00s CPU      0.00s WALL (       5 calls)
     fftw         :      0.25s CPU      0.26s WALL (     999 calls)

     Parallel routines
     fft_scatt_xy :      0.02s CPU      0.02s WALL (    1034 calls)
     fft_scatt_yz :      0.06s CPU      0.07s WALL (    1034 calls)

     PWSCF        :     1.75s CPU         1.82s WALL


   This run was terminated on:   0:30: 4   8Apr2024            

=------------------------------------------------------------------------------=
   JOB DONE.
=------------------------------------------------------------------------------=
