
     Program PWSCF v.6.3MaX starts on  8Apr2024 at  1: 4:54 

     This program is part of the open-source Quantum ESPRESSO suite
     for quantum simulation of materials; please cite
         "P. Giannozzi et al., J. Phys.:Condens. Matter 21 395502 (2009);
         "P. Giannozzi et al., J. Phys.:Condens. Matter 29 465901 (2017);
          URL http://www.quantum-espresso.org", 
     in publications or presentations arising from this work. More details at
     http://www.quantum-espresso.org/quote

     Parallel version (MPI), running on     5 processors

     MPI processes distributed on     1 nodes
     R & G space division:  proc/nbgrp/npool/nimage =       5
     Waiting for input...
     Reading input from standard input

     Current dimensions of program PWSCF are:
     Max number of different atomic species (ntypx) = 10
     Max number of k-points (npk) =  40000
     Max angular momentum in pseudopotentials (lmaxx) =  3
               file K.pz-spn-rrkjus_psl.1.0.0.UPF: wavefunction(s)  3S renormalized

     Subspace diagonalization in iterative solution of the eigenvalue problem:
     a serial algorithm will be used


     Parallelization info
     --------------------
     sticks:   dense  smooth     PW     G-vecs:    dense   smooth      PW
     Min         330     330     93                 8429     8429    1272
     Max         331     331     94                 8430     8430    1274
     Sum        1653    1653    467                42147    42147    6363



     bravais-lattice index     =            3
     lattice parameter (alat)  =       9.8600  a.u.
     unit-cell volume          =     479.2926 (a.u.)^3
     number of atoms/cell      =            1
     number of atomic types    =            1
     number of electrons       =         9.00
     number of Kohn-Sham states=            9
     kinetic-energy cutoff     =      75.0000  Ry
     charge density cutoff     =     300.0000  Ry
     convergence threshold     =      1.0E-08
     mixing beta               =       0.7000
     number of iterations used =            8  plain     mixing
     Exchange-correlation      = LDA ( 1  1  0  0 0 0)

     celldm(1)=   9.860000  celldm(2)=   0.000000  celldm(3)=   0.000000
     celldm(4)=   0.000000  celldm(5)=   0.000000  celldm(6)=   0.000000

     crystal axes: (cart. coord. in units of alat)
               a(1) = (   0.500000   0.500000   0.500000 )  
               a(2) = (  -0.500000   0.500000   0.500000 )  
               a(3) = (  -0.500000  -0.500000   0.500000 )  

     reciprocal axes: (cart. coord. in units 2 pi/alat)
               b(1) = (  1.000000  0.000000  1.000000 )  
               b(2) = ( -1.000000  1.000000  0.000000 )  
               b(3) = (  0.000000 -1.000000  1.000000 )  


     PseudoPot. # 1 for K  read from file:
     /home/lorenzo/pseudos/K/K.pz-spn-rrkjus_psl.1.0.0.UPF
     MD5 check sum: af434a66a3b91719abff201b8f79bb09
     Pseudo is Ultrasoft + core correction, Zval =  9.0
     Generated using "atomic" code by A. Dal Corso v.6.2.2
     Using radial grid of 1165 points,  6 beta functions with: 
                l(1) =   0
                l(2) =   0
                l(3) =   1
                l(4) =   1
                l(5) =   2
                l(6) =   2
     Q(r) pseudized with 0 coefficients 


     atomic species   valence    mass     pseudopotential
        K              9.00    39.09830     K ( 1.00)

     48 Sym. Ops., with inversion, found



   Cartesian axes

     site n.     atom                  positions (alat units)
         1           K   tau(   1) = (   0.0000000   0.0000000   0.0000000  )

     number of k points=    20  gaussian smearing, width (Ry)=  0.0100
                       cart. coord. in units 2pi/alat
        k(    1) = (   0.0000000   0.0000000   0.0000000), wk =   0.0058309
        k(    2) = (   0.0000000  -0.1428571   0.1428571), wk =   0.0699708
        k(    3) = (   0.0000000  -0.2857143   0.2857143), wk =   0.0699708
        k(    4) = (   0.0000000  -0.4285714   0.4285714), wk =   0.0699708
        k(    5) = (  -0.1428571  -0.1428571   0.2857143), wk =   0.1399417
        k(    6) = (  -0.1428571  -0.2857143   0.4285714), wk =   0.2798834
        k(    7) = (  -0.1428571   0.5714286  -0.4285714), wk =   0.1399417
        k(    8) = (  -0.2857143   0.7142857  -0.4285714), wk =   0.1399417
        k(    9) = (   0.0000000   0.0000000   0.2857143), wk =   0.0349854
        k(   10) = (   0.0000000  -0.1428571   0.4285714), wk =   0.1399417
        k(   11) = (   0.0000000  -0.2857143   0.5714286), wk =   0.1399417
        k(   12) = (  -0.1428571  -0.1428571   0.5714286), wk =   0.1399417
        k(   13) = (  -0.1428571   0.7142857  -0.2857143), wk =   0.1399417
        k(   14) = (  -0.2857143   0.2857143   0.2857143), wk =   0.0466472
        k(   15) = (   0.5714286  -0.5714286   0.2857143), wk =   0.1399417
        k(   16) = (   0.4285714  -0.5714286   0.4285714), wk =   0.0466472
        k(   17) = (   0.0000000   0.0000000   0.5714286), wk =   0.0349854
        k(   18) = (   0.0000000  -0.1428571   0.7142857), wk =   0.1399417
        k(   19) = (  -0.1428571   0.8571429  -0.1428571), wk =   0.0466472
        k(   20) = (   0.0000000   0.0000000   0.8571429), wk =   0.0349854

     Dense  grid:    42147 G-vectors     FFT dimensions: (  48,  48,  48)

     Estimated max dynamical RAM per process >      36.44 MB

     Estimated total dynamical RAM >     182.21 MB

     Check: negative/imaginary core charge=   -0.000002    0.000000

     Initial potential from superposition of free atoms

     starting charge    8.98437, renormalised to    9.00000
     Starting wfcs are    8 randomized atomic wfcs +    1 random wfcs

     total cpu time spent up to now is        1.3 secs

     Self-consistent Calculation

     iteration #  1     ecut=    75.00 Ry     beta= 0.70
     Davidson diagonalization with overlap
     ethr =  1.00E-02,  avg # of iterations =  6.2

     Threshold (ethr) on eigenvalues was too large:
     Diagonalizing with lowered threshold

     Davidson diagonalization with overlap
     ethr =  1.24E-05,  avg # of iterations =  6.8

     total cpu time spent up to now is        3.9 secs

     total energy              =     -58.74321539 Ry
     Harris-Foulkes estimate   =     -58.74378534 Ry
     estimated scf accuracy    <       0.00112500 Ry

     iteration #  2     ecut=    75.00 Ry     beta= 0.70
     Davidson diagonalization with overlap
     ethr =  1.25E-05,  avg # of iterations =  2.4

     total cpu time spent up to now is        4.8 secs

     total energy              =     -58.74341501 Ry
     Harris-Foulkes estimate   =     -58.74343246 Ry
     estimated scf accuracy    <       0.00008989 Ry

     iteration #  3     ecut=    75.00 Ry     beta= 0.70
     Davidson diagonalization with overlap
     ethr =  9.99E-07,  avg # of iterations =  1.6

     total cpu time spent up to now is        5.6 secs

     total energy              =     -58.74342394 Ry
     Harris-Foulkes estimate   =     -58.74342315 Ry
     estimated scf accuracy    <       0.00000570 Ry

     iteration #  4     ecut=    75.00 Ry     beta= 0.70
     Davidson diagonalization with overlap
     ethr =  6.34E-08,  avg # of iterations =  1.5

     total cpu time spent up to now is        6.3 secs

     total energy              =     -58.74342448 Ry
     Harris-Foulkes estimate   =     -58.74342448 Ry
     estimated scf accuracy    <       0.00000003 Ry

     iteration #  5     ecut=    75.00 Ry     beta= 0.70
     Davidson diagonalization with overlap
     ethr =  3.73E-10,  avg # of iterations =  2.1

     total cpu time spent up to now is        7.1 secs

     End of self-consistent calculation

          k = 0.0000 0.0000 0.0000 (  5281 PWs)   bands (ev):

   -30.0986 -13.7369 -13.7369 -13.7369  -0.4766   5.9290   5.9290   5.9290
     6.8743

          k = 0.0000-0.1429 0.1429 (  5271 PWs)   bands (ev):

   -30.0976 -13.7522 -13.7420 -13.7369  -0.2159   5.5208   5.6497   6.1379
     6.6335

          k = 0.0000-0.2857 0.2857 (  5263 PWs)   bands (ev):

   -30.0954 -13.7860 -13.7533 -13.7369   0.5292   4.3398   5.1733   6.7078
     6.7454

          k = 0.0000-0.4286 0.4286 (  5254 PWs)   bands (ev):

   -30.0937 -13.8128 -13.7624 -13.7368   1.6416   3.0142   4.8748   6.5863
     7.2082

          k =-0.1429-0.1429 0.2857 (  5263 PWs)   bands (ev):

   -30.0960 -13.7754 -13.7480 -13.7405   0.2879   4.8542   5.1286   6.4792
     6.4916

          k =-0.1429-0.2857 0.4286 (  5252 PWs)   bands (ev):

   -30.0941 -13.8008 -13.7615 -13.7418   1.2255   3.7516   4.6631   6.4853
     6.9119

          k =-0.1429 0.5714-0.4286 (  5258 PWs)   bands (ev):

   -30.0932 -13.8115 -13.7685 -13.7420   2.3448   2.5748   4.5031   6.2762
     7.2962

          k =-0.2857 0.7143-0.4286 (  5250 PWs)   bands (ev):

   -30.0930 -13.8008 -13.7795 -13.7463   2.2791   3.3122   3.7292   6.3040
     6.8379

          k = 0.0000 0.0000 0.2857 (  5249 PWs)   bands (ev):

   -30.0967 -13.7555 -13.7472 -13.7472   0.0395   5.5426   5.5426   5.7325
     6.2279

          k = 0.0000-0.1429 0.4286 (  5253 PWs)   bands (ev):

   -30.0946 -13.7842 -13.7589 -13.7487   0.7693   4.4289   5.2010   5.7487
     6.7591

          k = 0.0000-0.2857 0.5714 (  5276 PWs)   bands (ev):

   -30.0929 -13.8089 -13.7682 -13.7479   1.8632   3.1601   4.9525   5.6622
     7.0171

          k =-0.1429-0.1429 0.5714 (  5256 PWs)   bands (ev):

   -30.0928 -13.7986 -13.7737 -13.7540   1.6634   3.8102   4.5309   5.8826
     6.5719

          k =-0.1429 0.7143-0.2857 (  5268 PWs)   bands (ev):

   -30.0920 -13.8043 -13.7831 -13.7542   2.7952   2.8291   4.1258   5.9591
     6.7005

          k =-0.2857 0.2857 0.2857 (  5267 PWs)   bands (ev):

   -30.0946 -13.7956 -13.7497 -13.7497   1.0034   4.3125   4.3125   6.4680
     7.0936

          k = 0.5714-0.5714 0.2857 (  5255 PWs)   bands (ev):

   -30.0934 -13.8014 -13.7673 -13.7511   2.0818   3.2879   4.0410   5.8021
     7.2469

          k = 0.4286-0.5714 0.4286 (  5252 PWs)   bands (ev):

   -30.0931 -13.7840 -13.7840 -13.7587   3.0624   3.0624   3.3591   5.1831
     7.3710

          k = 0.0000 0.0000 0.5714 (  5258 PWs)   bands (ev):

   -30.0927 -13.7840 -13.7712 -13.7712   1.4483   4.2915   5.1885   5.1885
     6.3002

          k = 0.0000-0.1429 0.7143 (  5269 PWs)   bands (ev):

   -30.0912 -13.8001 -13.7811 -13.7726   2.4384   3.5005   4.9074   5.1209
     6.1347

          k =-0.1429 0.8571-0.1429 (  5264 PWs)   bands (ev):

   -30.0904 -13.7954 -13.7954 -13.7752   3.2014   3.2014   4.2459   5.7755
     5.7755

          k = 0.0000 0.0000 0.8571 (  5262 PWs)   bands (ev):

   -30.0898 -13.7939 -13.7914 -13.7914   3.1095   3.5016   5.2232   5.2447
     5.2447

     the Fermi energy is     1.7335 ev

!    total energy              =     -58.74342449 Ry
     Harris-Foulkes estimate   =     -58.74342449 Ry
     estimated scf accuracy    <          5.8E-10 Ry

     The total energy is the sum of the following terms:

     one-electron contribution =     -36.65525335 Ry
     hartree contribution      =      18.82555404 Ry
     xc contribution           =     -11.01679677 Ry
     ewald contribution        =     -29.89633970 Ry
     smearing contrib. (-TS)   =      -0.00058871 Ry

     convergence has been achieved in   5 iterations

     Forces acting on atoms (cartesian axes, Ry/au):

     atom    1 type  1   force =     0.00000000    0.00000000    0.00000000

     Total force =     0.000000     Total SCF correction =     0.000000


     Computing stress (Cartesian axis) and pressure

          total   stress  (Ry/bohr**3)                   (kbar)     P=   -4.07
  -0.00002764   0.00000000  -0.00000000         -4.07      0.00     -0.00
   0.00000000  -0.00002764   0.00000000          0.00     -4.07      0.00
  -0.00000000   0.00000000  -0.00002764         -0.00      0.00     -4.07


     Writing output data file K.save/

     init_run     :      0.58s CPU      0.60s WALL (       1 calls)
     electrons    :      5.62s CPU      5.81s WALL (       1 calls)
     forces       :      0.13s CPU      0.13s WALL (       1 calls)
     stress       :      0.59s CPU      0.59s WALL (       1 calls)

     Called by init_run:
     wfcinit      :      0.23s CPU      0.24s WALL (       1 calls)
     potinit      :      0.02s CPU      0.02s WALL (       1 calls)
     hinit0       :      0.22s CPU      0.23s WALL (       1 calls)

     Called by electrons:
     c_bands      :      4.36s CPU      4.51s WALL (       6 calls)
     sum_band     :      1.02s CPU      1.05s WALL (       6 calls)
     v_of_rho     :      0.02s CPU      0.03s WALL (       6 calls)
     newd         :      0.25s CPU      0.26s WALL (       6 calls)
     mix_rho      :      0.01s CPU      0.01s WALL (       6 calls)

     Called by c_bands:
     init_us_2    :      0.18s CPU      0.18s WALL (     300 calls)
     cegterg      :      4.13s CPU      4.28s WALL (     120 calls)

     Called by sum_band:
     sum_band:bec :      0.00s CPU      0.00s WALL (     120 calls)
     addusdens    :      0.23s CPU      0.23s WALL (       6 calls)

     Called by *egterg:
     h_psi        :      3.36s CPU      3.52s WALL (     552 calls)
     s_psi        :      0.12s CPU      0.12s WALL (     552 calls)
     g_psi        :      0.01s CPU      0.01s WALL (     412 calls)
     cdiaghg      :      0.13s CPU      0.13s WALL (     512 calls)

     Called by h_psi:
     h_psi:pot    :      3.34s CPU      3.50s WALL (     552 calls)
     h_psi:calbec :      0.23s CPU      0.24s WALL (     552 calls)
     vloc_psi     :      2.97s CPU      3.11s WALL (     552 calls)
     add_vuspsi   :      0.13s CPU      0.14s WALL (     552 calls)

     General routines
     calbec       :      0.40s CPU      0.41s WALL (     772 calls)
     fft          :      0.05s CPU      0.05s WALL (      34 calls)
     ffts         :      0.00s CPU      0.00s WALL (       6 calls)
     fftw         :      3.25s CPU      3.40s WALL (    7356 calls)

     Parallel routines
     fft_scatt_xy :      0.26s CPU      0.28s WALL (    7396 calls)
     fft_scatt_yz :      0.81s CPU      0.86s WALL (    7396 calls)

     PWSCF        :     7.68s CPU         7.98s WALL


   This run was terminated on:   1: 5: 2   8Apr2024            

=------------------------------------------------------------------------------=
   JOB DONE.
=------------------------------------------------------------------------------=
