
     Program PWSCF v.6.3MaX starts on  8Apr2024 at  0:23:55 

     This program is part of the open-source Quantum ESPRESSO suite
     for quantum simulation of materials; please cite
         "P. Giannozzi et al., J. Phys.:Condens. Matter 21 395502 (2009);
         "P. Giannozzi et al., J. Phys.:Condens. Matter 29 465901 (2017);
          URL http://www.quantum-espresso.org", 
     in publications or presentations arising from this work. More details at
     http://www.quantum-espresso.org/quote

     Parallel version (MPI), running on     5 processors

     MPI processes distributed on     1 nodes
     R & G space division:  proc/nbgrp/npool/nimage =       5
     Waiting for input...
     Reading input from standard input

     Current dimensions of program PWSCF are:
     Max number of different atomic species (ntypx) = 10
     Max number of k-points (npk) =  40000
     Max angular momentum in pseudopotentials (lmaxx) =  3
               file K.pz-spn-kjpaw_psl.1.0.0.UPF: wavefunction(s)  3S renormalized

     Subspace diagonalization in iterative solution of the eigenvalue problem:
     a serial algorithm will be used


     Parallelization info
     --------------------
     sticks:   dense  smooth     PW     G-vecs:    dense   smooth      PW
     Min         153     153     45                 2690     2690     434
     Max         154     154     46                 2691     2691     435
     Sum         769     769    229                13451    13451    2171



     bravais-lattice index     =            3
     lattice parameter (alat)  =       9.8600  a.u.
     unit-cell volume          =     479.2926 (a.u.)^3
     number of atoms/cell      =            1
     number of atomic types    =            1
     number of electrons       =         9.00
     number of Kohn-Sham states=            9
     kinetic-energy cutoff     =      35.0000  Ry
     charge density cutoff     =     140.0000  Ry
     convergence threshold     =      1.0E-08
     mixing beta               =       0.7000
     number of iterations used =            8  plain     mixing
     Exchange-correlation      = SLA PZ NOGX NOGC ( 1  1  0  0 0 0)

     celldm(1)=   9.860000  celldm(2)=   0.000000  celldm(3)=   0.000000
     celldm(4)=   0.000000  celldm(5)=   0.000000  celldm(6)=   0.000000

     crystal axes: (cart. coord. in units of alat)
               a(1) = (   0.500000   0.500000   0.500000 )  
               a(2) = (  -0.500000   0.500000   0.500000 )  
               a(3) = (  -0.500000  -0.500000   0.500000 )  

     reciprocal axes: (cart. coord. in units 2 pi/alat)
               b(1) = (  1.000000  0.000000  1.000000 )  
               b(2) = ( -1.000000  1.000000  0.000000 )  
               b(3) = (  0.000000 -1.000000  1.000000 )  


     PseudoPot. # 1 for K  read from file:
     /home/lorenzo/pseudos/K/K.pz-spn-kjpaw_psl.1.0.0.UPF
     MD5 check sum: 59b94f4c1a6681f21e103574f2c5fc67
     Pseudo is Projector augmented-wave + core cor, Zval =  9.0
     Generated using "atomic" code by A. Dal Corso v.6.2.2
     Shape of augmentation charge: PSQ
     Using radial grid of 1165 points,  6 beta functions with: 
                l(1) =   0
                l(2) =   0
                l(3) =   1
                l(4) =   1
                l(5) =   2
                l(6) =   2
     Q(r) pseudized with 0 coefficients 


     atomic species   valence    mass     pseudopotential
        K              9.00    39.09830     K ( 1.00)

     48 Sym. Ops., with inversion, found



   Cartesian axes

     site n.     atom                  positions (alat units)
         1           K   tau(   1) = (   0.0000000   0.0000000   0.0000000  )

     number of k points=    20  gaussian smearing, width (Ry)=  0.0100
                       cart. coord. in units 2pi/alat
        k(    1) = (   0.0000000   0.0000000   0.0000000), wk =   0.0058309
        k(    2) = (   0.0000000  -0.1428571   0.1428571), wk =   0.0699708
        k(    3) = (   0.0000000  -0.2857143   0.2857143), wk =   0.0699708
        k(    4) = (   0.0000000  -0.4285714   0.4285714), wk =   0.0699708
        k(    5) = (  -0.1428571  -0.1428571   0.2857143), wk =   0.1399417
        k(    6) = (  -0.1428571  -0.2857143   0.4285714), wk =   0.2798834
        k(    7) = (  -0.1428571   0.5714286  -0.4285714), wk =   0.1399417
        k(    8) = (  -0.2857143   0.7142857  -0.4285714), wk =   0.1399417
        k(    9) = (   0.0000000   0.0000000   0.2857143), wk =   0.0349854
        k(   10) = (   0.0000000  -0.1428571   0.4285714), wk =   0.1399417
        k(   11) = (   0.0000000  -0.2857143   0.5714286), wk =   0.1399417
        k(   12) = (  -0.1428571  -0.1428571   0.5714286), wk =   0.1399417
        k(   13) = (  -0.1428571   0.7142857  -0.2857143), wk =   0.1399417
        k(   14) = (  -0.2857143   0.2857143   0.2857143), wk =   0.0466472
        k(   15) = (   0.5714286  -0.5714286   0.2857143), wk =   0.1399417
        k(   16) = (   0.4285714  -0.5714286   0.4285714), wk =   0.0466472
        k(   17) = (   0.0000000   0.0000000   0.5714286), wk =   0.0349854
        k(   18) = (   0.0000000  -0.1428571   0.7142857), wk =   0.1399417
        k(   19) = (  -0.1428571   0.8571429  -0.1428571), wk =   0.0466472
        k(   20) = (   0.0000000   0.0000000   0.8571429), wk =   0.0349854

     Dense  grid:    13451 G-vectors     FFT dimensions: (  36,  36,  36)

     Estimated max dynamical RAM per process >      12.63 MB

     Estimated total dynamical RAM >      63.16 MB

     Check: negative/imaginary core charge=   -0.000007    0.000000

     Initial potential from superposition of free atoms

     starting charge    8.98437, renormalised to    9.00000
     Starting wfcs are    8 randomized atomic wfcs +    1 random wfcs
     Checking if some PAW data can be deallocated... 

     total cpu time spent up to now is        1.0 secs

     Self-consistent Calculation

     iteration #  1     ecut=    35.00 Ry     beta= 0.70
     Davidson diagonalization with overlap
     ethr =  1.00E-02,  avg # of iterations =  6.8

     Threshold (ethr) on eigenvalues was too large:
     Diagonalizing with lowered threshold

     Davidson diagonalization with overlap
     ethr =  1.23E-05,  avg # of iterations =  6.8

     total cpu time spent up to now is        2.1 secs

     total energy              =    -109.87000077 Ry
     Harris-Foulkes estimate   =    -109.87054646 Ry
     estimated scf accuracy    <       0.00111396 Ry

     iteration #  2     ecut=    35.00 Ry     beta= 0.70
     Davidson diagonalization with overlap
     ethr =  1.24E-05,  avg # of iterations =  2.5

     total cpu time spent up to now is        2.5 secs

     total energy              =    -109.87018050 Ry
     Harris-Foulkes estimate   =    -109.87020455 Ry
     estimated scf accuracy    <       0.00008648 Ry

     iteration #  3     ecut=    35.00 Ry     beta= 0.70
     Davidson diagonalization with overlap
     ethr =  9.61E-07,  avg # of iterations =  2.0

     total cpu time spent up to now is        2.9 secs

     total energy              =    -109.87019166 Ry
     Harris-Foulkes estimate   =    -109.87019140 Ry
     estimated scf accuracy    <       0.00000590 Ry

     iteration #  4     ecut=    35.00 Ry     beta= 0.70
     Davidson diagonalization with overlap
     ethr =  6.56E-08,  avg # of iterations =  1.4

     total cpu time spent up to now is        3.2 secs

     total energy              =    -109.87019236 Ry
     Harris-Foulkes estimate   =    -109.87019235 Ry
     estimated scf accuracy    <       0.00000004 Ry

     iteration #  5     ecut=    35.00 Ry     beta= 0.70
     Davidson diagonalization with overlap
     ethr =  4.83E-10,  avg # of iterations =  2.5

     total cpu time spent up to now is        3.6 secs

     End of self-consistent calculation

          k = 0.0000 0.0000 0.0000 (  1721 PWs)   bands (ev):

   -30.0946 -13.7344 -13.7344 -13.7344  -0.4764   5.9307   5.9307   5.9307
     6.8760

          k = 0.0000-0.1429 0.1429 (  1661 PWs)   bands (ev):

   -30.0934 -13.7497 -13.7395 -13.7344  -0.2156   5.5224   5.6516   6.1401
     6.6357

          k = 0.0000-0.2857 0.2857 (  1665 PWs)   bands (ev):

   -30.0912 -13.7836 -13.7508 -13.7344   0.5295   4.3405   5.1747   6.7099
     6.7473

          k = 0.0000-0.4286 0.4286 (  1671 PWs)   bands (ev):

   -30.0895 -13.8103 -13.7599 -13.7343   1.6419   3.0146   4.8762   6.5883
     7.2106

          k =-0.1429-0.1429 0.2857 (  1667 PWs)   bands (ev):

   -30.0918 -13.7729 -13.7454 -13.7380   0.2881   4.8552   5.1299   6.4811
     6.4936

          k =-0.1429-0.2857 0.4286 (  1679 PWs)   bands (ev):

   -30.0899 -13.7983 -13.7591 -13.7393   1.2257   3.7522   4.6641   6.4868
     6.9135

          k =-0.1429 0.5714-0.4286 (  1669 PWs)   bands (ev):

   -30.0890 -13.8090 -13.7660 -13.7395   2.3452   2.5751   4.5041   6.2777
     7.3944

          k =-0.2857 0.7143-0.4286 (  1675 PWs)   bands (ev):

   -30.0888 -13.7983 -13.7770 -13.7438   2.2794   3.3127   3.7298   6.3052
     6.8401

          k = 0.0000 0.0000 0.2857 (  1669 PWs)   bands (ev):

   -30.0925 -13.7530 -13.7447 -13.7447   0.0397   5.5441   5.5441   5.7339
     6.2301

          k = 0.0000-0.1429 0.4286 (  1677 PWs)   bands (ev):

   -30.0904 -13.7817 -13.7564 -13.7462   0.7695   4.4297   5.2022   5.7499
     6.7614

          k = 0.0000-0.2857 0.5714 (  1681 PWs)   bands (ev):

   -30.0887 -13.8064 -13.7657 -13.7455   1.8635   3.1606   4.9535   5.6633
     7.0192

          k =-0.1429-0.1429 0.5714 (  1681 PWs)   bands (ev):

   -30.0886 -13.7961 -13.7712 -13.7515   1.6637   3.8108   4.5316   5.8839
     6.5737

          k =-0.1429 0.7143-0.2857 (  1677 PWs)   bands (ev):

   -30.0878 -13.8018 -13.7806 -13.7517   2.7956   2.8295   4.1264   5.9606
     6.7023

          k =-0.2857 0.2857 0.2857 (  1652 PWs)   bands (ev):

   -30.0903 -13.7931 -13.7472 -13.7472   1.0037   4.3134   4.3134   6.4688
     7.0967

          k = 0.5714-0.5714 0.2857 (  1672 PWs)   bands (ev):

   -30.0892 -13.7989 -13.7649 -13.7486   2.0821   3.2884   4.0417   5.8026
     7.2499

          k = 0.4286-0.5714 0.4286 (  1667 PWs)   bands (ev):

   -30.0889 -13.7815 -13.7815 -13.7562   3.0628   3.0628   3.3597   5.1836
     7.3741

          k = 0.0000 0.0000 0.5714 (  1681 PWs)   bands (ev):

   -30.0885 -13.7815 -13.7687 -13.7687   1.4486   4.2923   5.1894   5.1894
     6.3016

          k = 0.0000-0.1429 0.7143 (  1678 PWs)   bands (ev):

   -30.0870 -13.7976 -13.7786 -13.7701   2.4387   3.5011   4.9082   5.1217
     6.1359

          k =-0.1429 0.8571-0.1429 (  1686 PWs)   bands (ev):

   -30.0863 -13.7929 -13.7929 -13.7727   3.2019   3.2019   4.2463   5.7763
     5.7763

          k = 0.0000 0.0000 0.8571 (  1674 PWs)   bands (ev):

   -30.0856 -13.7914 -13.7889 -13.7889   3.1100   3.5022   5.2239   5.2452
     5.2452

     the Fermi energy is     1.7339 ev

!    total energy              =    -109.87019238 Ry
     Harris-Foulkes estimate   =    -109.87019238 Ry
     estimated scf accuracy    <          3.4E-09 Ry

     total all-electron energy =     -1201.195192 Ry

     The total energy is the sum of the following terms:

     one-electron contribution =     -35.36367509 Ry
     hartree contribution      =      18.82417228 Ry
     xc contribution           =     -11.01721282 Ry
     ewald contribution        =     -29.89633975 Ry
     one-center paw contrib.   =     -52.41654831 Ry
     smearing contrib. (-TS)   =      -0.00058869 Ry

     convergence has been achieved in   5 iterations

     Forces acting on atoms (cartesian axes, Ry/au):

     atom    1 type  1   force =     0.00000000    0.00000000    0.00000000

     Total force =     0.000000     Total SCF correction =     0.000000


     Computing stress (Cartesian axis) and pressure

          total   stress  (Ry/bohr**3)                   (kbar)     P=   -4.36
  -0.00002964  -0.00000000   0.00000000         -4.36     -0.00      0.00
  -0.00000000  -0.00002964  -0.00000000         -0.00     -4.36     -0.00
   0.00000000  -0.00000000  -0.00002964          0.00     -0.00     -4.36


     Writing output data file K.save/

     init_run     :      0.31s CPU      0.32s WALL (       1 calls)
     electrons    :      2.42s CPU      2.58s WALL (       1 calls)
     forces       :      0.05s CPU      0.05s WALL (       1 calls)
     stress       :      0.18s CPU      0.19s WALL (       1 calls)

     Called by init_run:
     wfcinit      :      0.10s CPU      0.10s WALL (       1 calls)
     potinit      :      0.05s CPU      0.05s WALL (       1 calls)
     hinit0       :      0.14s CPU      0.14s WALL (       1 calls)

     Called by electrons:
     c_bands      :      1.79s CPU      1.93s WALL (       6 calls)
     sum_band     :      0.35s CPU      0.37s WALL (       6 calls)
     v_of_rho     :      0.01s CPU      0.01s WALL (       6 calls)
     newd         :      0.08s CPU      0.09s WALL (       6 calls)
     PAW_pot      :      0.24s CPU      0.24s WALL (       6 calls)
     mix_rho      :      0.00s CPU      0.00s WALL (       6 calls)

     Called by c_bands:
     init_us_2    :      0.06s CPU      0.06s WALL (     300 calls)
     cegterg      :      1.72s CPU      1.85s WALL (     120 calls)

     Called by sum_band:
     sum_band:bec :      0.00s CPU      0.00s WALL (     120 calls)
     addusdens    :      0.07s CPU      0.08s WALL (       6 calls)

     Called by *egterg:
     h_psi        :      1.43s CPU      1.54s WALL (     578 calls)
     s_psi        :      0.04s CPU      0.04s WALL (     578 calls)
     g_psi        :      0.00s CPU      0.00s WALL (     438 calls)
     cdiaghg      :      0.12s CPU      0.12s WALL (     538 calls)

     Called by h_psi:
     h_psi:pot    :      1.42s CPU      1.53s WALL (     578 calls)
     h_psi:calbec :      0.07s CPU      0.08s WALL (     578 calls)
     vloc_psi     :      1.30s CPU      1.40s WALL (     578 calls)
     add_vuspsi   :      0.04s CPU      0.05s WALL (     578 calls)

     General routines
     calbec       :      0.12s CPU      0.12s WALL (     798 calls)
     fft          :      0.02s CPU      0.02s WALL (      34 calls)
     ffts         :      0.00s CPU      0.00s WALL (       6 calls)
     fftw         :      1.41s CPU      1.52s WALL (    7614 calls)

     Parallel routines
     fft_scatt_xy :      0.12s CPU      0.12s WALL (    7654 calls)
     fft_scatt_yz :      0.35s CPU      0.38s WALL (    7654 calls)

     PWSCF        :     3.71s CPU         3.94s WALL


   This run was terminated on:   0:23:59   8Apr2024            

=------------------------------------------------------------------------------=
   JOB DONE.
=------------------------------------------------------------------------------=
