
     Program PWSCF v.6.3MaX starts on  8Apr2024 at  1:30:44 

     This program is part of the open-source Quantum ESPRESSO suite
     for quantum simulation of materials; please cite
         "P. Giannozzi et al., J. Phys.:Condens. Matter 21 395502 (2009);
         "P. Giannozzi et al., J. Phys.:Condens. Matter 29 465901 (2017);
          URL http://www.quantum-espresso.org", 
     in publications or presentations arising from this work. More details at
     http://www.quantum-espresso.org/quote

     Parallel version (MPI), running on     5 processors

     MPI processes distributed on     1 nodes
     R & G space division:  proc/nbgrp/npool/nimage =       5
     Waiting for input...
     Reading input from standard input

     Current dimensions of program PWSCF are:
     Max number of different atomic species (ntypx) = 10
     Max number of k-points (npk) =  40000
     Max angular momentum in pseudopotentials (lmaxx) =  3
               file K.pbe-spn-rrkjus_psl.1.0.0.UPF: wavefunction(s)  3S renormalized

     Subspace diagonalization in iterative solution of the eigenvalue problem:
     a serial algorithm will be used


     Parallelization info
     --------------------
     sticks:   dense  smooth     PW     G-vecs:    dense   smooth      PW
     Min         393     393    111                11072    11072    1677
     Max         394     394    112                11073    11073    1679
     Sum        1967    1967    557                55361    55361    8391



     bravais-lattice index     =            3
     lattice parameter (alat)  =       9.8600  a.u.
     unit-cell volume          =     479.2926 (a.u.)^3
     number of atoms/cell      =            1
     number of atomic types    =            1
     number of electrons       =         9.00
     number of Kohn-Sham states=            9
     kinetic-energy cutoff     =      90.0000  Ry
     charge density cutoff     =     360.0000  Ry
     convergence threshold     =      1.0E-08
     mixing beta               =       0.7000
     number of iterations used =            8  plain     mixing
     Exchange-correlation      = PBE ( 1  4  3  4 0 0)

     celldm(1)=   9.860000  celldm(2)=   0.000000  celldm(3)=   0.000000
     celldm(4)=   0.000000  celldm(5)=   0.000000  celldm(6)=   0.000000

     crystal axes: (cart. coord. in units of alat)
               a(1) = (   0.500000   0.500000   0.500000 )  
               a(2) = (  -0.500000   0.500000   0.500000 )  
               a(3) = (  -0.500000  -0.500000   0.500000 )  

     reciprocal axes: (cart. coord. in units 2 pi/alat)
               b(1) = (  1.000000  0.000000  1.000000 )  
               b(2) = ( -1.000000  1.000000  0.000000 )  
               b(3) = (  0.000000 -1.000000  1.000000 )  


     PseudoPot. # 1 for K  read from file:
     /home/lorenzo/pseudos/K/K.pbe-spn-rrkjus_psl.1.0.0.UPF
     MD5 check sum: 897b700350bb708b0563e904352feb48
     Pseudo is Ultrasoft + core correction, Zval =  9.0
     Generated using "atomic" code by A. Dal Corso v.6.2.2
     Using radial grid of 1165 points,  6 beta functions with: 
                l(1) =   0
                l(2) =   0
                l(3) =   1
                l(4) =   1
                l(5) =   2
                l(6) =   2
     Q(r) pseudized with 0 coefficients 


     atomic species   valence    mass     pseudopotential
        K              9.00    39.09830     K ( 1.00)

     48 Sym. Ops., with inversion, found



   Cartesian axes

     site n.     atom                  positions (alat units)
         1           K   tau(   1) = (   0.0000000   0.0000000   0.0000000  )

     number of k points=    29  gaussian smearing, width (Ry)=  0.0100
                       cart. coord. in units 2pi/alat
        k(    1) = (   0.0000000   0.0000000   0.0000000), wk =   0.0039062
        k(    2) = (   0.0000000  -0.1250000   0.1250000), wk =   0.0468750
        k(    3) = (   0.0000000  -0.2500000   0.2500000), wk =   0.0468750
        k(    4) = (   0.0000000  -0.3750000   0.3750000), wk =   0.0468750
        k(    5) = (   0.0000000   0.5000000  -0.5000000), wk =   0.0234375
        k(    6) = (  -0.1250000  -0.1250000   0.2500000), wk =   0.0937500
        k(    7) = (  -0.1250000  -0.2500000   0.3750000), wk =   0.1875000
        k(    8) = (  -0.1250000   0.6250000  -0.5000000), wk =   0.1875000
        k(    9) = (  -0.2500000   0.7500000  -0.5000000), wk =   0.0937500
        k(   10) = (  -0.2500000   0.6250000  -0.3750000), wk =   0.0937500
        k(   11) = (   0.0000000   0.0000000   0.2500000), wk =   0.0234375
        k(   12) = (   0.0000000  -0.1250000   0.3750000), wk =   0.0937500
        k(   13) = (   0.0000000  -0.2500000   0.5000000), wk =   0.0937500
        k(   14) = (   0.0000000   0.6250000  -0.3750000), wk =   0.0468750
        k(   15) = (  -0.1250000  -0.1250000   0.5000000), wk =   0.0937500
        k(   16) = (  -0.1250000   0.7500000  -0.3750000), wk =   0.1875000
        k(   17) = (  -0.2500000   0.2500000   0.2500000), wk =   0.0312500
        k(   18) = (  -0.2500000   0.7500000  -0.2500000), wk =   0.0312500
        k(   19) = (   0.6250000  -0.6250000   0.2500000), wk =   0.0937500
        k(   20) = (   0.5000000  -0.5000000   0.2500000), wk =   0.0468750
        k(   21) = (   0.5000000  -0.6250000   0.3750000), wk =   0.0937500
        k(   22) = (   0.0000000   0.0000000   0.5000000), wk =   0.0234375
        k(   23) = (   0.0000000  -0.1250000   0.6250000), wk =   0.0937500
        k(   24) = (   0.0000000   0.7500000  -0.2500000), wk =   0.0468750
        k(   25) = (  -0.1250000   0.8750000  -0.2500000), wk =   0.0937500
        k(   26) = (   0.5000000  -0.5000000   0.5000000), wk =   0.0078125
        k(   27) = (   0.0000000   0.0000000   0.7500000), wk =   0.0234375
        k(   28) = (   0.0000000   0.8750000  -0.1250000), wk =   0.0468750
        k(   29) = (   0.0000000   0.0000000  -1.0000000), wk =   0.0039062

     Dense  grid:    55361 G-vectors     FFT dimensions: (  54,  54,  54)

     Estimated max dynamical RAM per process >      49.23 MB

     Estimated total dynamical RAM >     246.15 MB

     Check: negative/imaginary core charge=   -0.000001    0.000000

     Initial potential from superposition of free atoms

     starting charge    8.98117, renormalised to    9.00000
     Starting wfcs are    8 randomized atomic wfcs +    1 random wfcs

     total cpu time spent up to now is        1.9 secs

     Self-consistent Calculation

     iteration #  1     ecut=    90.00 Ry     beta= 0.70
     Davidson diagonalization with overlap
     ethr =  1.00E-02,  avg # of iterations =  6.7

     Threshold (ethr) on eigenvalues was too large:
     Diagonalizing with lowered threshold

     Davidson diagonalization with overlap
     ethr =  1.43E-05,  avg # of iterations =  6.1

     total cpu time spent up to now is        7.8 secs

     total energy              =     -58.77356991 Ry
     Harris-Foulkes estimate   =     -58.77410079 Ry
     estimated scf accuracy    <       0.00127159 Ry

     iteration #  2     ecut=    90.00 Ry     beta= 0.70
     Davidson diagonalization with overlap
     ethr =  1.41E-05,  avg # of iterations =  2.3

     total cpu time spent up to now is        9.7 secs

     total energy              =     -58.77380411 Ry
     Harris-Foulkes estimate   =     -58.77380683 Ry
     estimated scf accuracy    <       0.00010171 Ry

     iteration #  3     ecut=    90.00 Ry     beta= 0.70
     Davidson diagonalization with overlap
     ethr =  1.13E-06,  avg # of iterations =  1.9

     total cpu time spent up to now is       11.3 secs

     total energy              =     -58.77381421 Ry
     Harris-Foulkes estimate   =     -58.77381163 Ry
     estimated scf accuracy    <       0.00000683 Ry

     iteration #  4     ecut=    90.00 Ry     beta= 0.70
     Davidson diagonalization with overlap
     ethr =  7.59E-08,  avg # of iterations =  1.6

     total cpu time spent up to now is       13.0 secs

     total energy              =     -58.77381478 Ry
     Harris-Foulkes estimate   =     -58.77381478 Ry
     estimated scf accuracy    <       0.00000005 Ry

     iteration #  5     ecut=    90.00 Ry     beta= 0.70
     Davidson diagonalization with overlap
     ethr =  5.54E-10,  avg # of iterations =  2.5

     total cpu time spent up to now is       14.8 secs

     End of self-consistent calculation

          k = 0.0000 0.0000 0.0000 (  6819 PWs)   bands (ev):

   -30.1653 -13.6136 -13.6136 -13.6136  -0.2615   6.2633   6.2633   6.2634
     7.1820

          k = 0.0000-0.1250 0.1250 (  6887 PWs)   bands (ev):

   -30.1646 -13.6249 -13.6173 -13.6135  -0.0626   5.9302   6.0261   6.4227
     6.9501

          k = 0.0000-0.2500 0.2500 (  6909 PWs)   bands (ev):

   -30.1628 -13.6521 -13.6264 -13.6135   0.5133   4.9036   5.5838   6.8897
     7.0050

          k = 0.0000-0.3750 0.3750 (  6921 PWs)   bands (ev):

   -30.1611 -13.6790 -13.6355 -13.6135   1.4031   3.7222   5.2429   6.9967
     7.3447

          k = 0.0000 0.5000-0.5000 (  6926 PWs)   bands (ev):

   -30.1604 -13.6900 -13.6392 -13.6135   2.3891   2.6486   5.1202   6.8716
     7.9903

          k =-0.1250-0.1250 0.2500 (  6891 PWs)   bands (ev):

   -30.1633 -13.6436 -13.6216 -13.6163   0.3252   5.3422   5.5699   6.6994
     6.7923

          k =-0.1250-0.2500 0.3750 (  6912 PWs)   bands (ev):

   -30.1616 -13.6677 -13.6325 -13.6173   1.0605   4.3478   5.1166   6.8331
     7.1381

          k =-0.1250 0.6250-0.5000 (  6905 PWs)   bands (ev):

   -30.1604 -13.6839 -13.6413 -13.6175   2.0591   3.2155   4.8788   6.6766
     7.5301

          k =-0.2500 0.7500-0.5000 (  6918 PWs)   bands (ev):

   -30.1604 -13.6759 -13.6455 -13.6214   1.9109   3.8319   4.3657   6.7973
     7.0265

          k =-0.2500 0.6250-0.3750 (  6922 PWs)   bands (ev):

   -30.1599 -13.6756 -13.6552 -13.6224   2.9299   2.9597   4.0524   6.5854
     7.3262

          k = 0.0000 0.0000 0.2500 (  6899 PWs)   bands (ev):

   -30.1639 -13.6277 -13.6212 -13.6212   0.1332   5.9166   5.9166   6.1851
     6.4947

          k = 0.0000-0.1250 0.3750 (  6881 PWs)   bands (ev):

   -30.1622 -13.6513 -13.6305 -13.6225   0.6998   4.9633   5.5808   6.1266
     6.9074

          k = 0.0000-0.2500 0.5000 (  6920 PWs)   bands (ev):

   -30.1605 -13.6765 -13.6397 -13.6220   1.5754   3.8228   5.2871   6.1326
     7.4211

          k = 0.0000 0.6250-0.3750 (  6914 PWs)   bands (ev):

   -30.1599 -13.6868 -13.6435 -13.6217   2.5893   2.7352   5.1781   6.0341
     7.4620

          k =-0.1250-0.1250 0.5000 (  6910 PWs)   bands (ev):

   -30.1606 -13.6672 -13.6417 -13.6273   1.4093   4.3383   5.0554   6.1485
     7.0962

          k =-0.1250 0.7500-0.3750 (  6923 PWs)   bands (ev):

   -30.1595 -13.6789 -13.6520 -13.6277   2.3711   3.4343   4.6246   6.2157
     7.0683

          k =-0.2500 0.2500 0.2500 (  6891 PWs)   bands (ev):

   -30.1621 -13.6636 -13.6227 -13.6227   0.8831   4.8169   4.8169   6.8836
     7.3207

          k =-0.2500 0.7500-0.2500 (  6905 PWs)   bands (ev):

   -30.1590 -13.6692 -13.6692 -13.6288   3.2021   3.2021   3.8059   6.7886
     7.3374

          k = 0.6250-0.6250 0.2500 (  6919 PWs)   bands (ev):

   -30.1608 -13.6756 -13.6369 -13.6238   1.7491   3.8780   4.4951   6.5321
     7.4840

          k = 0.5000-0.5000 0.2500 (  6922 PWs)   bands (ev):

   -30.1603 -13.6783 -13.6450 -13.6242   2.7794   2.8387   4.3876   6.2317
     7.6203

          k = 0.5000-0.6250 0.3750 (  6915 PWs)   bands (ev):

   -30.1602 -13.6693 -13.6492 -13.6310   2.6733   3.5271   3.8484   5.8054
     7.6177

          k = 0.0000 0.0000 0.5000 (  6927 PWs)   bands (ev):

   -30.1607 -13.6532 -13.6402 -13.6402   1.2370   4.8182   5.5065   5.5065
     7.0906

          k = 0.0000-0.1250 0.6250 (  6910 PWs)   bands (ev):

   -30.1591 -13.6705 -13.6499 -13.6421   2.0588   4.0230   5.3775   5.4025
     6.6114

          k = 0.0000 0.7500-0.2500 (  6928 PWs)   bands (ev):

   -30.1585 -13.6793 -13.6539 -13.6413   2.9895   3.1112   5.2004   5.3176
     6.7716

          k =-0.1250 0.8750-0.2500 (  6929 PWs)   bands (ev):

   -30.1581 -13.6732 -13.6627 -13.6450   2.8931   3.6190   4.5732   5.9160
     6.3355

          k = 0.5000-0.5000 0.5000 (  6888 PWs)   bands (ev):

   -30.1601 -13.6508 -13.6508 -13.6508   3.4270   3.4270   3.4270   5.1271
     7.7843

          k = 0.0000 0.0000 0.7500 (  6915 PWs)   bands (ev):

   -30.1577 -13.6665 -13.6601 -13.6601   2.7502   3.9105   5.4391   5.4391
     5.7056

          k = 0.0000 0.8750-0.1250 (  6896 PWs)   bands (ev):

   -30.1572 -13.6717 -13.6643 -13.6606   3.3626   3.5525   5.0975   5.4552
     5.9364

          k = 0.0000 0.0000-1.0000 (  6986 PWs)   bands (ev):

   -30.1566 -13.6686 -13.6686 -13.6686   3.5997   5.5109   5.5109   5.5109
     7.6775

     the Fermi energy is     1.9733 ev

!    total energy              =     -58.77381480 Ry
     Harris-Foulkes estimate   =     -58.77381480 Ry
     estimated scf accuracy    <          1.6E-09 Ry

     The total energy is the sum of the following terms:

     one-electron contribution =     -36.58750819 Ry
     hartree contribution      =      18.88073691 Ry
     xc contribution           =     -11.16993821 Ry
     ewald contribution        =     -29.89633970 Ry
     smearing contrib. (-TS)   =      -0.00076561 Ry

     convergence has been achieved in   5 iterations

     Forces acting on atoms (cartesian axes, Ry/au):

     atom    1 type  1   force =     0.00000000    0.00000000    0.00000000

     Total force =     0.000000     Total SCF correction =     0.000000


     Computing stress (Cartesian axis) and pressure

          total   stress  (Ry/bohr**3)                   (kbar)     P=    1.53
   0.00001038  -0.00000000   0.00000000          1.53     -0.00      0.00
  -0.00000000   0.00001038  -0.00000000         -0.00      1.53     -0.00
   0.00000000  -0.00000000   0.00001038          0.00     -0.00      1.53


     Writing output data file K.save/

     init_run     :      1.16s CPU      1.21s WALL (       1 calls)
     electrons    :     12.42s CPU     12.84s WALL (       1 calls)
     forces       :      0.22s CPU      0.22s WALL (       1 calls)
     stress       :      0.86s CPU      0.87s WALL (       1 calls)

     Called by init_run:
     wfcinit      :      0.62s CPU      0.65s WALL (       1 calls)
     potinit      :      0.10s CPU      0.11s WALL (       1 calls)
     hinit0       :      0.29s CPU      0.30s WALL (       1 calls)

     Called by electrons:
     c_bands      :      9.99s CPU     10.34s WALL (       6 calls)
     sum_band     :      1.98s CPU      2.04s WALL (       6 calls)
     v_of_rho     :      0.23s CPU      0.25s WALL (       6 calls)
     newd         :      0.31s CPU      0.33s WALL (       6 calls)
     mix_rho      :      0.02s CPU      0.02s WALL (       6 calls)

     Called by c_bands:
     init_us_2    :      0.37s CPU      0.37s WALL (     435 calls)
     cegterg      :      9.55s CPU      9.90s WALL (     174 calls)

     Called by sum_band:
     sum_band:bec :      0.00s CPU      0.00s WALL (     174 calls)
     addusdens    :      0.31s CPU      0.32s WALL (       6 calls)

     Called by *egterg:
     h_psi        :      8.22s CPU      8.57s WALL (     814 calls)
     s_psi        :      0.23s CPU      0.24s WALL (     814 calls)
     g_psi        :      0.02s CPU      0.02s WALL (     611 calls)
     cdiaghg      :      0.20s CPU      0.20s WALL (     756 calls)

     Called by h_psi:
     h_psi:pot    :      8.17s CPU      8.52s WALL (     814 calls)
     h_psi:calbec :      0.46s CPU      0.47s WALL (     814 calls)
     vloc_psi     :      7.44s CPU      7.76s WALL (     814 calls)
     add_vuspsi   :      0.27s CPU      0.27s WALL (     814 calls)

     General routines
     calbec       :      0.73s CPU      0.75s WALL (    1133 calls)
     fft          :      0.17s CPU      0.18s WALL (      93 calls)
     ffts         :      0.01s CPU      0.01s WALL (       6 calls)
     fftw         :      7.94s CPU      8.28s WALL (   10656 calls)

     Parallel routines
     fft_scatt_xy :      0.65s CPU      0.68s WALL (   10755 calls)
     fft_scatt_yz :      2.00s CPU      2.09s WALL (   10755 calls)

     PWSCF        :    15.41s CPU        15.99s WALL


   This run was terminated on:   1:31: 0   8Apr2024            

=------------------------------------------------------------------------------=
   JOB DONE.
=------------------------------------------------------------------------------=
