
     Program PWSCF v.6.3MaX starts on  8Apr2024 at  0:30:13 

     This program is part of the open-source Quantum ESPRESSO suite
     for quantum simulation of materials; please cite
         "P. Giannozzi et al., J. Phys.:Condens. Matter 21 395502 (2009);
         "P. Giannozzi et al., J. Phys.:Condens. Matter 29 465901 (2017);
          URL http://www.quantum-espresso.org", 
     in publications or presentations arising from this work. More details at
     http://www.quantum-espresso.org/quote

     Parallel version (MPI), running on     5 processors

     MPI processes distributed on     1 nodes
     R & G space division:  proc/nbgrp/npool/nimage =       5
     Waiting for input...
     Reading input from standard input

     Current dimensions of program PWSCF are:
     Max number of different atomic species (ntypx) = 10
     Max number of k-points (npk) =  40000
     Max angular momentum in pseudopotentials (lmaxx) =  3
               file K.pz-spn-rrkjus_psl.1.0.0.UPF: wavefunction(s)  3S renormalized

     Subspace diagonalization in iterative solution of the eigenvalue problem:
     a serial algorithm will be used


     Parallelization info
     --------------------
     sticks:   dense  smooth     PW     G-vecs:    dense   smooth      PW
     Min         196     196     56                 3895     3895     611
     Max         197     197     57                 3897     3897     611
     Sum         981     981    283                19477    19477    3055



     bravais-lattice index     =            3
     lattice parameter (alat)  =       9.8600  a.u.
     unit-cell volume          =     479.2926 (a.u.)^3
     number of atoms/cell      =            1
     number of atomic types    =            1
     number of electrons       =         9.00
     number of Kohn-Sham states=            9
     kinetic-energy cutoff     =      45.0000  Ry
     charge density cutoff     =     180.0000  Ry
     convergence threshold     =      1.0E-08
     mixing beta               =       0.7000
     number of iterations used =            8  plain     mixing
     Exchange-correlation      = LDA ( 1  1  0  0 0 0)

     celldm(1)=   9.860000  celldm(2)=   0.000000  celldm(3)=   0.000000
     celldm(4)=   0.000000  celldm(5)=   0.000000  celldm(6)=   0.000000

     crystal axes: (cart. coord. in units of alat)
               a(1) = (   0.500000   0.500000   0.500000 )  
               a(2) = (  -0.500000   0.500000   0.500000 )  
               a(3) = (  -0.500000  -0.500000   0.500000 )  

     reciprocal axes: (cart. coord. in units 2 pi/alat)
               b(1) = (  1.000000  0.000000  1.000000 )  
               b(2) = ( -1.000000  1.000000  0.000000 )  
               b(3) = (  0.000000 -1.000000  1.000000 )  


     PseudoPot. # 1 for K  read from file:
     /home/lorenzo/pseudos/K/K.pz-spn-rrkjus_psl.1.0.0.UPF
     MD5 check sum: af434a66a3b91719abff201b8f79bb09
     Pseudo is Ultrasoft + core correction, Zval =  9.0
     Generated using "atomic" code by A. Dal Corso v.6.2.2
     Using radial grid of 1165 points,  6 beta functions with: 
                l(1) =   0
                l(2) =   0
                l(3) =   1
                l(4) =   1
                l(5) =   2
                l(6) =   2
     Q(r) pseudized with 0 coefficients 


     atomic species   valence    mass     pseudopotential
        K              9.00    39.09830     K ( 1.00)

     48 Sym. Ops., with inversion, found



   Cartesian axes

     site n.     atom                  positions (alat units)
         1           K   tau(   1) = (   0.0000000   0.0000000   0.0000000  )

     number of k points=     4  gaussian smearing, width (Ry)=  0.0100
                       cart. coord. in units 2pi/alat
        k(    1) = (   0.0000000   0.0000000   0.0000000), wk =   0.0740741
        k(    2) = (   0.0000000  -0.3333333   0.3333333), wk =   0.8888889
        k(    3) = (  -0.3333333   0.6666667  -0.3333333), wk =   0.5925926
        k(    4) = (   0.0000000   0.0000000   0.6666667), wk =   0.4444444

     Dense  grid:    19477 G-vectors     FFT dimensions: (  40,  40,  40)

     Estimated max dynamical RAM per process >      16.61 MB

     Estimated total dynamical RAM >      83.05 MB

     Check: negative/imaginary core charge=   -0.000011    0.000000

     Initial potential from superposition of free atoms

     starting charge    8.98437, renormalised to    9.00000
     Starting wfcs are    8 randomized atomic wfcs +    1 random wfcs

     total cpu time spent up to now is        0.9 secs

     Self-consistent Calculation

     iteration #  1     ecut=    45.00 Ry     beta= 0.70
     Davidson diagonalization with overlap
     ethr =  1.00E-02,  avg # of iterations =  6.0

     Threshold (ethr) on eigenvalues was too large:
     Diagonalizing with lowered threshold

     Davidson diagonalization with overlap
     ethr =  1.25E-05,  avg # of iterations =  9.0

     total cpu time spent up to now is        1.3 secs

     total energy              =     -58.74905726 Ry
     Harris-Foulkes estimate   =     -58.74965043 Ry
     estimated scf accuracy    <       0.00114262 Ry

     iteration #  2     ecut=    45.00 Ry     beta= 0.70
     Davidson diagonalization with overlap
     ethr =  1.27E-05,  avg # of iterations =  2.0

     total cpu time spent up to now is        1.4 secs

     total energy              =     -58.74926032 Ry
     Harris-Foulkes estimate   =     -58.74927981 Ry
     estimated scf accuracy    <       0.00008952 Ry

     iteration #  3     ecut=    45.00 Ry     beta= 0.70
     Davidson diagonalization with overlap
     ethr =  9.95E-07,  avg # of iterations =  2.0

     total cpu time spent up to now is        1.6 secs

     total energy              =     -58.74926929 Ry
     Harris-Foulkes estimate   =     -58.74926867 Ry
     estimated scf accuracy    <       0.00000563 Ry

     iteration #  4     ecut=    45.00 Ry     beta= 0.70
     Davidson diagonalization with overlap
     ethr =  6.26E-08,  avg # of iterations =  1.2

     total cpu time spent up to now is        1.7 secs

     total energy              =     -58.74926972 Ry
     Harris-Foulkes estimate   =     -58.74926971 Ry
     estimated scf accuracy    <       0.00000003 Ry

     iteration #  5     ecut=    45.00 Ry     beta= 0.70
     Davidson diagonalization with overlap
     ethr =  3.79E-10,  avg # of iterations =  2.8

     total cpu time spent up to now is        1.8 secs

     End of self-consistent calculation

          k = 0.0000 0.0000 0.0000 (  2491 PWs)   bands (ev):

   -30.1007 -13.7383 -13.7383 -13.7383  -0.4765   5.9284   5.9284   5.9284
     6.8750

          k = 0.0000-0.3333 0.3333 (  2431 PWs)   bands (ev):

   -30.0967 -13.7982 -13.7583 -13.7380   0.8682   3.9021   5.0442   6.7050
     6.9676

          k =-0.3333 0.6667-0.3333 (  2457 PWs)   bands (ev):

   -30.0948 -13.7931 -13.7931 -13.7482   2.9763   2.9763   3.3016   6.2463
     7.0170

          k = 0.0000 0.0000 0.6667 (  2442 PWs)   bands (ev):

   -30.0935 -13.7907 -13.7806 -13.7806   2.0411   3.9452   5.1731   5.1731
     5.7567

     the Fermi energy is     1.9080 ev

!    total energy              =     -58.74926973 Ry
     Harris-Foulkes estimate   =     -58.74926973 Ry
     estimated scf accuracy    <          1.6E-09 Ry

     The total energy is the sum of the following terms:

     one-electron contribution =     -36.65881858 Ry
     hartree contribution      =      18.82310605 Ry
     xc contribution           =     -11.01673563 Ry
     ewald contribution        =     -29.89633975 Ry
     smearing contrib. (-TS)   =      -0.00048182 Ry

     convergence has been achieved in   5 iterations

     Forces acting on atoms (cartesian axes, Ry/au):

     atom    1 type  1   force =     0.00000000    0.00000000    0.00000000

     Total force =     0.000000     Total SCF correction =     0.000000


     Computing stress (Cartesian axis) and pressure

          total   stress  (Ry/bohr**3)                   (kbar)     P=   -6.11
  -0.00004154   0.00000000  -0.00000000         -6.11      0.00     -0.00
   0.00000000  -0.00004154   0.00000000          0.00     -6.11      0.00
  -0.00000000   0.00000000  -0.00004154         -0.00      0.00     -6.11


     Writing output data file K.save/

     init_run     :      0.22s CPU      0.23s WALL (       1 calls)
     electrons    :      0.84s CPU      0.89s WALL (       1 calls)
     forces       :      0.06s CPU      0.06s WALL (       1 calls)
     stress       :      0.17s CPU      0.17s WALL (       1 calls)

     Called by init_run:
     wfcinit      :      0.03s CPU      0.03s WALL (       1 calls)
     potinit      :      0.01s CPU      0.01s WALL (       1 calls)
     hinit0       :      0.15s CPU      0.16s WALL (       1 calls)

     Called by electrons:
     c_bands      :      0.51s CPU      0.54s WALL (       6 calls)
     sum_band     :      0.20s CPU      0.21s WALL (       6 calls)
     v_of_rho     :      0.01s CPU      0.01s WALL (       6 calls)
     newd         :      0.13s CPU      0.14s WALL (       6 calls)
     mix_rho      :      0.01s CPU      0.01s WALL (       6 calls)

     Called by c_bands:
     init_us_2    :      0.02s CPU      0.02s WALL (      60 calls)
     cegterg      :      0.49s CPU      0.52s WALL (      24 calls)

     Called by sum_band:
     sum_band:bec :      0.00s CPU      0.00s WALL (      24 calls)
     addusdens    :      0.11s CPU      0.11s WALL (       6 calls)

     Called by *egterg:
     h_psi        :      0.38s CPU      0.41s WALL (     120 calls)
     s_psi        :      0.01s CPU      0.01s WALL (     120 calls)
     g_psi        :      0.00s CPU      0.00s WALL (      92 calls)
     cdiaghg      :      0.03s CPU      0.03s WALL (     112 calls)

     Called by h_psi:
     h_psi:pot    :      0.38s CPU      0.40s WALL (     120 calls)
     h_psi:calbec :      0.02s CPU      0.02s WALL (     120 calls)
     vloc_psi     :      0.34s CPU      0.37s WALL (     120 calls)
     add_vuspsi   :      0.01s CPU      0.01s WALL (     120 calls)

     General routines
     calbec       :      0.03s CPU      0.03s WALL (     164 calls)
     fft          :      0.02s CPU      0.02s WALL (      34 calls)
     ffts         :      0.00s CPU      0.00s WALL (       6 calls)
     fftw         :      0.37s CPU      0.39s WALL (    1526 calls)

     Parallel routines
     fft_scatt_xy :      0.03s CPU      0.03s WALL (    1566 calls)
     fft_scatt_yz :      0.10s CPU      0.11s WALL (    1566 calls)

     PWSCF        :     2.00s CPU         2.10s WALL


   This run was terminated on:   0:30:15   8Apr2024            

=------------------------------------------------------------------------------=
   JOB DONE.
=------------------------------------------------------------------------------=
