
     Program PWSCF v.6.3MaX starts on  8Apr2024 at  1:31: 1 

     This program is part of the open-source Quantum ESPRESSO suite
     for quantum simulation of materials; please cite
         "P. Giannozzi et al., J. Phys.:Condens. Matter 21 395502 (2009);
         "P. Giannozzi et al., J. Phys.:Condens. Matter 29 465901 (2017);
          URL http://www.quantum-espresso.org", 
     in publications or presentations arising from this work. More details at
     http://www.quantum-espresso.org/quote

     Parallel version (MPI), running on     5 processors

     MPI processes distributed on     1 nodes
     R & G space division:  proc/nbgrp/npool/nimage =       5
     Waiting for input...
     Reading input from standard input

     Current dimensions of program PWSCF are:
     Max number of different atomic species (ntypx) = 10
     Max number of k-points (npk) =  40000
     Max angular momentum in pseudopotentials (lmaxx) =  3
               file K.pz-spn-kjpaw_psl.1.0.0.UPF: wavefunction(s)  3S renormalized

     Subspace diagonalization in iterative solution of the eigenvalue problem:
     a serial algorithm will be used


     Parallelization info
     --------------------
     sticks:   dense  smooth     PW     G-vecs:    dense   smooth      PW
     Min         393     393    111                11072    11072    1677
     Max         394     394    112                11073    11073    1679
     Sum        1967    1967    557                55361    55361    8391



     bravais-lattice index     =            3
     lattice parameter (alat)  =       9.8600  a.u.
     unit-cell volume          =     479.2926 (a.u.)^3
     number of atoms/cell      =            1
     number of atomic types    =            1
     number of electrons       =         9.00
     number of Kohn-Sham states=            9
     kinetic-energy cutoff     =      90.0000  Ry
     charge density cutoff     =     360.0000  Ry
     convergence threshold     =      1.0E-08
     mixing beta               =       0.7000
     number of iterations used =            8  plain     mixing
     Exchange-correlation      = SLA PZ NOGX NOGC ( 1  1  0  0 0 0)

     celldm(1)=   9.860000  celldm(2)=   0.000000  celldm(3)=   0.000000
     celldm(4)=   0.000000  celldm(5)=   0.000000  celldm(6)=   0.000000

     crystal axes: (cart. coord. in units of alat)
               a(1) = (   0.500000   0.500000   0.500000 )  
               a(2) = (  -0.500000   0.500000   0.500000 )  
               a(3) = (  -0.500000  -0.500000   0.500000 )  

     reciprocal axes: (cart. coord. in units 2 pi/alat)
               b(1) = (  1.000000  0.000000  1.000000 )  
               b(2) = ( -1.000000  1.000000  0.000000 )  
               b(3) = (  0.000000 -1.000000  1.000000 )  


     PseudoPot. # 1 for K  read from file:
     /home/lorenzo/pseudos/K/K.pz-spn-kjpaw_psl.1.0.0.UPF
     MD5 check sum: 59b94f4c1a6681f21e103574f2c5fc67
     Pseudo is Projector augmented-wave + core cor, Zval =  9.0
     Generated using "atomic" code by A. Dal Corso v.6.2.2
     Shape of augmentation charge: PSQ
     Using radial grid of 1165 points,  6 beta functions with: 
                l(1) =   0
                l(2) =   0
                l(3) =   1
                l(4) =   1
                l(5) =   2
                l(6) =   2
     Q(r) pseudized with 0 coefficients 


     atomic species   valence    mass     pseudopotential
        K              9.00    39.09830     K ( 1.00)

     48 Sym. Ops., with inversion, found



   Cartesian axes

     site n.     atom                  positions (alat units)
         1           K   tau(   1) = (   0.0000000   0.0000000   0.0000000  )

     number of k points=    29  gaussian smearing, width (Ry)=  0.0100
                       cart. coord. in units 2pi/alat
        k(    1) = (   0.0000000   0.0000000   0.0000000), wk =   0.0039062
        k(    2) = (   0.0000000  -0.1250000   0.1250000), wk =   0.0468750
        k(    3) = (   0.0000000  -0.2500000   0.2500000), wk =   0.0468750
        k(    4) = (   0.0000000  -0.3750000   0.3750000), wk =   0.0468750
        k(    5) = (   0.0000000   0.5000000  -0.5000000), wk =   0.0234375
        k(    6) = (  -0.1250000  -0.1250000   0.2500000), wk =   0.0937500
        k(    7) = (  -0.1250000  -0.2500000   0.3750000), wk =   0.1875000
        k(    8) = (  -0.1250000   0.6250000  -0.5000000), wk =   0.1875000
        k(    9) = (  -0.2500000   0.7500000  -0.5000000), wk =   0.0937500
        k(   10) = (  -0.2500000   0.6250000  -0.3750000), wk =   0.0937500
        k(   11) = (   0.0000000   0.0000000   0.2500000), wk =   0.0234375
        k(   12) = (   0.0000000  -0.1250000   0.3750000), wk =   0.0937500
        k(   13) = (   0.0000000  -0.2500000   0.5000000), wk =   0.0937500
        k(   14) = (   0.0000000   0.6250000  -0.3750000), wk =   0.0468750
        k(   15) = (  -0.1250000  -0.1250000   0.5000000), wk =   0.0937500
        k(   16) = (  -0.1250000   0.7500000  -0.3750000), wk =   0.1875000
        k(   17) = (  -0.2500000   0.2500000   0.2500000), wk =   0.0312500
        k(   18) = (  -0.2500000   0.7500000  -0.2500000), wk =   0.0312500
        k(   19) = (   0.6250000  -0.6250000   0.2500000), wk =   0.0937500
        k(   20) = (   0.5000000  -0.5000000   0.2500000), wk =   0.0468750
        k(   21) = (   0.5000000  -0.6250000   0.3750000), wk =   0.0937500
        k(   22) = (   0.0000000   0.0000000   0.5000000), wk =   0.0234375
        k(   23) = (   0.0000000  -0.1250000   0.6250000), wk =   0.0937500
        k(   24) = (   0.0000000   0.7500000  -0.2500000), wk =   0.0468750
        k(   25) = (  -0.1250000   0.8750000  -0.2500000), wk =   0.0937500
        k(   26) = (   0.5000000  -0.5000000   0.5000000), wk =   0.0078125
        k(   27) = (   0.0000000   0.0000000   0.7500000), wk =   0.0234375
        k(   28) = (   0.0000000   0.8750000  -0.1250000), wk =   0.0468750
        k(   29) = (   0.0000000   0.0000000  -1.0000000), wk =   0.0039062

     Dense  grid:    55361 G-vectors     FFT dimensions: (  54,  54,  54)

     Estimated max dynamical RAM per process >      49.23 MB

     Estimated total dynamical RAM >     246.15 MB

     Check: negative/imaginary core charge=   -0.000001    0.000000

     Initial potential from superposition of free atoms

     starting charge    8.98437, renormalised to    9.00000
     Starting wfcs are    8 randomized atomic wfcs +    1 random wfcs
     Checking if some PAW data can be deallocated... 

     total cpu time spent up to now is        1.7 secs

     Self-consistent Calculation

     iteration #  1     ecut=    90.00 Ry     beta= 0.70
     Davidson diagonalization with overlap
     ethr =  1.00E-02,  avg # of iterations =  6.7

     Threshold (ethr) on eigenvalues was too large:
     Diagonalizing with lowered threshold

     Davidson diagonalization with overlap
     ethr =  1.23E-05,  avg # of iterations =  6.5

     total cpu time spent up to now is        7.1 secs

     total energy              =    -109.87149664 Ry
     Harris-Foulkes estimate   =    -109.87205061 Ry
     estimated scf accuracy    <       0.00110293 Ry

     iteration #  2     ecut=    90.00 Ry     beta= 0.70
     Davidson diagonalization with overlap
     ethr =  1.23E-05,  avg # of iterations =  2.1

     total cpu time spent up to now is        9.2 secs

     total energy              =    -109.87168259 Ry
     Harris-Foulkes estimate   =    -109.87170757 Ry
     estimated scf accuracy    <       0.00008924 Ry

     iteration #  3     ecut=    90.00 Ry     beta= 0.70
     Davidson diagonalization with overlap
     ethr =  9.92E-07,  avg # of iterations =  2.0

     total cpu time spent up to now is       11.0 secs

     total energy              =    -109.87169394 Ry
     Harris-Foulkes estimate   =    -109.87169367 Ry
     estimated scf accuracy    <       0.00000595 Ry

     iteration #  4     ecut=    90.00 Ry     beta= 0.70
     Davidson diagonalization with overlap
     ethr =  6.61E-08,  avg # of iterations =  1.4

     total cpu time spent up to now is       12.9 secs

     total energy              =    -109.87169463 Ry
     Harris-Foulkes estimate   =    -109.87169462 Ry
     estimated scf accuracy    <       0.00000004 Ry

     iteration #  5     ecut=    90.00 Ry     beta= 0.70
     Davidson diagonalization with overlap
     ethr =  4.52E-10,  avg # of iterations =  2.4

     total cpu time spent up to now is       15.2 secs

     End of self-consistent calculation

          k = 0.0000 0.0000 0.0000 (  6819 PWs)   bands (ev):

   -30.0989 -13.7369 -13.7369 -13.7369  -0.4767   5.9285   5.9285   6.8744
     6.8747

          k = 0.0000-0.1250 0.1250 (  6887 PWs)   bands (ev):

   -30.0981 -13.7487 -13.7408 -13.7368  -0.2766   5.6288   5.7063   6.0888
     6.6494

          k = 0.0000-0.2500 0.2500 (  6909 PWs)   bands (ev):

   -30.0963 -13.7771 -13.7503 -13.7368   0.3022   4.6610   5.2841   6.5581
     6.6842

          k = 0.0000-0.3750 0.3750 (  6921 PWs)   bands (ev):

   -30.0945 -13.8051 -13.7598 -13.7368   1.1936   3.5134   4.9542   6.6640
     7.0595

          k = 0.0000 0.5000-0.5000 (  6926 PWs)   bands (ev):

   -30.0937 -13.8166 -13.7637 -13.7368   2.1431   2.4884   4.8349   6.5321
     7.8348

          k =-0.1250-0.1250 0.2500 (  6891 PWs)   bands (ev):

   -30.0968 -13.7683 -13.7453 -13.7397   0.1133   5.0787   5.2815   6.3687
     6.4910

          k =-0.1250-0.2500 0.3750 (  6912 PWs)   bands (ev):

   -30.0950 -13.7933 -13.7567 -13.7408   0.8517   4.1236   4.8463   6.5259
     6.8131

          k =-0.1250 0.6250-0.5000 (  6905 PWs)   bands (ev):

   -30.0937 -13.8103 -13.7659 -13.7410   1.8488   3.0165   4.6146   6.3547
     7.1993

          k =-0.2500 0.7500-0.5000 (  6918 PWs)   bands (ev):

   -30.0937 -13.8020 -13.7702 -13.7451   1.7059   3.6271   4.1184   6.4590
     6.7125

          k =-0.2500 0.6250-0.3750 (  6922 PWs)   bands (ev):

   -30.0932 -13.8017 -13.7804 -13.7461   2.7308   2.7576   3.8109   6.2433
     7.0002

          k = 0.0000 0.0000 0.2500 (  6899 PWs)   bands (ev):

   -30.0974 -13.7516 -13.7448 -13.7448  -0.0796   5.6099   5.6099   5.9347
     6.1588

          k = 0.0000-0.1250 0.3750 (  6881 PWs)   bands (ev):

   -30.0956 -13.7763 -13.7545 -13.7462   0.4901   4.7249   5.2904   5.8515
     6.5731

          k = 0.0000-0.2500 0.5000 (  6920 PWs)   bands (ev):

   -30.0938 -13.8025 -13.7642 -13.7456   1.3685   3.6132   5.0058   5.8596
     7.0814

          k = 0.0000 0.6250-0.3750 (  6914 PWs)   bands (ev):

   -30.0931 -13.8133 -13.7682 -13.7453   2.3477   2.5714   4.8996   5.7548
     7.1328

          k =-0.1250-0.1250 0.5000 (  6910 PWs)   bands (ev):

   -30.0939 -13.7928 -13.7663 -13.7512   1.2035   4.1233   4.7917   5.8670
     6.7619

          k =-0.1250 0.7500-0.3750 (  6923 PWs)   bands (ev):

   -30.0927 -13.8051 -13.7771 -13.7516   2.1691   3.2328   4.3702   5.9248
     6.7478

          k =-0.2500 0.2500 0.2500 (  6891 PWs)   bands (ev):

   -30.0955 -13.7891 -13.7464 -13.7464   0.6737   4.5694   4.5694   6.5646
     6.9949

          k =-0.2500 0.7500-0.2500 (  6905 PWs)   bands (ev):

   -30.0922 -13.7950 -13.7950 -13.7528   3.0208   3.0208   3.5230   6.4914
     6.9761

          k = 0.6250-0.6250 0.2500 (  6919 PWs)   bands (ev):

   -30.0941 -13.8016 -13.7612 -13.7475   1.5431   3.6646   4.2558   6.2040
     7.1468

          k = 0.5000-0.5000 0.2500 (  6922 PWs)   bands (ev):

   -30.0936 -13.8044 -13.7697 -13.7480   2.5432   2.6695   4.1509   5.8934
     7.2771

          k = 0.5000-0.6250 0.3750 (  6915 PWs)   bands (ev):

   -30.0935 -13.7950 -13.7741 -13.7551   2.4746   3.3301   3.6203   5.4623
     7.2749

          k = 0.0000 0.0000 0.5000 (  6927 PWs)   bands (ev):

   -30.0940 -13.7782 -13.7647 -13.7647   1.0313   4.6026   5.2336   5.2336
     6.7661

          k = 0.0000-0.1250 0.6250 (  6910 PWs)   bands (ev):

   -30.0923 -13.7964 -13.7749 -13.7667   1.8584   3.8167   5.1148   5.1394
     6.3056

          k = 0.0000 0.7500-0.2500 (  6928 PWs)   bands (ev):

   -30.0917 -13.8055 -13.7791 -13.7658   2.8159   2.8867   4.9319   5.0577
     6.4838

          k =-0.1250 0.8750-0.2500 (  6929 PWs)   bands (ev):

   -30.0913 -13.7991 -13.7883 -13.7698   2.7013   3.4253   4.3061   5.6549
     6.0547

          k = 0.5000-0.5000 0.5000 (  6888 PWs)   bands (ev):

   -30.0934 -13.7757 -13.7757 -13.7757   3.2328   3.2328   3.2328   4.7545
     7.4340

          k = 0.0000 0.0000 0.7500 (  6915 PWs)   bands (ev):

   -30.0909 -13.7922 -13.7855 -13.7855   2.5567   3.7083   5.1945   5.1945
     5.4146

          k = 0.0000 0.8750-0.1250 (  6896 PWs)   bands (ev):

   -30.0902 -13.7976 -13.7899 -13.7860   3.1744   3.3533   4.8311   5.2173
     5.6896

          k = 0.0000 0.0000-1.0000 (  6986 PWs)   bands (ev):

   -30.0896 -13.7944 -13.7944 -13.7944   3.4011   5.2833   5.2833   5.2833
     7.2557

     the Fermi energy is     1.7669 ev

!    total energy              =    -109.87169465 Ry
     Harris-Foulkes estimate   =    -109.87169465 Ry
     estimated scf accuracy    <          3.8E-09 Ry

     total all-electron energy =     -1201.196694 Ry

     The total energy is the sum of the following terms:

     one-electron contribution =     -35.36983270 Ry
     hartree contribution      =      18.82585258 Ry
     xc contribution           =     -11.01686543 Ry
     ewald contribution        =     -29.89633970 Ry
     one-center paw contrib.   =     -52.41373916 Ry
     smearing contrib. (-TS)   =      -0.00077024 Ry

     convergence has been achieved in   5 iterations

     Forces acting on atoms (cartesian axes, Ry/au):

     atom    1 type  1   force =     0.00000000    0.00000000    0.00000000

     Total force =     0.000000     Total SCF correction =     0.000000


     Computing stress (Cartesian axis) and pressure

          total   stress  (Ry/bohr**3)                   (kbar)     P=   -3.79
  -0.00002579  -0.00000000   0.00000000         -3.79     -0.00      0.00
  -0.00000000  -0.00002579  -0.00000000         -0.00     -3.79     -0.00
   0.00000000  -0.00000000  -0.00002579          0.00     -0.00     -3.79


     Writing output data file K.save/

     init_run     :      0.95s CPU      1.00s WALL (       1 calls)
     electrons    :     13.05s CPU     13.45s WALL (       1 calls)
     forces       :      0.34s CPU      0.34s WALL (       1 calls)
     stress       :      0.99s CPU      0.99s WALL (       1 calls)

     Called by init_run:
     wfcinit      :      0.51s CPU      0.54s WALL (       1 calls)
     potinit      :      0.06s CPU      0.06s WALL (       1 calls)
     hinit0       :      0.26s CPU      0.26s WALL (       1 calls)

     Called by electrons:
     c_bands      :     10.45s CPU     10.78s WALL (       6 calls)
     sum_band     :      2.05s CPU      2.11s WALL (       6 calls)
     v_of_rho     :      0.03s CPU      0.03s WALL (       6 calls)
     newd         :      0.33s CPU      0.34s WALL (       6 calls)
     PAW_pot      :      0.25s CPU      0.25s WALL (       6 calls)
     mix_rho      :      0.02s CPU      0.02s WALL (       6 calls)

     Called by c_bands:
     init_us_2    :      0.38s CPU      0.39s WALL (     435 calls)
     cegterg      :      9.98s CPU     10.31s WALL (     174 calls)

     Called by sum_band:
     sum_band:bec :      0.00s CPU      0.00s WALL (     174 calls)
     addusdens    :      0.31s CPU      0.32s WALL (       6 calls)

     Called by *egterg:
     h_psi        :      8.48s CPU      8.82s WALL (     818 calls)
     s_psi        :      0.24s CPU      0.24s WALL (     818 calls)
     g_psi        :      0.02s CPU      0.03s WALL (     615 calls)
     cdiaghg      :      0.20s CPU      0.21s WALL (     760 calls)

     Called by h_psi:
     h_psi:pot    :      8.44s CPU      8.77s WALL (     818 calls)
     h_psi:calbec :      0.47s CPU      0.49s WALL (     818 calls)
     vloc_psi     :      7.68s CPU      7.99s WALL (     818 calls)
     add_vuspsi   :      0.28s CPU      0.29s WALL (     818 calls)

     General routines
     calbec       :      0.88s CPU      0.90s WALL (    1137 calls)
     fft          :      0.06s CPU      0.06s WALL (      34 calls)
     ffts         :      0.01s CPU      0.01s WALL (       6 calls)
     fftw         :      8.23s CPU      8.56s WALL (   10934 calls)

     Parallel routines
     fft_scatt_xy :      0.66s CPU      0.69s WALL (   10974 calls)
     fft_scatt_yz :      2.10s CPU      2.19s WALL (   10974 calls)

     PWSCF        :    16.13s CPU        16.73s WALL


   This run was terminated on:   1:31:17   8Apr2024            

=------------------------------------------------------------------------------=
   JOB DONE.
=------------------------------------------------------------------------------=
