
     Program PWSCF v.6.3MaX starts on  8Apr2024 at  0:13:56 

     This program is part of the open-source Quantum ESPRESSO suite
     for quantum simulation of materials; please cite
         "P. Giannozzi et al., J. Phys.:Condens. Matter 21 395502 (2009);
         "P. Giannozzi et al., J. Phys.:Condens. Matter 29 465901 (2017);
          URL http://www.quantum-espresso.org", 
     in publications or presentations arising from this work. More details at
     http://www.quantum-espresso.org/quote

     Parallel version (MPI), running on     5 processors

     MPI processes distributed on     1 nodes
     R & G space division:  proc/nbgrp/npool/nimage =       5
     Waiting for input...
     Reading input from standard input

     Current dimensions of program PWSCF are:
     Max number of different atomic species (ntypx) = 10
     Max number of k-points (npk) =  40000
     Max angular momentum in pseudopotentials (lmaxx) =  3
               file K.pbe-spn-rrkjus_psl.1.0.0.UPF: wavefunction(s)  3S renormalized

     Subspace diagonalization in iterative solution of the eigenvalue problem:
     a serial algorithm will be used


     Parallelization info
     --------------------
     sticks:   dense  smooth     PW     G-vecs:    dense   smooth      PW
     Min          66      66     23                  756      756     153
     Max          67      67     24                  757      757     154
     Sum         333     333    117                 3781     3781     767



     bravais-lattice index     =            3
     lattice parameter (alat)  =       9.8600  a.u.
     unit-cell volume          =     479.2926 (a.u.)^3
     number of atoms/cell      =            1
     number of atomic types    =            1
     number of electrons       =         9.00
     number of Kohn-Sham states=            9
     kinetic-energy cutoff     =      15.0000  Ry
     charge density cutoff     =      60.0000  Ry
     convergence threshold     =      1.0E-08
     mixing beta               =       0.7000
     number of iterations used =            8  plain     mixing
     Exchange-correlation      = PBE ( 1  4  3  4 0 0)

     celldm(1)=   9.860000  celldm(2)=   0.000000  celldm(3)=   0.000000
     celldm(4)=   0.000000  celldm(5)=   0.000000  celldm(6)=   0.000000

     crystal axes: (cart. coord. in units of alat)
               a(1) = (   0.500000   0.500000   0.500000 )  
               a(2) = (  -0.500000   0.500000   0.500000 )  
               a(3) = (  -0.500000  -0.500000   0.500000 )  

     reciprocal axes: (cart. coord. in units 2 pi/alat)
               b(1) = (  1.000000  0.000000  1.000000 )  
               b(2) = ( -1.000000  1.000000  0.000000 )  
               b(3) = (  0.000000 -1.000000  1.000000 )  


     PseudoPot. # 1 for K  read from file:
     /home/lorenzo/pseudos/K/K.pbe-spn-rrkjus_psl.1.0.0.UPF
     MD5 check sum: 897b700350bb708b0563e904352feb48
     Pseudo is Ultrasoft + core correction, Zval =  9.0
     Generated using "atomic" code by A. Dal Corso v.6.2.2
     Using radial grid of 1165 points,  6 beta functions with: 
                l(1) =   0
                l(2) =   0
                l(3) =   1
                l(4) =   1
                l(5) =   2
                l(6) =   2
     Q(r) pseudized with 0 coefficients 


     atomic species   valence    mass     pseudopotential
        K              9.00    39.09830     K ( 1.00)

     48 Sym. Ops., with inversion, found



   Cartesian axes

     site n.     atom                  positions (alat units)
         1           K   tau(   1) = (   0.0000000   0.0000000   0.0000000  )

     number of k points=    29  gaussian smearing, width (Ry)=  0.0100
                       cart. coord. in units 2pi/alat
        k(    1) = (   0.0000000   0.0000000   0.0000000), wk =   0.0039062
        k(    2) = (   0.0000000  -0.1250000   0.1250000), wk =   0.0468750
        k(    3) = (   0.0000000  -0.2500000   0.2500000), wk =   0.0468750
        k(    4) = (   0.0000000  -0.3750000   0.3750000), wk =   0.0468750
        k(    5) = (   0.0000000   0.5000000  -0.5000000), wk =   0.0234375
        k(    6) = (  -0.1250000  -0.1250000   0.2500000), wk =   0.0937500
        k(    7) = (  -0.1250000  -0.2500000   0.3750000), wk =   0.1875000
        k(    8) = (  -0.1250000   0.6250000  -0.5000000), wk =   0.1875000
        k(    9) = (  -0.2500000   0.7500000  -0.5000000), wk =   0.0937500
        k(   10) = (  -0.2500000   0.6250000  -0.3750000), wk =   0.0937500
        k(   11) = (   0.0000000   0.0000000   0.2500000), wk =   0.0234375
        k(   12) = (   0.0000000  -0.1250000   0.3750000), wk =   0.0937500
        k(   13) = (   0.0000000  -0.2500000   0.5000000), wk =   0.0937500
        k(   14) = (   0.0000000   0.6250000  -0.3750000), wk =   0.0468750
        k(   15) = (  -0.1250000  -0.1250000   0.5000000), wk =   0.0937500
        k(   16) = (  -0.1250000   0.7500000  -0.3750000), wk =   0.1875000
        k(   17) = (  -0.2500000   0.2500000   0.2500000), wk =   0.0312500
        k(   18) = (  -0.2500000   0.7500000  -0.2500000), wk =   0.0312500
        k(   19) = (   0.6250000  -0.6250000   0.2500000), wk =   0.0937500
        k(   20) = (   0.5000000  -0.5000000   0.2500000), wk =   0.0468750
        k(   21) = (   0.5000000  -0.6250000   0.3750000), wk =   0.0937500
        k(   22) = (   0.0000000   0.0000000   0.5000000), wk =   0.0234375
        k(   23) = (   0.0000000  -0.1250000   0.6250000), wk =   0.0937500
        k(   24) = (   0.0000000   0.7500000  -0.2500000), wk =   0.0468750
        k(   25) = (  -0.1250000   0.8750000  -0.2500000), wk =   0.0937500
        k(   26) = (   0.5000000  -0.5000000   0.5000000), wk =   0.0078125
        k(   27) = (   0.0000000   0.0000000   0.7500000), wk =   0.0234375
        k(   28) = (   0.0000000   0.8750000  -0.1250000), wk =   0.0468750
        k(   29) = (   0.0000000   0.0000000  -1.0000000), wk =   0.0039062

     Dense  grid:     3781 G-vectors     FFT dimensions: (  24,  24,  24)

     Estimated max dynamical RAM per process >       4.22 MB

     Estimated total dynamical RAM >      21.12 MB

     Check: negative/imaginary core charge=   -0.000363    0.000000

     Initial potential from superposition of free atoms

     starting charge    8.98117, renormalised to    9.00000
     Starting wfcs are    8 randomized atomic wfcs +    1 random wfcs

     total cpu time spent up to now is        0.9 secs

     Self-consistent Calculation

     iteration #  1     ecut=    15.00 Ry     beta= 0.70
     Davidson diagonalization with overlap
     ethr =  1.00E-02,  avg # of iterations =  6.6

     Threshold (ethr) on eigenvalues was too large:
     Diagonalizing with lowered threshold

     Davidson diagonalization with overlap
     ethr =  5.01E-04,  avg # of iterations =  2.0

     total cpu time spent up to now is        1.4 secs

     total energy              =     -58.42705146 Ry
     Harris-Foulkes estimate   =     -58.45352283 Ry
     estimated scf accuracy    <       0.04633657 Ry

     iteration #  2     ecut=    15.00 Ry     beta= 0.70
     Davidson diagonalization with overlap
     ethr =  5.15E-04,  avg # of iterations =  2.0

     total cpu time spent up to now is        1.6 secs

     total energy              =     -58.43642191 Ry
     Harris-Foulkes estimate   =     -58.43663630 Ry
     estimated scf accuracy    <       0.00214848 Ry

     iteration #  3     ecut=    15.00 Ry     beta= 0.70
     Davidson diagonalization with overlap
     ethr =  2.39E-05,  avg # of iterations =  4.4

     total cpu time spent up to now is        1.8 secs

     total energy              =     -58.43661903 Ry
     Harris-Foulkes estimate   =     -58.43657537 Ry
     estimated scf accuracy    <       0.00014171 Ry

     iteration #  4     ecut=    15.00 Ry     beta= 0.70
     Davidson diagonalization with overlap
     ethr =  1.57E-06,  avg # of iterations =  3.3

     total cpu time spent up to now is        2.0 secs

     total energy              =     -58.43662156 Ry
     Harris-Foulkes estimate   =     -58.43662167 Ry
     estimated scf accuracy    <       0.00000024 Ry

     iteration #  5     ecut=    15.00 Ry     beta= 0.70
     Davidson diagonalization with overlap
     ethr =  2.68E-09,  avg # of iterations =  2.8

     total cpu time spent up to now is        2.1 secs

     End of self-consistent calculation

          k = 0.0000 0.0000 0.0000 (   459 PWs)   bands (ev):

   -31.2588 -13.4540 -13.4540 -13.4540  -0.5419   6.6444   6.6444   6.6444
     7.7132

          k = 0.0000-0.1250 0.1250 (   471 PWs)   bands (ev):

   -31.2581 -13.5685 -13.5083 -13.4970  -0.3392   6.1465   6.3245   6.7772
     7.3706

          k = 0.0000-0.2500 0.2500 (   465 PWs)   bands (ev):

   -31.2566 -13.5402 -13.5253 -13.4717   0.2495   4.9162   5.7945   7.2730
     7.4331

          k = 0.0000-0.3750 0.3750 (   474 PWs)   bands (ev):

   -31.2551 -13.6301 -13.5982 -13.5176   1.1576   3.5915   5.3970   7.3015
     7.5508

          k = 0.0000 0.5000-0.5000 (   476 PWs)   bands (ev):

   -31.2544 -13.6410 -13.6382 -13.5099   2.1722   2.4546   5.2574   7.1288
     7.7783

          k =-0.1250-0.1250 0.2500 (   469 PWs)   bands (ev):

   -31.2570 -13.5676 -13.5093 -13.5072   0.0568   5.4289   5.7239   7.0506
     7.1735

          k =-0.1250-0.2500 0.3750 (   469 PWs)   bands (ev):

   -31.2555 -13.5961 -13.5639 -13.4853   0.8082   4.2973   5.1895   7.0846
     7.4099

          k =-0.1250 0.6250-0.5000 (   473 PWs)   bands (ev):

   -31.2544 -13.6356 -13.5747 -13.5368   1.8352   3.0498   4.9209   6.7882
     7.7966

          k =-0.2500 0.7500-0.5000 (   478 PWs)   bands (ev):

   -31.2545 -13.6597 -13.6002 -13.5758   1.6805   3.7415   4.2736   6.7645
     7.4133

          k =-0.2500 0.6250-0.3750 (   474 PWs)   bands (ev):

   -31.2540 -13.6284 -13.6014 -13.5607   2.7585   2.7722   3.9397   6.5660
     7.7089

          k = 0.0000 0.0000 0.2500 (   466 PWs)   bands (ev):

   -31.2575 -13.5628 -13.4754 -13.4754  -0.1391   6.1339   6.1339   6.3623
     6.9252

          k = 0.0000-0.1250 0.3750 (   464 PWs)   bands (ev):

   -31.2561 -13.5597 -13.5016 -13.4862   0.4402   4.9855   5.7261   6.3109
     7.3478

          k = 0.0000-0.2500 0.5000 (   472 PWs)   bands (ev):

   -31.2546 -13.6342 -13.5517 -13.5399   1.3361   3.7046   5.3950   6.2003
     7.8752

          k = 0.0000 0.6250-0.3750 (   468 PWs)   bands (ev):

   -31.2540 -13.6380 -13.5260 -13.5145   2.3797   2.5466   5.2924   6.0622
     7.9732

          k =-0.1250-0.1250 0.5000 (   468 PWs)   bands (ev):

   -31.2546 -13.6013 -13.5434 -13.5177   1.1668   4.3033   5.0410   6.3375
     7.3677

          k =-0.1250 0.7500-0.3750 (   465 PWs)   bands (ev):

   -31.2536 -13.6104 -13.5630 -13.4757   2.1641   3.2954   4.5548   6.3818
     7.3885

          k =-0.2500 0.2500 0.2500 (   471 PWs)   bands (ev):

   -31.2559 -13.5640 -13.5510 -13.5510   0.6283   4.8414   4.8414   6.8876
     7.8555

          k =-0.2500 0.7500-0.2500 (   475 PWs)   bands (ev):

   -31.2532 -13.6425 -13.6425 -13.5409   3.0541   3.0541   3.6028   7.0151
     7.0151

          k = 0.6250-0.6250 0.2500 (   478 PWs)   bands (ev):

   -31.2548 -13.6381 -13.5945 -13.5870   1.5146   3.7784   4.4778   6.3164
     8.0667

          k = 0.5000-0.5000 0.2500 (   472 PWs)   bands (ev):

   -31.2543 -13.5823 -13.5791 -13.5777   2.5845   2.6672   4.3707   6.0265
     8.2070

          k = 0.5000-0.6250 0.3750 (   475 PWs)   bands (ev):

   -31.2543 -13.6244 -13.5899 -13.5831   2.4815   3.4112   3.7388   5.5543
     8.2737

          k = 0.0000 0.0000 0.5000 (   458 PWs)   bands (ev):

   -31.2547 -13.5243 -13.4849 -13.4849   0.9949   4.8476   5.5850   5.5850
     7.2233

          k = 0.0000-0.1250 0.6250 (   466 PWs)   bands (ev):

   -31.2533 -13.6081 -13.5425 -13.5140   1.8408   3.9573   5.3688   5.3963
     6.7257

          k = 0.0000 0.7500-0.2500 (   462 PWs)   bands (ev):

   -31.2528 -13.6129 -13.5383 -13.4711   2.8297   2.9395   5.1431   5.3240
     6.9371

          k =-0.1250 0.8750-0.2500 (   466 PWs)   bands (ev):

   -31.2524 -13.6205 -13.6022 -13.4904   2.7223   3.5276   4.4177   5.9277
     6.3947

          k = 0.5000-0.5000 0.5000 (   484 PWs)   bands (ev):

   -31.2542 -13.6497 -13.6497 -13.6497   3.2955   3.2955   3.2955   4.7859
     8.4664

          k = 0.0000 0.0000 0.7500 (   466 PWs)   bands (ev):

   -31.2521 -13.5825 -13.5825 -13.5524   2.5766   3.8772   5.3435   5.3435
     5.6328

          k = 0.0000 0.8750-0.1250 (   474 PWs)   bands (ev):

   -31.2516 -13.6572 -13.6391 -13.5774   3.2529   3.4648   4.9318   5.3108
     5.8335

          k = 0.0000 0.0000-1.0000 (   466 PWs)   bands (ev):

   -31.2511 -13.5874 -13.5874 -13.5874   3.5619   3.5619   5.3138   5.3138
     5.3138

     the Fermi energy is     1.7487 ev

!    total energy              =     -58.43662172 Ry
     Harris-Foulkes estimate   =     -58.43662172 Ry
     estimated scf accuracy    <          9.9E-09 Ry

     The total energy is the sum of the following terms:

     one-electron contribution =     -35.78488768 Ry
     hartree contribution      =      18.37074241 Ry
     xc contribution           =     -11.12539680 Ry
     ewald contribution        =     -29.89633977 Ry
     smearing contrib. (-TS)   =      -0.00073989 Ry

     convergence has been achieved in   5 iterations

     Forces acting on atoms (cartesian axes, Ry/au):

     atom    1 type  1   force =     0.00000000    0.00000000    0.00000000

     Total force =     0.000000     Total SCF correction =     0.000000


     Computing stress (Cartesian axis) and pressure

          total   stress  (Ry/bohr**3)                   (kbar)     P= -285.71
  -0.00194222  -0.00000000   0.00000000       -285.71     -0.00      0.00
  -0.00000000  -0.00194222  -0.00000000         -0.00   -285.71     -0.00
  -0.00000000   0.00000000  -0.00194222         -0.00      0.00   -285.71


     Writing output data file K.save/

     init_run     :      0.15s CPU      0.16s WALL (       1 calls)
     electrons    :      1.18s CPU      1.25s WALL (       1 calls)
     forces       :      0.02s CPU      0.03s WALL (       1 calls)
     stress       :      0.07s CPU      0.07s WALL (       1 calls)

     Called by init_run:
     wfcinit      :      0.05s CPU      0.05s WALL (       1 calls)
     potinit      :      0.01s CPU      0.01s WALL (       1 calls)
     hinit0       :      0.09s CPU      0.09s WALL (       1 calls)

     Called by electrons:
     c_bands      :      0.99s CPU      1.05s WALL (       6 calls)
     sum_band     :      0.16s CPU      0.17s WALL (       6 calls)
     v_of_rho     :      0.02s CPU      0.02s WALL (       6 calls)
     newd         :      0.02s CPU      0.02s WALL (       6 calls)
     mix_rho      :      0.00s CPU      0.00s WALL (       6 calls)

     Called by c_bands:
     init_us_2    :      0.03s CPU      0.03s WALL (     435 calls)
     cegterg      :      0.95s CPU      1.01s WALL (     174 calls)

     Called by sum_band:
     sum_band:bec :      0.00s CPU      0.00s WALL (     174 calls)
     addusdens    :      0.02s CPU      0.02s WALL (       6 calls)

     Called by *egterg:
     h_psi        :      0.69s CPU      0.74s WALL (     813 calls)
     s_psi        :      0.02s CPU      0.02s WALL (     813 calls)
     g_psi        :      0.00s CPU      0.00s WALL (     610 calls)
     cdiaghg      :      0.15s CPU      0.16s WALL (     755 calls)

     Called by h_psi:
     h_psi:pot    :      0.69s CPU      0.73s WALL (     813 calls)
     h_psi:calbec :      0.03s CPU      0.04s WALL (     813 calls)
     vloc_psi     :      0.63s CPU      0.67s WALL (     813 calls)
     add_vuspsi   :      0.02s CPU      0.02s WALL (     813 calls)

     General routines
     calbec       :      0.05s CPU      0.05s WALL (    1132 calls)
     fft          :      0.02s CPU      0.02s WALL (      93 calls)
     ffts         :      0.00s CPU      0.00s WALL (       6 calls)
     fftw         :      0.68s CPU      0.72s WALL (   10428 calls)

     Parallel routines
     fft_scatt_xy :      0.06s CPU      0.06s WALL (   10527 calls)
     fft_scatt_yz :      0.22s CPU      0.24s WALL (   10527 calls)

     PWSCF        :     2.18s CPU         2.32s WALL


   This run was terminated on:   0:13:58   8Apr2024            

=------------------------------------------------------------------------------=
   JOB DONE.
=------------------------------------------------------------------------------=
