
     Program PWSCF v.6.3MaX starts on  8Apr2024 at  0:13: 9 

     This program is part of the open-source Quantum ESPRESSO suite
     for quantum simulation of materials; please cite
         "P. Giannozzi et al., J. Phys.:Condens. Matter 21 395502 (2009);
         "P. Giannozzi et al., J. Phys.:Condens. Matter 29 465901 (2017);
          URL http://www.quantum-espresso.org", 
     in publications or presentations arising from this work. More details at
     http://www.quantum-espresso.org/quote

     Parallel version (MPI), running on     5 processors

     MPI processes distributed on     1 nodes
     R & G space division:  proc/nbgrp/npool/nimage =       5
     Waiting for input...
     Reading input from standard input

     Current dimensions of program PWSCF are:
     Max number of different atomic species (ntypx) = 10
     Max number of k-points (npk) =  40000
     Max angular momentum in pseudopotentials (lmaxx) =  3
               file K.pbe-spn-rrkjus_psl.1.0.0.UPF: wavefunction(s)  3S renormalized

     Subspace diagonalization in iterative solution of the eigenvalue problem:
     a serial algorithm will be used


     Parallelization info
     --------------------
     sticks:   dense  smooth     PW     G-vecs:    dense   smooth      PW
     Min          66      66     19                  756      756     133
     Max          67      67     20                  757      757     136
     Sum         333     333     99                 3781     3781     675



     bravais-lattice index     =            3
     lattice parameter (alat)  =       9.8600  a.u.
     unit-cell volume          =     479.2926 (a.u.)^3
     number of atoms/cell      =            1
     number of atomic types    =            1
     number of electrons       =         9.00
     number of Kohn-Sham states=            9
     kinetic-energy cutoff     =      15.0000  Ry
     charge density cutoff     =      60.0000  Ry
     convergence threshold     =      1.0E-08
     mixing beta               =       0.7000
     number of iterations used =            8  plain     mixing
     Exchange-correlation      = PBE ( 1  4  3  4 0 0)

     celldm(1)=   9.860000  celldm(2)=   0.000000  celldm(3)=   0.000000
     celldm(4)=   0.000000  celldm(5)=   0.000000  celldm(6)=   0.000000

     crystal axes: (cart. coord. in units of alat)
               a(1) = (   0.500000   0.500000   0.500000 )  
               a(2) = (  -0.500000   0.500000   0.500000 )  
               a(3) = (  -0.500000  -0.500000   0.500000 )  

     reciprocal axes: (cart. coord. in units 2 pi/alat)
               b(1) = (  1.000000  0.000000  1.000000 )  
               b(2) = ( -1.000000  1.000000  0.000000 )  
               b(3) = (  0.000000 -1.000000  1.000000 )  


     PseudoPot. # 1 for K  read from file:
     /home/lorenzo/pseudos/K/K.pbe-spn-rrkjus_psl.1.0.0.UPF
     MD5 check sum: 897b700350bb708b0563e904352feb48
     Pseudo is Ultrasoft + core correction, Zval =  9.0
     Generated using "atomic" code by A. Dal Corso v.6.2.2
     Using radial grid of 1165 points,  6 beta functions with: 
                l(1) =   0
                l(2) =   0
                l(3) =   1
                l(4) =   1
                l(5) =   2
                l(6) =   2
     Q(r) pseudized with 0 coefficients 


     atomic species   valence    mass     pseudopotential
        K              9.00    39.09830     K ( 1.00)

     48 Sym. Ops., with inversion, found



   Cartesian axes

     site n.     atom                  positions (alat units)
         1           K   tau(   1) = (   0.0000000   0.0000000   0.0000000  )

     number of k points=     4  gaussian smearing, width (Ry)=  0.0100
                       cart. coord. in units 2pi/alat
        k(    1) = (   0.0000000   0.0000000   0.0000000), wk =   0.0740741
        k(    2) = (   0.0000000  -0.3333333   0.3333333), wk =   0.8888889
        k(    3) = (  -0.3333333   0.6666667  -0.3333333), wk =   0.5925926
        k(    4) = (   0.0000000   0.0000000   0.6666667), wk =   0.4444444

     Dense  grid:     3781 G-vectors     FFT dimensions: (  24,  24,  24)

     Estimated max dynamical RAM per process >       3.90 MB

     Estimated total dynamical RAM >      19.51 MB

     Check: negative/imaginary core charge=   -0.000363    0.000000

     Initial potential from superposition of free atoms

     starting charge    8.98117, renormalised to    9.00000
     Starting wfcs are    8 randomized atomic wfcs +    1 random wfcs

     total cpu time spent up to now is        0.8 secs

     Self-consistent Calculation

     iteration #  1     ecut=    15.00 Ry     beta= 0.70
     Davidson diagonalization with overlap
     ethr =  1.00E-02,  avg # of iterations =  7.8

     Threshold (ethr) on eigenvalues was too large:
     Diagonalizing with lowered threshold

     Davidson diagonalization with overlap
     ethr =  5.00E-04,  avg # of iterations =  1.8

     total cpu time spent up to now is        0.9 secs

     total energy              =     -58.43534791 Ry
     Harris-Foulkes estimate   =     -58.46180031 Ry
     estimated scf accuracy    <       0.04625924 Ry

     iteration #  2     ecut=    15.00 Ry     beta= 0.70
     Davidson diagonalization with overlap
     ethr =  5.14E-04,  avg # of iterations =  2.0

     total cpu time spent up to now is        1.0 secs

     total energy              =     -58.44469001 Ry
     Harris-Foulkes estimate   =     -58.44490434 Ry
     estimated scf accuracy    <       0.00214227 Ry

     iteration #  3     ecut=    15.00 Ry     beta= 0.70
     Davidson diagonalization with overlap
     ethr =  2.38E-05,  avg # of iterations =  4.2

     total cpu time spent up to now is        1.0 secs

     total energy              =     -58.44487743 Ry
     Harris-Foulkes estimate   =     -58.44483313 Ry
     estimated scf accuracy    <       0.00014121 Ry

     iteration #  4     ecut=    15.00 Ry     beta= 0.70
     Davidson diagonalization with overlap
     ethr =  1.57E-06,  avg # of iterations =  3.0

     total cpu time spent up to now is        1.0 secs

     total energy              =     -58.44487997 Ry
     Harris-Foulkes estimate   =     -58.44488007 Ry
     estimated scf accuracy    <       0.00000024 Ry

     iteration #  5     ecut=    15.00 Ry     beta= 0.70
     Davidson diagonalization with overlap
     ethr =  2.68E-09,  avg # of iterations =  2.5

     total cpu time spent up to now is        1.1 secs

     total energy              =     -58.44488019 Ry
     Harris-Foulkes estimate   =     -58.44488020 Ry
     estimated scf accuracy    <       0.00000001 Ry

     iteration #  6     ecut=    15.00 Ry     beta= 0.70
     Davidson diagonalization with overlap
     ethr =  1.14E-10,  avg # of iterations =  1.5

     total cpu time spent up to now is        1.1 secs

     End of self-consistent calculation

          k = 0.0000 0.0000 0.0000 (   459 PWs)   bands (ev):

   -31.2585 -13.4538 -13.4538 -13.4538  -0.5425   6.6445   6.6445   6.6445
     7.7129

          k = 0.0000-0.3333 0.3333 (   474 PWs)   bands (ev):

   -31.2552 -13.6182 -13.5971 -13.5137   0.8227   4.0283   5.5012   7.3789
     7.4849

          k =-0.3333 0.6667-0.3333 (   475 PWs)   bands (ev):

   -31.2536 -13.6163 -13.6163 -13.5779   3.0058   3.0058   3.3858   6.5381
     7.8157

          k = 0.0000 0.0000 0.6667 (   458 PWs)   bands (ev):

   -31.2525 -13.5244 -13.5244 -13.5043   2.0299   4.1366   5.3925   5.3925
     6.0357

     the Fermi energy is     1.8969 ev

!    total energy              =     -58.44488019 Ry
     Harris-Foulkes estimate   =     -58.44488019 Ry
     estimated scf accuracy    <          3.9E-10 Ry

     The total energy is the sum of the following terms:

     one-electron contribution =     -35.79347871 Ry
     hartree contribution      =      18.37047798 Ry
     xc contribution           =     -11.12505787 Ry
     ewald contribution        =     -29.89633977 Ry
     smearing contrib. (-TS)   =      -0.00048182 Ry

     convergence has been achieved in   6 iterations

     Forces acting on atoms (cartesian axes, Ry/au):

     atom    1 type  1   force =     0.00000000    0.00000000    0.00000000

     Total force =     0.000000     Total SCF correction =     0.000000


     Computing stress (Cartesian axis) and pressure

          total   stress  (Ry/bohr**3)                   (kbar)     P= -286.79
  -0.00194956   0.00000000  -0.00000000       -286.79      0.00     -0.00
   0.00000000  -0.00194956   0.00000000          0.00   -286.79      0.00
  -0.00000000   0.00000000  -0.00194956         -0.00      0.00   -286.79


     Writing output data file K.save/

     init_run     :      0.10s CPU      0.10s WALL (       1 calls)
     electrons    :      0.26s CPU      0.27s WALL (       1 calls)
     forces       :      0.01s CPU      0.01s WALL (       1 calls)
     stress       :      0.04s CPU      0.04s WALL (       1 calls)

     Called by init_run:
     wfcinit      :      0.01s CPU      0.01s WALL (       1 calls)
     potinit      :      0.00s CPU      0.00s WALL (       1 calls)
     hinit0       :      0.08s CPU      0.08s WALL (       1 calls)

     Called by electrons:
     c_bands      :      0.15s CPU      0.16s WALL (       7 calls)
     sum_band     :      0.06s CPU      0.06s WALL (       7 calls)
     v_of_rho     :      0.02s CPU      0.02s WALL (       7 calls)
     newd         :      0.03s CPU      0.03s WALL (       7 calls)
     mix_rho      :      0.00s CPU      0.00s WALL (       7 calls)

     Called by c_bands:
     init_us_2    :      0.01s CPU      0.01s WALL (      68 calls)
     cegterg      :      0.14s CPU      0.15s WALL (      28 calls)

     Called by sum_band:
     sum_band:bec :      0.00s CPU      0.00s WALL (      28 calls)
     addusdens    :      0.02s CPU      0.03s WALL (       7 calls)

     Called by *egterg:
     h_psi        :      0.10s CPU      0.11s WALL (     123 calls)
     s_psi        :      0.00s CPU      0.00s WALL (     123 calls)
     g_psi        :      0.00s CPU      0.00s WALL (      91 calls)
     cdiaghg      :      0.02s CPU      0.02s WALL (     115 calls)

     Called by h_psi:
     h_psi:pot    :      0.10s CPU      0.11s WALL (     123 calls)
     h_psi:calbec :      0.01s CPU      0.01s WALL (     123 calls)
     vloc_psi     :      0.09s CPU      0.10s WALL (     123 calls)
     add_vuspsi   :      0.00s CPU      0.00s WALL (     123 calls)

     General routines
     calbec       :      0.01s CPU      0.01s WALL (     171 calls)
     fft          :      0.02s CPU      0.02s WALL (     104 calls)
     ffts         :      0.00s CPU      0.00s WALL (       7 calls)
     fftw         :      0.10s CPU      0.11s WALL (    1626 calls)

     Parallel routines
     fft_scatt_xy :      0.01s CPU      0.01s WALL (    1737 calls)
     fft_scatt_yz :      0.04s CPU      0.05s WALL (    1737 calls)

     PWSCF        :     1.16s CPU         1.22s WALL


   This run was terminated on:   0:13:10   8Apr2024            

=------------------------------------------------------------------------------=
   JOB DONE.
=------------------------------------------------------------------------------=
