
     Program PWSCF v.6.3MaX starts on  8Apr2024 at  0:35:18 

     This program is part of the open-source Quantum ESPRESSO suite
     for quantum simulation of materials; please cite
         "P. Giannozzi et al., J. Phys.:Condens. Matter 21 395502 (2009);
         "P. Giannozzi et al., J. Phys.:Condens. Matter 29 465901 (2017);
          URL http://www.quantum-espresso.org", 
     in publications or presentations arising from this work. More details at
     http://www.quantum-espresso.org/quote

     Parallel version (MPI), running on     5 processors

     MPI processes distributed on     1 nodes
     R & G space division:  proc/nbgrp/npool/nimage =       5
     Waiting for input...
     Reading input from standard input

     Current dimensions of program PWSCF are:
     Max number of different atomic species (ntypx) = 10
     Max number of k-points (npk) =  40000
     Max angular momentum in pseudopotentials (lmaxx) =  3
               file K.pz-spn-rrkjus_psl.1.0.0.UPF: wavefunction(s)  3S renormalized

     Subspace diagonalization in iterative solution of the eigenvalue problem:
     a serial algorithm will be used


     Parallelization info
     --------------------
     sticks:   dense  smooth     PW     G-vecs:    dense   smooth      PW
     Min         221     221     66                 4575     4575     756
     Max         221     221     67                 4576     4576     757
     Sum        1105    1105    333                22879    22879    3781



     bravais-lattice index     =            3
     lattice parameter (alat)  =       9.8600  a.u.
     unit-cell volume          =     479.2926 (a.u.)^3
     number of atoms/cell      =            1
     number of atomic types    =            1
     number of electrons       =         9.00
     number of Kohn-Sham states=            9
     kinetic-energy cutoff     =      50.0000  Ry
     charge density cutoff     =     200.0000  Ry
     convergence threshold     =      1.0E-08
     mixing beta               =       0.7000
     number of iterations used =            8  plain     mixing
     Exchange-correlation      = LDA ( 1  1  0  0 0 0)

     celldm(1)=   9.860000  celldm(2)=   0.000000  celldm(3)=   0.000000
     celldm(4)=   0.000000  celldm(5)=   0.000000  celldm(6)=   0.000000

     crystal axes: (cart. coord. in units of alat)
               a(1) = (   0.500000   0.500000   0.500000 )  
               a(2) = (  -0.500000   0.500000   0.500000 )  
               a(3) = (  -0.500000  -0.500000   0.500000 )  

     reciprocal axes: (cart. coord. in units 2 pi/alat)
               b(1) = (  1.000000  0.000000  1.000000 )  
               b(2) = ( -1.000000  1.000000  0.000000 )  
               b(3) = (  0.000000 -1.000000  1.000000 )  


     PseudoPot. # 1 for K  read from file:
     /home/lorenzo/pseudos/K/K.pz-spn-rrkjus_psl.1.0.0.UPF
     MD5 check sum: af434a66a3b91719abff201b8f79bb09
     Pseudo is Ultrasoft + core correction, Zval =  9.0
     Generated using "atomic" code by A. Dal Corso v.6.2.2
     Using radial grid of 1165 points,  6 beta functions with: 
                l(1) =   0
                l(2) =   0
                l(3) =   1
                l(4) =   1
                l(5) =   2
                l(6) =   2
     Q(r) pseudized with 0 coefficients 


     atomic species   valence    mass     pseudopotential
        K              9.00    39.09830     K ( 1.00)

     48 Sym. Ops., with inversion, found



   Cartesian axes

     site n.     atom                  positions (alat units)
         1           K   tau(   1) = (   0.0000000   0.0000000   0.0000000  )

     number of k points=    16  gaussian smearing, width (Ry)=  0.0100
                       cart. coord. in units 2pi/alat
        k(    1) = (   0.0000000   0.0000000   0.0000000), wk =   0.0092593
        k(    2) = (   0.0000000  -0.1666667   0.1666667), wk =   0.1111111
        k(    3) = (   0.0000000  -0.3333333   0.3333333), wk =   0.1111111
        k(    4) = (   0.0000000   0.5000000  -0.5000000), wk =   0.0555556
        k(    5) = (  -0.1666667  -0.1666667   0.3333333), wk =   0.2222222
        k(    6) = (  -0.1666667   0.6666667  -0.5000000), wk =   0.4444444
        k(    7) = (  -0.3333333   0.6666667  -0.3333333), wk =   0.0740741
        k(    8) = (   0.0000000   0.0000000   0.3333333), wk =   0.0555556
        k(    9) = (   0.0000000  -0.1666667   0.5000000), wk =   0.2222222
        k(   10) = (   0.0000000   0.6666667  -0.3333333), wk =   0.1111111
        k(   11) = (  -0.1666667   0.8333333  -0.3333333), wk =   0.2222222
        k(   12) = (   0.6666667  -0.6666667   0.3333333), wk =   0.0740741
        k(   13) = (   0.5000000  -0.5000000   0.3333333), wk =   0.1111111
        k(   14) = (   0.0000000   0.0000000   0.6666667), wk =   0.0555556
        k(   15) = (   0.0000000   0.8333333  -0.1666667), wk =   0.1111111
        k(   16) = (   0.0000000   0.0000000  -1.0000000), wk =   0.0092593

     Dense  grid:    22879 G-vectors     FFT dimensions: (  40,  40,  40)

     Estimated max dynamical RAM per process >      20.09 MB

     Estimated total dynamical RAM >     100.45 MB

     Check: negative/imaginary core charge=   -0.000006    0.000000

     Initial potential from superposition of free atoms

     starting charge    8.98437, renormalised to    9.00000
     Starting wfcs are    8 randomized atomic wfcs +    1 random wfcs

     total cpu time spent up to now is        1.2 secs

     Self-consistent Calculation

     iteration #  1     ecut=    50.00 Ry     beta= 0.70
     Davidson diagonalization with overlap
     ethr =  1.00E-02,  avg # of iterations =  7.2

     Threshold (ethr) on eigenvalues was too large:
     Diagonalizing with lowered threshold

     Davidson diagonalization with overlap
     ethr =  1.24E-05,  avg # of iterations =  6.8

     total cpu time spent up to now is        3.0 secs

     total energy              =     -58.74157737 Ry
     Harris-Foulkes estimate   =     -58.74214011 Ry
     estimated scf accuracy    <       0.00111662 Ry

     iteration #  2     ecut=    50.00 Ry     beta= 0.70
     Davidson diagonalization with overlap
     ethr =  1.24E-05,  avg # of iterations =  2.0

     total cpu time spent up to now is        3.5 secs

     total energy              =     -58.74177422 Ry
     Harris-Foulkes estimate   =     -58.74179141 Ry
     estimated scf accuracy    <       0.00008848 Ry

     iteration #  3     ecut=    50.00 Ry     beta= 0.70
     Davidson diagonalization with overlap
     ethr =  9.83E-07,  avg # of iterations =  1.8

     total cpu time spent up to now is        3.9 secs

     total energy              =     -58.74178302 Ry
     Harris-Foulkes estimate   =     -58.74178226 Ry
     estimated scf accuracy    <       0.00000559 Ry

     iteration #  4     ecut=    50.00 Ry     beta= 0.70
     Davidson diagonalization with overlap
     ethr =  6.21E-08,  avg # of iterations =  1.4

     total cpu time spent up to now is        4.2 secs

     total energy              =     -58.74178359 Ry
     Harris-Foulkes estimate   =     -58.74178359 Ry
     estimated scf accuracy    <       0.00000003 Ry

     iteration #  5     ecut=    50.00 Ry     beta= 0.70
     Davidson diagonalization with overlap
     ethr =  3.86E-10,  avg # of iterations =  2.1

     total cpu time spent up to now is        4.6 secs

     End of self-consistent calculation

          k = 0.0000 0.0000 0.0000 (  2899 PWs)   bands (ev):

   -30.0965 -13.7348 -13.7348 -13.7348  -0.4764   5.9299   5.9299   6.8765
     6.8766

          k = 0.0000-0.1667 0.1667 (  2884 PWs)   bands (ev):

   -30.0952 -13.7551 -13.7415 -13.7348  -0.1231   5.3552   5.5704   6.2136
     6.6305

          k = 0.0000-0.3333 0.3333 (  2870 PWs)   bands (ev):

   -30.0926 -13.7949 -13.7549 -13.7347   0.8682   3.9023   5.0452   6.7067
     6.9688

          k = 0.0000 0.5000-0.5000 (  2856 PWs)   bands (ev):

   -30.0913 -13.8145 -13.7615 -13.7347   2.1435   2.4887   4.8359   6.5336
     7.3597

          k =-0.1667-0.1667 0.3333 (  2854 PWs)   bands (ev):

   -30.0933 -13.7821 -13.7498 -13.7394   0.5514   4.5557   4.9198   6.5142
     6.6134

          k =-0.1667 0.6667-0.5000 (  2872 PWs)   bands (ev):

   -30.0913 -13.8044 -13.7656 -13.7410   1.7706   3.2647   4.4364   6.3542
     7.0080

          k =-0.3333 0.6667-0.3333 (  2868 PWs)   bands (ev):

   -30.0907 -13.7897 -13.7897 -13.7448   2.9762   2.9762   3.3022   6.2476
     7.0187

          k = 0.0000 0.0000 0.3333 (  2875 PWs)   bands (ev):

   -30.0940 -13.7587 -13.7485 -13.7485   0.2204   5.4569   5.4569   5.4656
     6.3329

          k = 0.0000-0.1667 0.5000 (  2856 PWs)   bands (ev):

   -30.0915 -13.7913 -13.7623 -13.7501   1.1838   4.0442   5.1103   5.5976
     6.9434

          k = 0.0000 0.6667-0.3333 (  2834 PWs)   bands (ev):

   -30.0903 -13.8089 -13.7692 -13.7492   2.5000   2.6361   4.9465   5.4366
     6.9586

          k =-0.1667 0.8333-0.3333 (  2852 PWs)   bands (ev):

   -30.0898 -13.7991 -13.7813 -13.7553   2.3157   3.4578   4.1428   5.9593
     6.4100

          k = 0.6667-0.6667 0.3333 (  2878 PWs)   bands (ev):

   -30.0919 -13.7976 -13.7526 -13.7526   1.4909   4.0007   4.0007   6.0848
     7.2205

          k = 0.5000-0.5000 0.3333 (  2866 PWs)   bands (ev):

   -30.0911 -13.7938 -13.7706 -13.7539   2.8137   2.8194   3.8185   5.3879
     7.3220

          k = 0.0000 0.0000 0.6667 (  2855 PWs)   bands (ev):

   -30.0894 -13.7873 -13.7772 -13.7772   2.0411   3.9453   5.1738   5.1738
     5.7577

          k = 0.0000 0.8333-0.1667 (  2846 PWs)   bands (ev):

   -30.0883 -13.7978 -13.7846 -13.7780   3.0509   3.2529   4.7483   5.1710
     5.9423

          k = 0.0000 0.0000-1.0000 (  2844 PWs)   bands (ev):

   -30.0873 -13.7922 -13.7922 -13.7922   3.4018   5.2835   5.2836   5.2836
     7.2564

     the Fermi energy is     1.7555 ev

!    total energy              =     -58.74178360 Ry
     Harris-Foulkes estimate   =     -58.74178360 Ry
     estimated scf accuracy    <          8.9E-10 Ry

     The total energy is the sum of the following terms:

     one-electron contribution =     -36.65304648 Ry
     hartree contribution      =      18.82607033 Ry
     xc contribution           =     -11.01722247 Ry
     ewald contribution        =     -29.89633978 Ry
     smearing contrib. (-TS)   =      -0.00124521 Ry

     convergence has been achieved in   5 iterations

     Forces acting on atoms (cartesian axes, Ry/au):

     atom    1 type  1   force =     0.00000000    0.00000000    0.00000000

     Total force =     0.000000     Total SCF correction =     0.000000


     Computing stress (Cartesian axis) and pressure

          total   stress  (Ry/bohr**3)                   (kbar)     P=   -4.34
  -0.00002954   0.00000000   0.00000000         -4.34      0.00      0.00
   0.00000000  -0.00002954  -0.00000000          0.00     -4.34     -0.00
   0.00000000  -0.00000000  -0.00002954          0.00     -0.00     -4.34


     Writing output data file K.save/

     init_run     :      0.38s CPU      0.40s WALL (       1 calls)
     electrons    :      3.31s CPU      3.46s WALL (       1 calls)
     forces       :      0.08s CPU      0.08s WALL (       1 calls)
     stress       :      0.29s CPU      0.29s WALL (       1 calls)

     Called by init_run:
     wfcinit      :      0.15s CPU      0.16s WALL (       1 calls)
     potinit      :      0.01s CPU      0.02s WALL (       1 calls)
     hinit0       :      0.17s CPU      0.17s WALL (       1 calls)

     Called by electrons:
     c_bands      :      2.60s CPU      2.73s WALL (       6 calls)
     sum_band     :      0.56s CPU      0.59s WALL (       6 calls)
     v_of_rho     :      0.02s CPU      0.02s WALL (       6 calls)
     newd         :      0.14s CPU      0.15s WALL (       6 calls)
     mix_rho      :      0.01s CPU      0.01s WALL (       6 calls)

     Called by c_bands:
     init_us_2    :      0.09s CPU      0.10s WALL (     240 calls)
     cegterg      :      2.49s CPU      2.61s WALL (      96 calls)

     Called by sum_band:
     sum_band:bec :      0.00s CPU      0.00s WALL (      96 calls)
     addusdens    :      0.13s CPU      0.13s WALL (       6 calls)

     Called by *egterg:
     h_psi        :      1.98s CPU      2.09s WALL (     453 calls)
     s_psi        :      0.06s CPU      0.06s WALL (     453 calls)
     g_psi        :      0.01s CPU      0.01s WALL (     341 calls)
     cdiaghg      :      0.13s CPU      0.13s WALL (     421 calls)

     Called by h_psi:
     h_psi:pot    :      1.97s CPU      2.08s WALL (     453 calls)
     h_psi:calbec :      0.14s CPU      0.15s WALL (     453 calls)
     vloc_psi     :      1.75s CPU      1.86s WALL (     453 calls)
     add_vuspsi   :      0.07s CPU      0.07s WALL (     453 calls)

     General routines
     calbec       :      0.21s CPU      0.22s WALL (     629 calls)
     fft          :      0.02s CPU      0.02s WALL (      34 calls)
     ffts         :      0.00s CPU      0.00s WALL (       6 calls)
     fftw         :      1.94s CPU      2.05s WALL (    5858 calls)

     Parallel routines
     fft_scatt_xy :      0.14s CPU      0.15s WALL (    5898 calls)
     fft_scatt_yz :      0.69s CPU      0.73s WALL (    5898 calls)

     PWSCF        :     4.84s CPU         5.07s WALL


   This run was terminated on:   0:35:23   8Apr2024            

=------------------------------------------------------------------------------=
   JOB DONE.
=------------------------------------------------------------------------------=
