
     Program PWSCF v.6.3MaX starts on  8Apr2024 at  1: 1:30 

     This program is part of the open-source Quantum ESPRESSO suite
     for quantum simulation of materials; please cite
         "P. Giannozzi et al., J. Phys.:Condens. Matter 21 395502 (2009);
         "P. Giannozzi et al., J. Phys.:Condens. Matter 29 465901 (2017);
          URL http://www.quantum-espresso.org", 
     in publications or presentations arising from this work. More details at
     http://www.quantum-espresso.org/quote

     Parallel version (MPI), running on     5 processors

     MPI processes distributed on     1 nodes
     R & G space division:  proc/nbgrp/npool/nimage =       5
     Waiting for input...
     Reading input from standard input

     Current dimensions of program PWSCF are:
     Max number of different atomic species (ntypx) = 10
     Max number of k-points (npk) =  40000
     Max angular momentum in pseudopotentials (lmaxx) =  3
               file K.pbe-spn-rrkjus_psl.1.0.0.UPF: wavefunction(s)  3S renormalized

     Subspace diagonalization in iterative solution of the eigenvalue problem:
     a serial algorithm will be used


     Parallelization info
     --------------------
     sticks:   dense  smooth     PW     G-vecs:    dense   smooth      PW
     Min         330     330     94                 8429     8429    1305
     Max         331     331     95                 8430     8430    1307
     Sum        1653    1653    471                42147    42147    6531



     bravais-lattice index     =            3
     lattice parameter (alat)  =       9.8600  a.u.
     unit-cell volume          =     479.2926 (a.u.)^3
     number of atoms/cell      =            1
     number of atomic types    =            1
     number of electrons       =         9.00
     number of Kohn-Sham states=            9
     kinetic-energy cutoff     =      75.0000  Ry
     charge density cutoff     =     300.0000  Ry
     convergence threshold     =      1.0E-08
     mixing beta               =       0.7000
     number of iterations used =            8  plain     mixing
     Exchange-correlation      = PBE ( 1  4  3  4 0 0)

     celldm(1)=   9.860000  celldm(2)=   0.000000  celldm(3)=   0.000000
     celldm(4)=   0.000000  celldm(5)=   0.000000  celldm(6)=   0.000000

     crystal axes: (cart. coord. in units of alat)
               a(1) = (   0.500000   0.500000   0.500000 )  
               a(2) = (  -0.500000   0.500000   0.500000 )  
               a(3) = (  -0.500000  -0.500000   0.500000 )  

     reciprocal axes: (cart. coord. in units 2 pi/alat)
               b(1) = (  1.000000  0.000000  1.000000 )  
               b(2) = ( -1.000000  1.000000  0.000000 )  
               b(3) = (  0.000000 -1.000000  1.000000 )  


     PseudoPot. # 1 for K  read from file:
     /home/lorenzo/pseudos/K/K.pbe-spn-rrkjus_psl.1.0.0.UPF
     MD5 check sum: 897b700350bb708b0563e904352feb48
     Pseudo is Ultrasoft + core correction, Zval =  9.0
     Generated using "atomic" code by A. Dal Corso v.6.2.2
     Using radial grid of 1165 points,  6 beta functions with: 
                l(1) =   0
                l(2) =   0
                l(3) =   1
                l(4) =   1
                l(5) =   2
                l(6) =   2
     Q(r) pseudized with 0 coefficients 


     atomic species   valence    mass     pseudopotential
        K              9.00    39.09830     K ( 1.00)

     48 Sym. Ops., with inversion, found



   Cartesian axes

     site n.     atom                  positions (alat units)
         1           K   tau(   1) = (   0.0000000   0.0000000   0.0000000  )

     number of k points=    56  gaussian smearing, width (Ry)=  0.0100
                       cart. coord. in units 2pi/alat
        k(    1) = (   0.0000000   0.0000000   0.0000000), wk =   0.0015026
        k(    2) = (   0.0000000  -0.0909091   0.0909091), wk =   0.0180316
        k(    3) = (   0.0000000  -0.1818182   0.1818182), wk =   0.0180316
        k(    4) = (   0.0000000  -0.2727273   0.2727273), wk =   0.0180316
        k(    5) = (   0.0000000  -0.3636364   0.3636364), wk =   0.0180316
        k(    6) = (   0.0000000  -0.4545455   0.4545455), wk =   0.0180316
        k(    7) = (  -0.0909091  -0.0909091   0.1818182), wk =   0.0360631
        k(    8) = (  -0.0909091  -0.1818182   0.2727273), wk =   0.0721262
        k(    9) = (  -0.0909091  -0.2727273   0.3636364), wk =   0.0721262
        k(   10) = (  -0.0909091  -0.3636364   0.4545455), wk =   0.0721262
        k(   11) = (  -0.0909091   0.5454545  -0.4545455), wk =   0.0360631
        k(   12) = (  -0.1818182  -0.1818182   0.3636364), wk =   0.0360631
        k(   13) = (  -0.1818182  -0.2727273   0.4545455), wk =   0.0721262
        k(   14) = (  -0.1818182   0.6363636  -0.4545455), wk =   0.0721262
        k(   15) = (  -0.2727273   0.7272727  -0.4545455), wk =   0.0360631
        k(   16) = (  -0.2727273   0.6363636  -0.3636364), wk =   0.0360631
        k(   17) = (   0.0000000   0.0000000   0.1818182), wk =   0.0090158
        k(   18) = (   0.0000000  -0.0909091   0.2727273), wk =   0.0360631
        k(   19) = (   0.0000000  -0.1818182   0.3636364), wk =   0.0360631
        k(   20) = (   0.0000000  -0.2727273   0.4545455), wk =   0.0360631
        k(   21) = (   0.0000000  -0.3636364   0.5454545), wk =   0.0360631
        k(   22) = (  -0.0909091  -0.0909091   0.3636364), wk =   0.0360631
        k(   23) = (  -0.0909091  -0.1818182   0.4545455), wk =   0.0721262
        k(   24) = (  -0.0909091  -0.2727273   0.5454545), wk =   0.0721262
        k(   25) = (  -0.0909091   0.6363636  -0.3636364), wk =   0.0360631
        k(   26) = (  -0.1818182   0.1818182   0.1818182), wk =   0.0120210
        k(   27) = (  -0.1818182  -0.1818182   0.5454545), wk =   0.0360631
        k(   28) = (  -0.1818182   0.7272727  -0.3636364), wk =   0.0721262
        k(   29) = (  -0.2727273   0.2727273   0.1818182), wk =   0.0360631
        k(   30) = (  -0.2727273   0.7272727  -0.2727273), wk =   0.0120210
        k(   31) = (  -0.3636364   0.3636364   0.1818182), wk =   0.0360631
        k(   32) = (  -0.3636364   0.2727273   0.2727273), wk =   0.0360631
        k(   33) = (   0.5454545  -0.5454545   0.1818182), wk =   0.0360631
        k(   34) = (   0.5454545  -0.6363636   0.2727273), wk =   0.0721262
        k(   35) = (   0.4545455  -0.5454545   0.2727273), wk =   0.0360631
        k(   36) = (   0.4545455  -0.6363636   0.3636364), wk =   0.0360631
        k(   37) = (   0.0000000   0.0000000   0.3636364), wk =   0.0090158
        k(   38) = (   0.0000000  -0.0909091   0.4545455), wk =   0.0360631
        k(   39) = (   0.0000000  -0.1818182   0.5454545), wk =   0.0360631
        k(   40) = (   0.0000000  -0.2727273   0.6363636), wk =   0.0360631
        k(   41) = (  -0.0909091  -0.0909091   0.5454545), wk =   0.0360631
        k(   42) = (  -0.0909091  -0.1818182   0.6363636), wk =   0.0721262
        k(   43) = (  -0.0909091   0.7272727  -0.2727273), wk =   0.0360631
        k(   44) = (  -0.1818182   0.8181818  -0.2727273), wk =   0.0360631
        k(   45) = (   0.6363636  -0.6363636   0.3636364), wk =   0.0120210
        k(   46) = (   0.5454545  -0.5454545   0.3636364), wk =   0.0360631
        k(   47) = (   0.4545455  -0.5454545   0.4545455), wk =   0.0120210
        k(   48) = (   0.0000000   0.0000000   0.5454545), wk =   0.0090158
        k(   49) = (   0.0000000  -0.0909091   0.6363636), wk =   0.0360631
        k(   50) = (   0.0000000  -0.1818182   0.7272727), wk =   0.0360631
        k(   51) = (  -0.0909091  -0.0909091   0.7272727), wk =   0.0360631
        k(   52) = (  -0.0909091   0.8181818  -0.1818182), wk =   0.0360631
        k(   53) = (   0.0000000   0.0000000   0.7272727), wk =   0.0090158
        k(   54) = (   0.0000000  -0.0909091   0.8181818), wk =   0.0360631
        k(   55) = (  -0.0909091   0.9090909  -0.0909091), wk =   0.0120210
        k(   56) = (   0.0000000   0.0000000   0.9090909), wk =   0.0090158

     Dense  grid:    42147 G-vectors     FFT dimensions: (  48,  48,  48)

     Estimated max dynamical RAM per process >      41.64 MB

     Estimated total dynamical RAM >     208.19 MB

     Check: negative/imaginary core charge=   -0.000002    0.000000

     Initial potential from superposition of free atoms

     starting charge    8.98117, renormalised to    9.00000
     Starting wfcs are    8 randomized atomic wfcs +    1 random wfcs

     total cpu time spent up to now is        1.8 secs

     Self-consistent Calculation

     iteration #  1     ecut=    75.00 Ry     beta= 0.70
     Davidson diagonalization with overlap
     ethr =  1.00E-02,  avg # of iterations =  6.6

     Threshold (ethr) on eigenvalues was too large:
     Diagonalizing with lowered threshold

     Davidson diagonalization with overlap
     ethr =  1.43E-05,  avg # of iterations =  6.3

     total cpu time spent up to now is        8.7 secs

     total energy              =     -58.77386288 Ry
     Harris-Foulkes estimate   =     -58.77439376 Ry
     estimated scf accuracy    <       0.00127345 Ry

     iteration #  2     ecut=    75.00 Ry     beta= 0.70
     Davidson diagonalization with overlap
     ethr =  1.41E-05,  avg # of iterations =  2.2

     total cpu time spent up to now is       11.1 secs

     total energy              =     -58.77409794 Ry
     Harris-Foulkes estimate   =     -58.77410042 Ry
     estimated scf accuracy    <       0.00010189 Ry

     iteration #  3     ecut=    75.00 Ry     beta= 0.70
     Davidson diagonalization with overlap
     ethr =  1.13E-06,  avg # of iterations =  2.5

     total cpu time spent up to now is       13.2 secs

     total energy              =     -58.77410799 Ry
     Harris-Foulkes estimate   =     -58.77410533 Ry
     estimated scf accuracy    <       0.00000693 Ry

     iteration #  4     ecut=    75.00 Ry     beta= 0.70
     Davidson diagonalization with overlap
     ethr =  7.70E-08,  avg # of iterations =  1.7

     total cpu time spent up to now is       15.1 secs

     total energy              =     -58.77410859 Ry
     Harris-Foulkes estimate   =     -58.77410859 Ry
     estimated scf accuracy    <       0.00000005 Ry

     iteration #  5     ecut=    75.00 Ry     beta= 0.70
     Davidson diagonalization with overlap
     ethr =  5.40E-10,  avg # of iterations =  2.7

     total cpu time spent up to now is       17.5 secs

     End of self-consistent calculation

          k = 0.0000 0.0000 0.0000 (  5281 PWs)   bands (ev):

   -30.1652 -13.6137 -13.6137 -13.6137  -0.2616   6.2634   6.2634   6.2634
     7.1816

          k = 0.0000-0.0909 0.0909 (  5281 PWs)   bands (ev):

   -30.1648 -13.6199 -13.6158 -13.6137  -0.1560   6.1056   6.1292   6.3479
     7.0067

          k = 0.0000-0.1818 0.1818 (  5263 PWs)   bands (ev):

   -30.1637 -13.6364 -13.6213 -13.6137   0.1552   5.5092   5.8266   6.5984
     6.9430

          k = 0.0000-0.2727 0.2727 (  5251 PWs)   bands (ev):

   -30.1624 -13.6577 -13.6284 -13.6137   0.6542   4.6922   5.5091   7.0055
     7.0235

          k = 0.0000-0.3636 0.3636 (  5265 PWs)   bands (ev):

   -30.1611 -13.6772 -13.6350 -13.6137   1.3116   3.8307   5.2659   7.0101
     7.5528

          k = 0.0000-0.4545 0.4545 (  5252 PWs)   bands (ev):

   -30.1604 -13.6886 -13.6389 -13.6137   2.0793   2.9695   5.1367   6.8936
     7.5951

          k =-0.0909-0.0909 0.1818 (  5271 PWs)   bands (ev):

   -30.1641 -13.6313 -13.6180 -13.6152   0.0525   5.7673   5.8617   6.5071
     6.8348

          k =-0.0909-0.1818 0.2727 (  5250 PWs)   bands (ev):

   -30.1629 -13.6493 -13.6245 -13.6158   0.4579   5.0937   5.5120   6.7961
     6.8303

          k =-0.0909-0.2727 0.3636 (  5251 PWs)   bands (ev):

   -30.1616 -13.6684 -13.6325 -13.6160   1.0374   4.2846   5.2269   6.8604
     7.2083

          k =-0.0909-0.3636 0.4545 (  5246 PWs)   bands (ev):

   -30.1606 -13.6828 -13.6387 -13.6160   1.7552   3.4395   5.0433   6.7801
     7.5102

          k =-0.0909 0.5455-0.4545 (  5254 PWs)   bands (ev):

   -30.1602 -13.6881 -13.6411 -13.6160   2.4699   2.6849   4.9802   6.6994
     7.6768

          k =-0.1818-0.1818 0.3636 (  5245 PWs)   bands (ev):

   -30.1617 -13.6639 -13.6309 -13.6188   0.9447   4.6008   5.0472   6.8425
     6.9954

          k =-0.1818-0.2727 0.4545 (  5263 PWs)   bands (ev):

   -30.1607 -13.6754 -13.6400 -13.6200   1.5878   3.9404   4.7129   6.8057
     7.1248

          k =-0.1818 0.6364-0.4545 (  5261 PWs)   bands (ev):

   -30.1601 -13.6815 -13.6464 -13.6204   2.3439   3.1596   4.5540   6.6062
     7.4097

          k =-0.2727 0.7273-0.4545 (  5260 PWs)   bands (ev):

   -30.1600 -13.6760 -13.6512 -13.6223   2.2705   3.6178   4.1194   6.6915
     7.1075

          k =-0.2727 0.6364-0.3636 (  5254 PWs)   bands (ev):

   -30.1597 -13.6734 -13.6584 -13.6230   2.9847   3.0511   3.8830   6.5917
     7.2985

          k = 0.0000 0.0000 0.1818 (  5281 PWs)   bands (ev):

   -30.1644 -13.6217 -13.6178 -13.6178  -0.0512   6.0549   6.0549   6.3870
     6.5730

          k = 0.0000-0.0909 0.2727 (  5261 PWs)   bands (ev):

   -30.1634 -13.6365 -13.6234 -13.6188   0.2573   5.5413   5.8041   6.3587
     6.6111

          k = 0.0000-0.1818 0.3636 (  5244 PWs)   bands (ev):

   -30.1620 -13.6571 -13.6306 -13.6186   0.7521   4.7297   5.5157   6.4030
     7.0074

          k = 0.0000-0.2727 0.4545 (  5254 PWs)   bands (ev):

   -30.1608 -13.6759 -13.6373 -13.6183   1.4042   3.8833   5.2888   6.4114
     7.5138

          k = 0.0000-0.3636 0.5455 (  5256 PWs)   bands (ev):

   -30.1601 -13.6870 -13.6412 -13.6181   2.1687   3.0322   5.1672   6.3362
     7.5526

          k =-0.0909-0.0909 0.3636 (  5248 PWs)   bands (ev):

   -30.1622 -13.6504 -13.6296 -13.6223   0.6556   5.0510   5.4866   6.2359
     6.8663

          k =-0.0909-0.1818 0.4545 (  5255 PWs)   bands (ev):

   -30.1610 -13.6672 -13.6377 -13.6230   1.2249   4.3442   5.1718   6.2996
     7.1841

          k =-0.0909-0.2727 0.5455 (  5258 PWs)   bands (ev):

   -30.1600 -13.6801 -13.6442 -13.6229   1.9305   3.5525   4.9658   6.2596
     7.3011

          k =-0.0909 0.6364-0.3636 (  5261 PWs)   bands (ev):

   -30.1596 -13.6849 -13.6467 -13.6228   2.6778   2.7771   4.8928   6.1978
     7.4183

          k =-0.1818 0.1818 0.1818 (  5249 PWs)   bands (ev):

   -30.1632 -13.6469 -13.6183 -13.6183   0.3581   5.3658   5.3658   6.7254
     7.1434

          k =-0.1818-0.1818 0.5455 (  5269 PWs)   bands (ev):

   -30.1600 -13.6747 -13.6478 -13.6250   1.8489   3.9347   4.6134   6.4837
     6.9772

          k =-0.1818 0.7273-0.3636 (  5266 PWs)   bands (ev):

   -30.1594 -13.6778 -13.6560 -13.6254   2.5794   3.3349   4.2708   6.5319
     7.0890

          k =-0.2727 0.2727 0.1818 (  5260 PWs)   bands (ev):

   -30.1620 -13.6630 -13.6265 -13.6188   0.8495   4.6802   5.0337   6.9233
     7.2132

          k =-0.2727 0.7273-0.2727 (  5282 PWs)   bands (ev):

   -30.1592 -13.6688 -13.6688 -13.6260   3.1790   3.1790   3.7139   6.9514
     7.1659

          k =-0.3636 0.3636 0.1818 (  5259 PWs)   bands (ev):

   -30.1609 -13.6759 -13.6358 -13.6192   1.4983   3.9105   4.8037   6.8411
     7.4220

          k =-0.3636 0.2727 0.2727 (  5259 PWs)   bands (ev):

   -30.1611 -13.6725 -13.6326 -13.6233   1.4113   4.2627   4.5527   6.7293
     7.3323

          k = 0.5455-0.5455 0.1818 (  5256 PWs)   bands (ev):

   -30.1603 -13.6829 -13.6419 -13.6194   2.2596   3.0963   4.6866   6.6195
     7.6524

          k = 0.5455-0.6364 0.2727 (  5254 PWs)   bands (ev):

   -30.1604 -13.6760 -13.6427 -13.6250   2.1077   3.6370   4.3022   6.3390
     7.4686

          k = 0.4545-0.5455 0.2727 (  5242 PWs)   bands (ev):

   -30.1601 -13.6760 -13.6480 -13.6254   2.8719   2.8873   4.2299   6.1660
     7.5736

          k = 0.4545-0.6364 0.3636 (  5237 PWs)   bands (ev):

   -30.1600 -13.6690 -13.6543 -13.6280   2.8077   3.4067   3.7649   5.9742
     7.5555

          k = 0.0000 0.0000 0.3636 (  5257 PWs)   bands (ev):

   -30.1624 -13.6399 -13.6291 -13.6291   0.5578   5.5269   5.6951   5.6951
     6.7414

          k = 0.0000-0.0909 0.4545 (  5253 PWs)   bands (ev):

   -30.1611 -13.6556 -13.6366 -13.6312   1.0393   4.7926   5.5126   5.7571
     7.0660

          k = 0.0000-0.1818 0.5455 (  5260 PWs)   bands (ev):

   -30.1600 -13.6724 -13.6434 -13.6306   1.6729   4.0176   5.3442   5.7434
     7.1237

          k = 0.0000-0.2727 0.6364 (  5263 PWs)   bands (ev):

   -30.1593 -13.6825 -13.6474 -13.6300   2.4175   3.2188   5.2483   5.6214
     7.1667

          k =-0.0909-0.0909 0.5455 (  5281 PWs)   bands (ev):

   -30.1600 -13.6661 -13.6453 -13.6348   1.5857   4.3334   5.1595   5.8391
     6.9180

          k =-0.0909-0.1818 0.6364 (  5264 PWs)   bands (ev):

   -30.1591 -13.6758 -13.6528 -13.6348   2.2583   3.7292   4.8162   5.9234
     6.8016

          k =-0.0909 0.7273-0.2727 (  5259 PWs)   bands (ev):

   -30.1587 -13.6795 -13.6556 -13.6346   2.9591   3.0478   4.6891   5.9017
     6.9201

          k =-0.1818 0.8182-0.2727 (  5262 PWs)   bands (ev):

   -30.1585 -13.6740 -13.6639 -13.6355   2.9160   3.4617   4.1850   6.3117
     6.6329

          k = 0.6364-0.6364 0.3636 (  5243 PWs)   bands (ev):

   -30.1605 -13.6737 -13.6342 -13.6342   2.0271   4.0398   4.0398   6.1005
     7.6293

          k = 0.5455-0.5455 0.3636 (  5239 PWs)   bands (ev):

   -30.1601 -13.6687 -13.6464 -13.6351   2.7358   3.4458   3.9297   5.6272
     7.6869

          k = 0.4545-0.5455 0.4545 (  5237 PWs)   bands (ev):

   -30.1600 -13.6562 -13.6562 -13.6402   3.3023   3.3023   3.5909   5.3026
     7.7595

          k = 0.0000 0.0000 0.5455 (  5266 PWs)   bands (ev):

   -30.1599 -13.6570 -13.6443 -13.6443   1.4965   4.6117   5.4686   5.4686
     6.7826

          k = 0.0000-0.0909 0.6364 (  5259 PWs)   bands (ev):

   -30.1589 -13.6681 -13.6514 -13.6463   2.0914   4.1100   5.3776   5.4004
     6.4286

          k = 0.0000-0.1818 0.7273 (  5254 PWs)   bands (ev):

   -30.1582 -13.6767 -13.6556 -13.6455   2.7708   3.4900   5.1502   5.3522
     6.5696

          k =-0.0909-0.0909 0.7273 (  5265 PWs)   bands (ev):

   -30.1580 -13.6721 -13.6601 -13.6486   2.6929   3.7867   4.8643   5.7152
     6.2291

          k =-0.0909 0.8182-0.1818 (  5260 PWs)   bands (ev):

   -30.1577 -13.6737 -13.6643 -13.6484   3.2171   3.4086   4.6059   5.8131
     6.2981

          k = 0.0000 0.0000 0.7273 (  5250 PWs)   bands (ev):

   -30.1578 -13.6661 -13.6587 -13.6587   2.6137   3.9689   5.4334   5.4334
     5.7867

          k = 0.0000-0.0909 0.8182 (  5276 PWs)   bands (ev):

   -30.1572 -13.6714 -13.6631 -13.6596   3.1562   3.6662   5.1345   5.4442
     5.9376

          k =-0.0909 0.9091-0.0909 (  5261 PWs)   bands (ev):

   -30.1569 -13.6692 -13.6692 -13.6606   3.4973   3.4973   4.9777   5.7413
     5.7413

          k = 0.0000 0.0000 0.9091 (  5254 PWs)   bands (ev):

   -30.1566 -13.6686 -13.6675 -13.6675   3.4782   3.6407   5.4819   5.4965
     5.4965

     the Fermi energy is     1.9689 ev

!    total energy              =     -58.77410861 Ry
     Harris-Foulkes estimate   =     -58.77410861 Ry
     estimated scf accuracy    <          1.4E-09 Ry

     The total energy is the sum of the following terms:

     one-electron contribution =     -36.58801336 Ry
     hartree contribution      =      18.88051180 Ry
     xc contribution           =     -11.16982689 Ry
     ewald contribution        =     -29.89633970 Ry
     smearing contrib. (-TS)   =      -0.00044046 Ry

     convergence has been achieved in   5 iterations

     Forces acting on atoms (cartesian axes, Ry/au):

     atom    1 type  1   force =     0.00000000    0.00000000    0.00000000

     Total force =     0.000000     Total SCF correction =     0.000000


     Computing stress (Cartesian axis) and pressure

          total   stress  (Ry/bohr**3)                   (kbar)     P=    1.31
   0.00000893  -0.00000000   0.00000000          1.31     -0.00      0.00
  -0.00000000   0.00000893  -0.00000000         -0.00      1.31     -0.00
   0.00000000  -0.00000000   0.00000893          0.00     -0.00      1.31


     Writing output data file K.save/

     init_run     :      1.05s CPU      1.10s WALL (       1 calls)
     electrons    :     15.13s CPU     15.71s WALL (       1 calls)
     forces       :      0.26s CPU      0.27s WALL (       1 calls)
     stress       :      1.03s CPU      1.03s WALL (       1 calls)

     Called by init_run:
     wfcinit      :      0.71s CPU      0.74s WALL (       1 calls)
     potinit      :      0.03s CPU      0.04s WALL (       1 calls)
     hinit0       :      0.22s CPU      0.22s WALL (       1 calls)

     Called by electrons:
     c_bands      :     12.65s CPU     13.13s WALL (       6 calls)
     sum_band     :      2.15s CPU      2.23s WALL (       6 calls)
     v_of_rho     :      0.13s CPU      0.13s WALL (       6 calls)
     newd         :      0.24s CPU      0.25s WALL (       6 calls)
     mix_rho      :      0.01s CPU      0.01s WALL (       6 calls)

     Called by c_bands:
     init_us_2    :      0.52s CPU      0.52s WALL (     840 calls)
     cegterg      :     12.00s CPU     12.48s WALL (     336 calls)

     Called by sum_band:
     sum_band:bec :      0.00s CPU      0.00s WALL (     336 calls)
     addusdens    :      0.23s CPU      0.23s WALL (       6 calls)

     Called by *egterg:
     h_psi        :      9.89s CPU     10.35s WALL (    1622 calls)
     s_psi        :      0.34s CPU      0.35s WALL (    1622 calls)
     g_psi        :      0.04s CPU      0.04s WALL (    1230 calls)
     cdiaghg      :      0.39s CPU      0.40s WALL (    1510 calls)

     Called by h_psi:
     h_psi:pot    :      9.81s CPU     10.28s WALL (    1622 calls)
     h_psi:calbec :      0.65s CPU      0.67s WALL (    1622 calls)
     vloc_psi     :      8.75s CPU      9.18s WALL (    1622 calls)
     add_vuspsi   :      0.39s CPU      0.40s WALL (    1622 calls)

     General routines
     calbec       :      1.01s CPU      1.05s WALL (    2238 calls)
     fft          :      0.08s CPU      0.09s WALL (      93 calls)
     ffts         :      0.00s CPU      0.00s WALL (       6 calls)
     fftw         :      9.37s CPU      9.83s WALL (   20794 calls)

     Parallel routines
     fft_scatt_xy :      0.77s CPU      0.81s WALL (   20893 calls)
     fft_scatt_yz :      2.36s CPU      2.48s WALL (   20893 calls)

     PWSCF        :    18.22s CPU        18.98s WALL


   This run was terminated on:   1: 1:49   8Apr2024            

=------------------------------------------------------------------------------=
   JOB DONE.
=------------------------------------------------------------------------------=
