
     Program PWSCF v.6.3MaX starts on  8Apr2024 at  0:32:19 

     This program is part of the open-source Quantum ESPRESSO suite
     for quantum simulation of materials; please cite
         "P. Giannozzi et al., J. Phys.:Condens. Matter 21 395502 (2009);
         "P. Giannozzi et al., J. Phys.:Condens. Matter 29 465901 (2017);
          URL http://www.quantum-espresso.org", 
     in publications or presentations arising from this work. More details at
     http://www.quantum-espresso.org/quote

     Parallel version (MPI), running on     5 processors

     MPI processes distributed on     1 nodes
     R & G space division:  proc/nbgrp/npool/nimage =       5
     Waiting for input...
     Reading input from standard input

     Current dimensions of program PWSCF are:
     Max number of different atomic species (ntypx) = 10
     Max number of k-points (npk) =  40000
     Max angular momentum in pseudopotentials (lmaxx) =  3
               file K.pz-spn-rrkjus_psl.1.0.0.UPF: wavefunction(s)  3S renormalized

     Subspace diagonalization in iterative solution of the eigenvalue problem:
     a serial algorithm will be used


     Parallelization info
     --------------------
     sticks:   dense  smooth     PW     G-vecs:    dense   smooth      PW
     Min         196     196     56                 3895     3895     619
     Max         197     197     57                 3897     3897     622
     Sum         981     981    283                19477    19477    3103



     bravais-lattice index     =            3
     lattice parameter (alat)  =       9.8600  a.u.
     unit-cell volume          =     479.2926 (a.u.)^3
     number of atoms/cell      =            1
     number of atomic types    =            1
     number of electrons       =         9.00
     number of Kohn-Sham states=            9
     kinetic-energy cutoff     =      45.0000  Ry
     charge density cutoff     =     180.0000  Ry
     convergence threshold     =      1.0E-08
     mixing beta               =       0.7000
     number of iterations used =            8  plain     mixing
     Exchange-correlation      = LDA ( 1  1  0  0 0 0)

     celldm(1)=   9.860000  celldm(2)=   0.000000  celldm(3)=   0.000000
     celldm(4)=   0.000000  celldm(5)=   0.000000  celldm(6)=   0.000000

     crystal axes: (cart. coord. in units of alat)
               a(1) = (   0.500000   0.500000   0.500000 )  
               a(2) = (  -0.500000   0.500000   0.500000 )  
               a(3) = (  -0.500000  -0.500000   0.500000 )  

     reciprocal axes: (cart. coord. in units 2 pi/alat)
               b(1) = (  1.000000  0.000000  1.000000 )  
               b(2) = ( -1.000000  1.000000  0.000000 )  
               b(3) = (  0.000000 -1.000000  1.000000 )  


     PseudoPot. # 1 for K  read from file:
     /home/lorenzo/pseudos/K/K.pz-spn-rrkjus_psl.1.0.0.UPF
     MD5 check sum: af434a66a3b91719abff201b8f79bb09
     Pseudo is Ultrasoft + core correction, Zval =  9.0
     Generated using "atomic" code by A. Dal Corso v.6.2.2
     Using radial grid of 1165 points,  6 beta functions with: 
                l(1) =   0
                l(2) =   0
                l(3) =   1
                l(4) =   1
                l(5) =   2
                l(6) =   2
     Q(r) pseudized with 0 coefficients 


     atomic species   valence    mass     pseudopotential
        K              9.00    39.09830     K ( 1.00)

     48 Sym. Ops., with inversion, found



   Cartesian axes

     site n.     atom                  positions (alat units)
         1           K   tau(   1) = (   0.0000000   0.0000000   0.0000000  )

     number of k points=    35  gaussian smearing, width (Ry)=  0.0100
                       cart. coord. in units 2pi/alat
        k(    1) = (   0.0000000   0.0000000   0.0000000), wk =   0.0027435
        k(    2) = (   0.0000000  -0.1111111   0.1111111), wk =   0.0329218
        k(    3) = (   0.0000000  -0.2222222   0.2222222), wk =   0.0329218
        k(    4) = (   0.0000000  -0.3333333   0.3333333), wk =   0.0329218
        k(    5) = (   0.0000000  -0.4444444   0.4444444), wk =   0.0329218
        k(    6) = (  -0.1111111  -0.1111111   0.2222222), wk =   0.0658436
        k(    7) = (  -0.1111111  -0.2222222   0.3333333), wk =   0.1316872
        k(    8) = (  -0.1111111  -0.3333333   0.4444444), wk =   0.1316872
        k(    9) = (  -0.1111111   0.5555556  -0.4444444), wk =   0.0658436
        k(   10) = (  -0.2222222  -0.2222222   0.4444444), wk =   0.0658436
        k(   11) = (  -0.2222222   0.6666667  -0.4444444), wk =   0.1316872
        k(   12) = (  -0.3333333   0.6666667  -0.3333333), wk =   0.0219479
        k(   13) = (   0.0000000   0.0000000   0.2222222), wk =   0.0164609
        k(   14) = (   0.0000000  -0.1111111   0.3333333), wk =   0.0658436
        k(   15) = (   0.0000000  -0.2222222   0.4444444), wk =   0.0658436
        k(   16) = (   0.0000000  -0.3333333   0.5555556), wk =   0.0658436
        k(   17) = (  -0.1111111  -0.1111111   0.4444444), wk =   0.0658436
        k(   18) = (  -0.1111111  -0.2222222   0.5555556), wk =   0.1316872
        k(   19) = (  -0.1111111   0.6666667  -0.3333333), wk =   0.0658436
        k(   20) = (  -0.2222222   0.2222222   0.2222222), wk =   0.0219479
        k(   21) = (  -0.2222222   0.7777778  -0.3333333), wk =   0.0658436
        k(   22) = (  -0.3333333   0.3333333   0.2222222), wk =   0.0658436
        k(   23) = (   0.5555556  -0.5555556   0.2222222), wk =   0.0658436
        k(   24) = (   0.5555556  -0.6666667   0.3333333), wk =   0.0658436
        k(   25) = (   0.4444444  -0.5555556   0.3333333), wk =   0.0658436
        k(   26) = (   0.0000000   0.0000000   0.4444444), wk =   0.0164609
        k(   27) = (   0.0000000  -0.1111111   0.5555556), wk =   0.0658436
        k(   28) = (   0.0000000  -0.2222222   0.6666667), wk =   0.0658436
        k(   29) = (  -0.1111111  -0.1111111   0.6666667), wk =   0.0658436
        k(   30) = (  -0.1111111   0.7777778  -0.2222222), wk =   0.0658436
        k(   31) = (   0.5555556  -0.5555556   0.4444444), wk =   0.0219479
        k(   32) = (   0.0000000   0.0000000   0.6666667), wk =   0.0164609
        k(   33) = (   0.0000000  -0.1111111   0.7777778), wk =   0.0658436
        k(   34) = (  -0.1111111   0.8888889  -0.1111111), wk =   0.0219479
        k(   35) = (   0.0000000   0.0000000   0.8888889), wk =   0.0164609

     Dense  grid:    19477 G-vectors     FFT dimensions: (  40,  40,  40)

     Estimated max dynamical RAM per process >      18.69 MB

     Estimated total dynamical RAM >      93.44 MB

     Check: negative/imaginary core charge=   -0.000011    0.000000

     Initial potential from superposition of free atoms

     starting charge    8.98437, renormalised to    9.00000
     Starting wfcs are    8 randomized atomic wfcs +    1 random wfcs

     total cpu time spent up to now is        1.2 secs

     Self-consistent Calculation

     iteration #  1     ecut=    45.00 Ry     beta= 0.70
     Davidson diagonalization with overlap
     ethr =  1.00E-02,  avg # of iterations =  6.5

     Threshold (ethr) on eigenvalues was too large:
     Diagonalizing with lowered threshold

     Davidson diagonalization with overlap
     ethr =  1.25E-05,  avg # of iterations =  7.1

     total cpu time spent up to now is        3.6 secs

     total energy              =     -58.74229848 Ry
     Harris-Foulkes estimate   =     -58.74286753 Ry
     estimated scf accuracy    <       0.00113417 Ry

     iteration #  2     ecut=    45.00 Ry     beta= 0.70
     Davidson diagonalization with overlap
     ethr =  1.26E-05,  avg # of iterations =  2.1

     total cpu time spent up to now is        4.4 secs

     total energy              =     -58.74249767 Ry
     Harris-Foulkes estimate   =     -58.74251522 Ry
     estimated scf accuracy    <       0.00008954 Ry

     iteration #  3     ecut=    45.00 Ry     beta= 0.70
     Davidson diagonalization with overlap
     ethr =  9.95E-07,  avg # of iterations =  1.6

     total cpu time spent up to now is        5.1 secs

     total energy              =     -58.74250661 Ry
     Harris-Foulkes estimate   =     -58.74250583 Ry
     estimated scf accuracy    <       0.00000569 Ry

     iteration #  4     ecut=    45.00 Ry     beta= 0.70
     Davidson diagonalization with overlap
     ethr =  6.33E-08,  avg # of iterations =  1.5

     total cpu time spent up to now is        5.8 secs

     total energy              =     -58.74250715 Ry
     Harris-Foulkes estimate   =     -58.74250714 Ry
     estimated scf accuracy    <       0.00000003 Ry

     iteration #  5     ecut=    45.00 Ry     beta= 0.70
     Davidson diagonalization with overlap
     ethr =  3.82E-10,  avg # of iterations =  2.1

     total cpu time spent up to now is        6.5 secs

     End of self-consistent calculation

          k = 0.0000 0.0000 0.0000 (  2491 PWs)   bands (ev):

   -30.0980 -13.7359 -13.7359 -13.7359  -0.4765   5.9299   5.9299   6.8755
     6.8755

          k = 0.0000-0.1111 0.1111 (  2443 PWs)   bands (ev):

   -30.0973 -13.7452 -13.7389 -13.7357  -0.3181   5.7026   5.7493   6.0568
     6.6702

          k = 0.0000-0.2222 0.2222 (  2441 PWs)   bands (ev):

   -30.0957 -13.7691 -13.7469 -13.7357   0.1437   4.9048   5.3782   6.4299
     6.6613

          k = 0.0000-0.3333 0.3333 (  2431 PWs)   bands (ev):

   -30.0940 -13.7958 -13.7559 -13.7356   0.8681   3.9022   5.0452   6.7060
     6.9680

          k = 0.0000-0.4444 0.4444 (  2426 PWs)   bands (ev):

   -30.0928 -13.8131 -13.7617 -13.7355   1.7773   2.8692   4.8599   6.5672
     7.2560

          k =-0.1111-0.1111 0.2222 (  2448 PWs)   bands (ev):

   -30.0962 -13.7617 -13.7424 -13.7380  -0.0078   5.2494   5.3984   6.2867
     6.5025

          k =-0.1111-0.2222 0.3333 (  2432 PWs)   bands (ev):

   -30.0945 -13.7850 -13.7519 -13.7389   0.5869   4.4169   4.9973   6.5266
     6.6905

          k =-0.1111-0.3333 0.4444 (  2439 PWs)   bands (ev):

   -30.0931 -13.8047 -13.7615 -13.7390   1.4121   3.4405   4.7333   6.4595
     7.1007

          k =-0.1111 0.5556-0.4444 (  2444 PWs)   bands (ev):

   -30.0926 -13.8123 -13.7653 -13.7391   2.2663   2.5406   4.6409   6.3307
     7.3227

          k =-0.2222-0.2222 0.4444 (  2444 PWs)   bands (ev):

   -30.0932 -13.7980 -13.7624 -13.7428   1.2866   3.9092   4.4032   6.6135
     6.6293

          k =-0.2222 0.6667-0.4444 (  2445 PWs)   bands (ev):

   -30.0924 -13.8031 -13.7737 -13.7441   2.1752   3.1343   4.0539   6.2903
     6.9315

          k =-0.3333 0.6667-0.3333 (  2457 PWs)   bands (ev):

   -30.0921 -13.7907 -13.7907 -13.7458   2.9761   2.9761   3.3022   6.2476
     7.0181

          k = 0.0000 0.0000 0.2222 (  2435 PWs)   bands (ev):

   -30.0967 -13.7477 -13.7421 -13.7421  -0.1616   5.6641   5.6641   6.0900
     6.1127

          k = 0.0000-0.1111 0.3333 (  2449 PWs)   bands (ev):

   -30.0952 -13.7688 -13.7502 -13.7433   0.2945   4.9550   5.3723   5.9369
     6.4440

          k = 0.0000-0.2222 0.4444 (  2445 PWs)   bands (ev):

   -30.0935 -13.7942 -13.7594 -13.7429   1.0102   3.9718   5.0782   5.9887
     7.0226

          k = 0.0000-0.3333 0.5556 (  2437 PWs)   bands (ev):

   -30.0924 -13.8106 -13.7653 -13.7425   1.9135   2.9592   4.9095   5.8944
     7.1520

          k =-0.1111-0.1111 0.4444 (  2443 PWs)   bands (ev):

   -30.0936 -13.7854 -13.7597 -13.7479   0.8736   4.3923   4.9704   5.8834
     6.7588

          k =-0.1111-0.2222 0.5556 (  2449 PWs)   bands (ev):

   -30.0923 -13.8013 -13.7700 -13.7485   1.6779   3.5827   4.5935   5.9498
     6.7801

          k =-0.1111 0.6667-0.3333 (  2456 PWs)   bands (ev):

   -30.0918 -13.8076 -13.7743 -13.7484   2.5771   2.6734   4.4588   5.8804
     6.9590

          k =-0.2222 0.2222 0.2222 (  2430 PWs)   bands (ev):

   -30.0950 -13.7814 -13.7431 -13.7431   0.4421   4.7808   4.7808   6.5329
     6.9224

          k =-0.2222 0.7778-0.3333 (  2460 PWs)   bands (ev):

   -30.0915 -13.7998 -13.7851 -13.7502   2.5193   3.2649   3.7786   6.3463
     6.5672

          k =-0.3333 0.3333 0.2222 (  2425 PWs)   bands (ev):

   -30.0936 -13.7972 -13.7553 -13.7439   1.1516   3.9726   4.4513   6.4741
     7.0464

          k = 0.5556-0.5556 0.2222 (  2434 PWs)   bands (ev):

   -30.0927 -13.8049 -13.7659 -13.7444   2.0498   3.0474   4.2840   6.1129
     7.2517

          k = 0.5556-0.6667 0.3333 (  2433 PWs)   bands (ev):

   -30.0927 -13.7988 -13.7654 -13.7505   1.9396   3.5885   3.8935   5.8349
     7.1755

          k = 0.4444-0.5556 0.3333 (  2420 PWs)   bands (ev):

   -30.0924 -13.7943 -13.7755 -13.7520   2.8316   2.8530   3.7038   5.5278
     7.2738

          k = 0.0000 0.0000 0.4444 (  2447 PWs)   bands (ev):

   -30.0938 -13.7717 -13.7587 -13.7587   0.7330   4.8716   5.2917   5.2917
     6.6237

          k = 0.0000-0.1111 0.5556 (  2454 PWs)   bands (ev):

   -30.0922 -13.7901 -13.7682 -13.7609   1.4189   4.1019   5.1415   5.3005
     6.5624

          k = 0.0000-0.2222 0.6667 (  2450 PWs)   bands (ev):

   -30.0912 -13.8043 -13.7745 -13.7599   2.2828   3.2174   5.0344   5.1171
     6.6012

          k =-0.1111-0.1111 0.6667 (  2453 PWs)   bands (ev):

   -30.0910 -13.7974 -13.7802 -13.7644   2.1645   3.6674   4.5442   5.5902
     6.1999

          k =-0.1111 0.7778-0.2222 (  2453 PWs)   bands (ev):

   -30.0905 -13.8004 -13.7863 -13.7642   2.9318   3.0722   4.2077   5.6954
     6.2985

          k = 0.5556-0.5556 0.4444 (  2415 PWs)   bands (ev):

   -30.0924 -13.7876 -13.7673 -13.7673   2.7379   3.4311   3.4312   4.9890
     7.4088

          k = 0.0000 0.0000 0.6667 (  2442 PWs)   bands (ev):

   -30.0907 -13.7883 -13.7782 -13.7782   2.0409   3.9447   5.1739   5.1739
     5.7572

          k = 0.0000-0.1111 0.7778 (  2447 PWs)   bands (ev):

   -30.0898 -13.7972 -13.7847 -13.7793   2.7739   3.4843   4.8392   5.1727
     5.8479

          k =-0.1111 0.8889-0.1111 (  2457 PWs)   bands (ev):

   -30.0894 -13.7940 -13.7940 -13.7809   3.2661   3.2661   4.5307   5.5981
     5.5982

          k = 0.0000 0.0000 0.8889 (  2458 PWs)   bands (ev):

   -30.0889 -13.7930 -13.7914 -13.7914   3.2253   3.4622   5.2232   5.2589
     5.2589

     the Fermi energy is     1.7502 ev

!    total energy              =     -58.74250716 Ry
     Harris-Foulkes estimate   =     -58.74250716 Ry
     estimated scf accuracy    <          9.4E-10 Ry

     The total energy is the sum of the following terms:

     one-electron contribution =     -36.65315838 Ry
     hartree contribution      =      18.82463857 Ry
     xc contribution           =     -11.01720431 Ry
     ewald contribution        =     -29.89633975 Ry
     smearing contrib. (-TS)   =      -0.00044328 Ry

     convergence has been achieved in   5 iterations

     Forces acting on atoms (cartesian axes, Ry/au):

     atom    1 type  1   force =     0.00000000    0.00000000    0.00000000

     Total force =     0.000000     Total SCF correction =     0.000000


     Computing stress (Cartesian axis) and pressure

          total   stress  (Ry/bohr**3)                   (kbar)     P=   -4.95
  -0.00003366  -0.00000000   0.00000000         -4.95     -0.00      0.00
  -0.00000000  -0.00003366  -0.00000000         -0.00     -4.95     -0.00
   0.00000000  -0.00000000  -0.00003366          0.00     -0.00     -4.95


     Writing output data file K.save/

     init_run     :      0.42s CPU      0.44s WALL (       1 calls)
     electrons    :      5.06s CPU      5.31s WALL (       1 calls)
     forces       :      0.09s CPU      0.09s WALL (       1 calls)
     stress       :      0.36s CPU      0.36s WALL (       1 calls)

     Called by init_run:
     wfcinit      :      0.23s CPU      0.24s WALL (       1 calls)
     potinit      :      0.01s CPU      0.01s WALL (       1 calls)
     hinit0       :      0.16s CPU      0.16s WALL (       1 calls)

     Called by electrons:
     c_bands      :      4.16s CPU      4.37s WALL (       6 calls)
     sum_band     :      0.79s CPU      0.83s WALL (       6 calls)
     v_of_rho     :      0.01s CPU      0.01s WALL (       6 calls)
     newd         :      0.11s CPU      0.11s WALL (       6 calls)
     mix_rho      :      0.01s CPU      0.01s WALL (       6 calls)

     Called by c_bands:
     init_us_2    :      0.16s CPU      0.17s WALL (     525 calls)
     cegterg      :      3.98s CPU      4.18s WALL (     210 calls)

     Called by sum_band:
     sum_band:bec :      0.00s CPU      0.00s WALL (     210 calls)
     addusdens    :      0.12s CPU      0.12s WALL (       6 calls)

     Called by *egterg:
     h_psi        :      3.27s CPU      3.45s WALL (     982 calls)
     s_psi        :      0.10s CPU      0.10s WALL (     982 calls)
     g_psi        :      0.01s CPU      0.01s WALL (     737 calls)
     cdiaghg      :      0.22s CPU      0.23s WALL (     912 calls)

     Called by h_psi:
     h_psi:pot    :      3.25s CPU      3.43s WALL (     982 calls)
     h_psi:calbec :      0.18s CPU      0.19s WALL (     982 calls)
     vloc_psi     :      2.95s CPU      3.12s WALL (     982 calls)
     add_vuspsi   :      0.11s CPU      0.11s WALL (     982 calls)

     General routines
     calbec       :      0.27s CPU      0.28s WALL (    1367 calls)
     fft          :      0.02s CPU      0.02s WALL (      34 calls)
     ffts         :      0.00s CPU      0.00s WALL (       6 calls)
     fftw         :      3.25s CPU      3.44s WALL (   12962 calls)

     Parallel routines
     fft_scatt_xy :      0.26s CPU      0.27s WALL (   13002 calls)
     fft_scatt_yz :      0.86s CPU      0.91s WALL (   13002 calls)

     PWSCF        :     6.73s CPU         7.11s WALL


   This run was terminated on:   0:32:26   8Apr2024            

=------------------------------------------------------------------------------=
   JOB DONE.
=------------------------------------------------------------------------------=
