
     Program PWSCF v.6.3MaX starts on  8Apr2024 at  0:46:14 

     This program is part of the open-source Quantum ESPRESSO suite
     for quantum simulation of materials; please cite
         "P. Giannozzi et al., J. Phys.:Condens. Matter 21 395502 (2009);
         "P. Giannozzi et al., J. Phys.:Condens. Matter 29 465901 (2017);
          URL http://www.quantum-espresso.org", 
     in publications or presentations arising from this work. More details at
     http://www.quantum-espresso.org/quote

     Parallel version (MPI), running on     5 processors

     MPI processes distributed on     1 nodes
     R & G space division:  proc/nbgrp/npool/nimage =       5
     Waiting for input...
     Reading input from standard input

     Current dimensions of program PWSCF are:
     Max number of different atomic species (ntypx) = 10
     Max number of k-points (npk) =  40000
     Max angular momentum in pseudopotentials (lmaxx) =  3
               file K.pz-spn-rrkjus_psl.1.0.0.UPF: wavefunction(s)  3S renormalized

     Subspace diagonalization in iterative solution of the eigenvalue problem:
     a serial algorithm will be used


     Parallelization info
     --------------------
     sticks:   dense  smooth     PW     G-vecs:    dense   smooth      PW
     Min         263     263     75                 6018     6018     917
     Max         263     263     75                 6019     6019     917
     Sum        1315    1315    375                30093    30093    4585



     bravais-lattice index     =            3
     lattice parameter (alat)  =       9.8600  a.u.
     unit-cell volume          =     479.2926 (a.u.)^3
     number of atoms/cell      =            1
     number of atomic types    =            1
     number of electrons       =         9.00
     number of Kohn-Sham states=            9
     kinetic-energy cutoff     =      60.0000  Ry
     charge density cutoff     =     240.0000  Ry
     convergence threshold     =      1.0E-08
     mixing beta               =       0.7000
     number of iterations used =            8  plain     mixing
     Exchange-correlation      = LDA ( 1  1  0  0 0 0)

     celldm(1)=   9.860000  celldm(2)=   0.000000  celldm(3)=   0.000000
     celldm(4)=   0.000000  celldm(5)=   0.000000  celldm(6)=   0.000000

     crystal axes: (cart. coord. in units of alat)
               a(1) = (   0.500000   0.500000   0.500000 )  
               a(2) = (  -0.500000   0.500000   0.500000 )  
               a(3) = (  -0.500000  -0.500000   0.500000 )  

     reciprocal axes: (cart. coord. in units 2 pi/alat)
               b(1) = (  1.000000  0.000000  1.000000 )  
               b(2) = ( -1.000000  1.000000  0.000000 )  
               b(3) = (  0.000000 -1.000000  1.000000 )  


     PseudoPot. # 1 for K  read from file:
     /home/lorenzo/pseudos/K/K.pz-spn-rrkjus_psl.1.0.0.UPF
     MD5 check sum: af434a66a3b91719abff201b8f79bb09
     Pseudo is Ultrasoft + core correction, Zval =  9.0
     Generated using "atomic" code by A. Dal Corso v.6.2.2
     Using radial grid of 1165 points,  6 beta functions with: 
                l(1) =   0
                l(2) =   0
                l(3) =   1
                l(4) =   1
                l(5) =   2
                l(6) =   2
     Q(r) pseudized with 0 coefficients 


     atomic species   valence    mass     pseudopotential
        K              9.00    39.09830     K ( 1.00)

     48 Sym. Ops., with inversion, found



   Cartesian axes

     site n.     atom                  positions (alat units)
         1           K   tau(   1) = (   0.0000000   0.0000000   0.0000000  )

     number of k points=    20  gaussian smearing, width (Ry)=  0.0100
                       cart. coord. in units 2pi/alat
        k(    1) = (   0.0000000   0.0000000   0.0000000), wk =   0.0058309
        k(    2) = (   0.0000000  -0.1428571   0.1428571), wk =   0.0699708
        k(    3) = (   0.0000000  -0.2857143   0.2857143), wk =   0.0699708
        k(    4) = (   0.0000000  -0.4285714   0.4285714), wk =   0.0699708
        k(    5) = (  -0.1428571  -0.1428571   0.2857143), wk =   0.1399417
        k(    6) = (  -0.1428571  -0.2857143   0.4285714), wk =   0.2798834
        k(    7) = (  -0.1428571   0.5714286  -0.4285714), wk =   0.1399417
        k(    8) = (  -0.2857143   0.7142857  -0.4285714), wk =   0.1399417
        k(    9) = (   0.0000000   0.0000000   0.2857143), wk =   0.0349854
        k(   10) = (   0.0000000  -0.1428571   0.4285714), wk =   0.1399417
        k(   11) = (   0.0000000  -0.2857143   0.5714286), wk =   0.1399417
        k(   12) = (  -0.1428571  -0.1428571   0.5714286), wk =   0.1399417
        k(   13) = (  -0.1428571   0.7142857  -0.2857143), wk =   0.1399417
        k(   14) = (  -0.2857143   0.2857143   0.2857143), wk =   0.0466472
        k(   15) = (   0.5714286  -0.5714286   0.2857143), wk =   0.1399417
        k(   16) = (   0.4285714  -0.5714286   0.4285714), wk =   0.0466472
        k(   17) = (   0.0000000   0.0000000   0.5714286), wk =   0.0349854
        k(   18) = (   0.0000000  -0.1428571   0.7142857), wk =   0.1399417
        k(   19) = (  -0.1428571   0.8571429  -0.1428571), wk =   0.0466472
        k(   20) = (   0.0000000   0.0000000   0.8571429), wk =   0.0349854

     Dense  grid:    30093 G-vectors     FFT dimensions: (  45,  45,  45)

     Estimated max dynamical RAM per process >      26.54 MB

     Estimated total dynamical RAM >     132.70 MB

     Check: negative/imaginary core charge=   -0.000003    0.000000

     Initial potential from superposition of free atoms

     starting charge    8.98437, renormalised to    9.00000
     Starting wfcs are    8 randomized atomic wfcs +    1 random wfcs

     total cpu time spent up to now is        1.2 secs

     Self-consistent Calculation

     iteration #  1     ecut=    60.00 Ry     beta= 0.70
     Davidson diagonalization with overlap
     ethr =  1.00E-02,  avg # of iterations =  6.6

     Threshold (ethr) on eigenvalues was too large:
     Diagonalizing with lowered threshold

     Davidson diagonalization with overlap
     ethr =  1.24E-05,  avg # of iterations =  6.6

     total cpu time spent up to now is        3.6 secs

     total energy              =     -58.74311567 Ry
     Harris-Foulkes estimate   =     -58.74368299 Ry
     estimated scf accuracy    <       0.00112480 Ry

     iteration #  2     ecut=    60.00 Ry     beta= 0.70
     Davidson diagonalization with overlap
     ethr =  1.25E-05,  avg # of iterations =  2.2

     total cpu time spent up to now is        4.4 secs

     total energy              =     -58.74331473 Ry
     Harris-Foulkes estimate   =     -58.74333221 Ry
     estimated scf accuracy    <       0.00008979 Ry

     iteration #  3     ecut=    60.00 Ry     beta= 0.70
     Davidson diagonalization with overlap
     ethr =  9.98E-07,  avg # of iterations =  2.1

     total cpu time spent up to now is        5.5 secs

     total energy              =     -58.74332367 Ry
     Harris-Foulkes estimate   =     -58.74332288 Ry
     estimated scf accuracy    <       0.00000568 Ry

     iteration #  4     ecut=    60.00 Ry     beta= 0.70
     Davidson diagonalization with overlap
     ethr =  6.32E-08,  avg # of iterations =  1.6

     total cpu time spent up to now is        6.6 secs

     total energy              =     -58.74332421 Ry
     Harris-Foulkes estimate   =     -58.74332421 Ry
     estimated scf accuracy    <       0.00000003 Ry

     iteration #  5     ecut=    60.00 Ry     beta= 0.70
     Davidson diagonalization with overlap
     ethr =  3.82E-10,  avg # of iterations =  2.1

     total cpu time spent up to now is        7.4 secs

     End of self-consistent calculation

          k = 0.0000 0.0000 0.0000 (  3781 PWs)   bands (ev):

   -30.0980 -13.7368 -13.7368 -13.7368  -0.4766   5.9291   5.9291   5.9291
     6.8745

          k = 0.0000-0.1429 0.1429 (  3763 PWs)   bands (ev):

   -30.0971 -13.7521 -13.7419 -13.7368  -0.2159   5.5209   5.6498   6.1381
     6.6336

          k = 0.0000-0.2857 0.2857 (  3775 PWs)   bands (ev):

   -30.0949 -13.7859 -13.7532 -13.7367   0.5292   4.3398   5.1733   6.7076
     6.7455

          k = 0.0000-0.4286 0.4286 (  3762 PWs)   bands (ev):

   -30.0931 -13.8126 -13.7623 -13.7367   1.6416   3.0142   4.8749   6.5864
     7.2084

          k =-0.1429-0.1429 0.2857 (  3767 PWs)   bands (ev):

   -30.0955 -13.7752 -13.7478 -13.7403   0.2879   4.8543   5.1287   6.4793
     6.4918

          k =-0.1429-0.2857 0.4286 (  3772 PWs)   bands (ev):

   -30.0935 -13.8007 -13.7614 -13.7417   1.2255   3.7517   4.6632   6.4854
     6.9120

          k =-0.1429 0.5714-0.4286 (  3756 PWs)   bands (ev):

   -30.0926 -13.8113 -13.7684 -13.7419   2.3448   2.5748   4.5031   6.2763
     7.3917

          k =-0.2857 0.7143-0.4286 (  3763 PWs)   bands (ev):

   -30.0924 -13.8007 -13.7793 -13.7461   2.2791   3.3122   3.7293   6.3041
     6.8380

          k = 0.0000 0.0000 0.2857 (  3768 PWs)   bands (ev):

   -30.0961 -13.7554 -13.7471 -13.7471   0.0395   5.5427   5.5427   5.7326
     6.2280

          k = 0.0000-0.1429 0.4286 (  3769 PWs)   bands (ev):

   -30.0940 -13.7841 -13.7587 -13.7486   0.7693   4.4290   5.2010   5.7488
     6.7593

          k = 0.0000-0.2857 0.5714 (  3752 PWs)   bands (ev):

   -30.0923 -13.8087 -13.7681 -13.7478   1.8632   3.1602   4.9525   5.6623
     7.0172

          k =-0.1429-0.1429 0.5714 (  3755 PWs)   bands (ev):

   -30.0922 -13.7985 -13.7736 -13.7539   1.6634   3.8102   4.5309   5.8827
     6.5721

          k =-0.1429 0.7143-0.2857 (  3756 PWs)   bands (ev):

   -30.0914 -13.8042 -13.7830 -13.7541   2.7953   2.8291   4.1258   5.9592
     7.3316

          k =-0.2857 0.2857 0.2857 (  3775 PWs)   bands (ev):

   -30.0940 -13.7954 -13.7496 -13.7496   1.0034   4.3126   4.3126   6.4680
     7.0937

          k = 0.5714-0.5714 0.2857 (  3770 PWs)   bands (ev):

   -30.0928 -13.8012 -13.7672 -13.7509   2.0818   3.2879   4.0410   5.8021
     7.2470

          k = 0.4286-0.5714 0.4286 (  3763 PWs)   bands (ev):

   -30.0926 -13.7839 -13.7839 -13.7586   3.0624   3.0624   3.3592   5.1831
     7.3712

          k = 0.0000 0.0000 0.5714 (  3776 PWs)   bands (ev):

   -30.0921 -13.7839 -13.7711 -13.7711   1.4483   4.2916   5.1885   5.1885
     6.3003

          k = 0.0000-0.1429 0.7143 (  3748 PWs)   bands (ev):

   -30.0906 -13.8000 -13.7810 -13.7725   2.4384   3.5006   4.9075   5.1210
     6.1348

          k =-0.1429 0.8571-0.1429 (  3739 PWs)   bands (ev):

   -30.0899 -13.7952 -13.7952 -13.7751   3.2015   3.2015   4.2459   5.7755
     5.7755

          k = 0.0000 0.0000 0.8571 (  3740 PWs)   bands (ev):

   -30.0892 -13.7938 -13.7913 -13.7913   3.1095   3.5016   5.2233   5.2448
     5.2448

     the Fermi energy is     1.7336 ev

!    total energy              =     -58.74332422 Ry
     Harris-Foulkes estimate   =     -58.74332422 Ry
     estimated scf accuracy    <          5.0E-10 Ry

     The total energy is the sum of the following terms:

     one-electron contribution =     -36.65506989 Ry
     hartree contribution      =      18.82554821 Ry
     xc contribution           =     -11.01687413 Ry
     ewald contribution        =     -29.89633971 Ry
     smearing contrib. (-TS)   =      -0.00058871 Ry

     convergence has been achieved in   5 iterations

     Forces acting on atoms (cartesian axes, Ry/au):

     atom    1 type  1   force =     0.00000000    0.00000000    0.00000000

     Total force =     0.000000     Total SCF correction =     0.000000


     Computing stress (Cartesian axis) and pressure

          total   stress  (Ry/bohr**3)                   (kbar)     P=   -4.01
  -0.00002728  -0.00000000  -0.00000000         -4.01     -0.00     -0.00
   0.00000000  -0.00002728   0.00000000          0.00     -4.01      0.00
  -0.00000000   0.00000000  -0.00002728         -0.00      0.00     -4.01


     Writing output data file K.save/

     init_run     :      0.46s CPU      0.49s WALL (       1 calls)
     electrons    :      5.98s CPU      6.17s WALL (       1 calls)
     forces       :      0.15s CPU      0.15s WALL (       1 calls)
     stress       :      0.43s CPU      0.43s WALL (       1 calls)

     Called by init_run:
     wfcinit      :      0.21s CPU      0.22s WALL (       1 calls)
     potinit      :      0.01s CPU      0.01s WALL (       1 calls)
     hinit0       :      0.18s CPU      0.18s WALL (       1 calls)

     Called by electrons:
     c_bands      :      4.79s CPU      4.94s WALL (       6 calls)
     sum_band     :      0.97s CPU      1.00s WALL (       6 calls)
     v_of_rho     :      0.02s CPU      0.02s WALL (       6 calls)
     newd         :      0.19s CPU      0.20s WALL (       6 calls)
     mix_rho      :      0.03s CPU      0.03s WALL (       6 calls)

     Called by c_bands:
     init_us_2    :      0.15s CPU      0.15s WALL (     300 calls)
     cegterg      :      4.58s CPU      4.72s WALL (     120 calls)

     Called by sum_band:
     sum_band:bec :      0.00s CPU      0.00s WALL (     120 calls)
     addusdens    :      0.17s CPU      0.18s WALL (       6 calls)

     Called by *egterg:
     h_psi        :      3.87s CPU      4.01s WALL (     564 calls)
     s_psi        :      0.09s CPU      0.10s WALL (     564 calls)
     g_psi        :      0.01s CPU      0.01s WALL (     424 calls)
     cdiaghg      :      0.15s CPU      0.15s WALL (     524 calls)

     Called by h_psi:
     h_psi:pot    :      3.85s CPU      3.99s WALL (     564 calls)
     h_psi:calbec :      0.24s CPU      0.24s WALL (     564 calls)
     vloc_psi     :      3.50s CPU      3.64s WALL (     564 calls)
     add_vuspsi   :      0.10s CPU      0.11s WALL (     564 calls)

     General routines
     calbec       :      0.41s CPU      0.41s WALL (     784 calls)
     fft          :      0.05s CPU      0.05s WALL (      34 calls)
     ffts         :      0.00s CPU      0.01s WALL (       6 calls)
     fftw         :      3.86s CPU      4.00s WALL (    7364 calls)

     Parallel routines
     fft_scatt_xy :      0.25s CPU      0.26s WALL (    7404 calls)
     fft_scatt_yz :      1.48s CPU      1.54s WALL (    7404 calls)

     PWSCF        :     7.79s CPU         8.10s WALL


   This run was terminated on:   0:46:22   8Apr2024            

=------------------------------------------------------------------------------=
   JOB DONE.
=------------------------------------------------------------------------------=
