
     Program PWSCF v.6.3MaX starts on  8Apr2024 at  0:11:21 

     This program is part of the open-source Quantum ESPRESSO suite
     for quantum simulation of materials; please cite
         "P. Giannozzi et al., J. Phys.:Condens. Matter 21 395502 (2009);
         "P. Giannozzi et al., J. Phys.:Condens. Matter 29 465901 (2017);
          URL http://www.quantum-espresso.org", 
     in publications or presentations arising from this work. More details at
     http://www.quantum-espresso.org/quote

     Parallel version (MPI), running on     5 processors

     MPI processes distributed on     1 nodes
     R & G space division:  proc/nbgrp/npool/nimage =       5
     Waiting for input...
     Reading input from standard input

     Current dimensions of program PWSCF are:
     Max number of different atomic species (ntypx) = 10
     Max number of k-points (npk) =  40000
     Max angular momentum in pseudopotentials (lmaxx) =  3
               file K.pbe-spn-rrkjus_psl.1.0.0.UPF: wavefunction(s)  3S renormalized

     Subspace diagonalization in iterative solution of the eigenvalue problem:
     a serial algorithm will be used


     Parallelization info
     --------------------
     sticks:   dense  smooth     PW     G-vecs:    dense   smooth      PW
     Min          43      43     15                  417      417      85
     Max          44      44     16                  420      420      86
     Sum         219     219     77                 2093     2093     429



     bravais-lattice index     =            3
     lattice parameter (alat)  =       9.8600  a.u.
     unit-cell volume          =     479.2926 (a.u.)^3
     number of atoms/cell      =            1
     number of atomic types    =            1
     number of electrons       =         9.00
     number of Kohn-Sham states=            9
     kinetic-energy cutoff     =      10.0000  Ry
     charge density cutoff     =      40.0000  Ry
     convergence threshold     =      1.0E-08
     mixing beta               =       0.7000
     number of iterations used =            8  plain     mixing
     Exchange-correlation      = PBE ( 1  4  3  4 0 0)

     celldm(1)=   9.860000  celldm(2)=   0.000000  celldm(3)=   0.000000
     celldm(4)=   0.000000  celldm(5)=   0.000000  celldm(6)=   0.000000

     crystal axes: (cart. coord. in units of alat)
               a(1) = (   0.500000   0.500000   0.500000 )  
               a(2) = (  -0.500000   0.500000   0.500000 )  
               a(3) = (  -0.500000  -0.500000   0.500000 )  

     reciprocal axes: (cart. coord. in units 2 pi/alat)
               b(1) = (  1.000000  0.000000  1.000000 )  
               b(2) = ( -1.000000  1.000000  0.000000 )  
               b(3) = (  0.000000 -1.000000  1.000000 )  


     PseudoPot. # 1 for K  read from file:
     /home/lorenzo/pseudos/K/K.pbe-spn-rrkjus_psl.1.0.0.UPF
     MD5 check sum: 897b700350bb708b0563e904352feb48
     Pseudo is Ultrasoft + core correction, Zval =  9.0
     Generated using "atomic" code by A. Dal Corso v.6.2.2
     Using radial grid of 1165 points,  6 beta functions with: 
                l(1) =   0
                l(2) =   0
                l(3) =   1
                l(4) =   1
                l(5) =   2
                l(6) =   2
     Q(r) pseudized with 0 coefficients 


     atomic species   valence    mass     pseudopotential
        K              9.00    39.09830     K ( 1.00)

     48 Sym. Ops., with inversion, found



   Cartesian axes

     site n.     atom                  positions (alat units)
         1           K   tau(   1) = (   0.0000000   0.0000000   0.0000000  )

     number of k points=     8  gaussian smearing, width (Ry)=  0.0100
                       cart. coord. in units 2pi/alat
        k(    1) = (   0.0000000   0.0000000   0.0000000), wk =   0.0312500
        k(    2) = (   0.0000000  -0.2500000   0.2500000), wk =   0.3750000
        k(    3) = (   0.0000000   0.5000000  -0.5000000), wk =   0.1875000
        k(    4) = (  -0.2500000   0.7500000  -0.5000000), wk =   0.7500000
        k(    5) = (   0.0000000   0.0000000   0.5000000), wk =   0.1875000
        k(    6) = (   0.0000000   0.7500000  -0.2500000), wk =   0.3750000
        k(    7) = (   0.5000000  -0.5000000   0.5000000), wk =   0.0625000
        k(    8) = (   0.0000000   0.0000000  -1.0000000), wk =   0.0312500

     Dense  grid:     2093 G-vectors     FFT dimensions: (  18,  18,  18)

     Estimated max dynamical RAM per process >       2.43 MB

     Estimated total dynamical RAM >      12.13 MB

     Check: negative/imaginary core charge=   -0.001484    0.000000

     Initial potential from superposition of free atoms
     Check: negative starting charge=   -0.000337

     starting charge    8.98117, renormalised to    9.00000

     negative rho (up, down):  3.372E-04 0.000E+00
     Starting wfcs are    8 randomized atomic wfcs +    1 random wfcs

     total cpu time spent up to now is        0.8 secs

     Self-consistent Calculation

     iteration #  1     ecut=    10.00 Ry     beta= 0.70
     Davidson diagonalization with overlap
     ethr =  1.00E-02,  avg # of iterations =  6.8

     total cpu time spent up to now is        0.9 secs

     total energy              =     -57.31624331 Ry
     Harris-Foulkes estimate   =     -57.56673306 Ry
     estimated scf accuracy    <       0.38748911 Ry

     iteration #  2     ecut=    10.00 Ry     beta= 0.70
     Davidson diagonalization with overlap
     ethr =  4.31E-03,  avg # of iterations =  2.0

     total cpu time spent up to now is        0.9 secs

     total energy              =     -57.38332507 Ry
     Harris-Foulkes estimate   =     -57.38574618 Ry
     estimated scf accuracy    <       0.00979688 Ry

     iteration #  3     ecut=    10.00 Ry     beta= 0.70
     Davidson diagonalization with overlap
     ethr =  1.09E-04,  avg # of iterations =  2.8

     total cpu time spent up to now is        1.0 secs

     total energy              =     -57.38359890 Ry
     Harris-Foulkes estimate   =     -57.38376153 Ry
     estimated scf accuracy    <       0.00071794 Ry

     iteration #  4     ecut=    10.00 Ry     beta= 0.70
     Davidson diagonalization with overlap
     ethr =  7.98E-06,  avg # of iterations =  3.5

     total cpu time spent up to now is        1.0 secs

     total energy              =     -57.38361352 Ry
     Harris-Foulkes estimate   =     -57.38361654 Ry
     estimated scf accuracy    <       0.00000184 Ry

     iteration #  5     ecut=    10.00 Ry     beta= 0.70
     Davidson diagonalization with overlap
     ethr =  2.04E-08,  avg # of iterations =  2.1

     total cpu time spent up to now is        1.1 secs

     total energy              =     -57.38361451 Ry
     Harris-Foulkes estimate   =     -57.38361410 Ry
     estimated scf accuracy    <       0.00000012 Ry

     iteration #  6     ecut=    10.00 Ry     beta= 0.70
     Davidson diagonalization with overlap
     ethr =  1.28E-09,  avg # of iterations =  2.2

     total cpu time spent up to now is        1.1 secs

     End of self-consistent calculation

          k = 0.0000 0.0000 0.0000 (   249 PWs)   bands (ev):

   -34.1452 -13.1702 -13.1702 -13.1702  -1.0092   6.7025   6.7025   6.7025
     7.9099

          k = 0.0000-0.2500 0.2500 (   261 PWs)   bands (ev):

   -34.1692 -13.6197 -13.4519 -13.4101  -0.1821   4.7018   5.6692   7.3161
     7.4054

          k = 0.0000 0.5000-0.5000 (   268 PWs)   bands (ev):

   -34.1845 -13.8240 -13.6845 -13.6167   1.7534   2.1724   5.0584   7.0711
     7.4839

          k =-0.2500 0.7500-0.5000 (   256 PWs)   bands (ev):

   -34.1604 -13.5184 -13.4597 -13.2607   1.3211   3.5211   4.0059   6.5559
     7.5654

          k = 0.0000 0.0000 0.5000 (   249 PWs)   bands (ev):

   -34.1495 -13.4431 -13.1713 -13.1713   0.6074   4.6531   5.4526   5.4526
     7.0347

          k = 0.0000 0.7500-0.2500 (   256 PWs)   bands (ev):

   -34.1671 -13.5601 -13.4878 -13.3631   2.5779   2.6032   4.8698   5.1489
     6.8761

          k = 0.5000-0.5000 0.5000 (   240 PWs)   bands (ev):

   -34.1253 -13.0319 -13.0319 -13.0319   3.1147   3.1147   3.1147   4.2661
     9.1886

          k = 0.0000 0.0000-1.0000 (   236 PWs)   bands (ev):

   -34.1334 -13.0532 -13.0532 -13.0532   3.3400   5.1653   5.1653   5.1653
     6.8003

     the Fermi energy is     1.3312 ev

!    total energy              =     -57.38361476 Ry
     Harris-Foulkes estimate   =     -57.38361459 Ry
     estimated scf accuracy    <          4.1E-09 Ry

     The total energy is the sum of the following terms:

     one-electron contribution =     -33.39790900 Ry
     hartree contribution      =      16.78809654 Ry
     xc contribution           =     -10.87535839 Ry
     ewald contribution        =     -29.89633971 Ry
     smearing contrib. (-TS)   =      -0.00210420 Ry

     convergence has been achieved in   6 iterations

     Forces acting on atoms (cartesian axes, Ry/au):

     atom    1 type  1   force =     0.00000000    0.00000000    0.00000000

     Total force =     0.000000     Total SCF correction =     0.000000


     Computing stress (Cartesian axis) and pressure

          total   stress  (Ry/bohr**3)                   (kbar)     P= -781.61
  -0.00531327   0.00000000  -0.00000000       -781.61      0.00     -0.00
   0.00000000  -0.00531327   0.00000000          0.00   -781.61      0.00
  -0.00000000   0.00000000  -0.00531327         -0.00      0.00   -781.61


     Writing output data file K.save/

     init_run     :      0.08s CPU      0.08s WALL (       1 calls)
     electrons    :      0.32s CPU      0.36s WALL (       1 calls)
     forces       :      0.01s CPU      0.01s WALL (       1 calls)
     stress       :      0.03s CPU      0.03s WALL (       1 calls)

     Called by init_run:
     wfcinit      :      0.01s CPU      0.01s WALL (       1 calls)
     potinit      :      0.00s CPU      0.00s WALL (       1 calls)
     hinit0       :      0.07s CPU      0.07s WALL (       1 calls)

     Called by electrons:
     c_bands      :      0.24s CPU      0.26s WALL (       6 calls)
     sum_band     :      0.05s CPU      0.06s WALL (       6 calls)
     v_of_rho     :      0.01s CPU      0.01s WALL (       7 calls)
     newd         :      0.02s CPU      0.02s WALL (       7 calls)
     mix_rho      :      0.00s CPU      0.00s WALL (       6 calls)

     Called by c_bands:
     init_us_2    :      0.01s CPU      0.01s WALL (     120 calls)
     cegterg      :      0.23s CPU      0.25s WALL (      48 calls)

     Called by sum_band:
     sum_band:bec :      0.00s CPU      0.00s WALL (      48 calls)
     addusdens    :      0.02s CPU      0.02s WALL (       6 calls)

     Called by *egterg:
     h_psi        :      0.15s CPU      0.17s WALL (     211 calls)
     s_psi        :      0.00s CPU      0.01s WALL (     211 calls)
     g_psi        :      0.00s CPU      0.00s WALL (     155 calls)
     cdiaghg      :      0.05s CPU      0.05s WALL (     203 calls)

     Called by h_psi:
     h_psi:pot    :      0.15s CPU      0.17s WALL (     211 calls)
     h_psi:calbec :      0.01s CPU      0.01s WALL (     211 calls)
     vloc_psi     :      0.14s CPU      0.15s WALL (     211 calls)
     add_vuspsi   :      0.00s CPU      0.01s WALL (     211 calls)

     General routines
     calbec       :      0.01s CPU      0.01s WALL (     299 calls)
     fft          :      0.01s CPU      0.01s WALL (     103 calls)
     ffts         :      0.00s CPU      0.00s WALL (       6 calls)
     fftw         :      0.15s CPU      0.17s WALL (    2904 calls)

     Parallel routines
     fft_scatt_xy :      0.01s CPU      0.02s WALL (    3013 calls)
     fft_scatt_yz :      0.06s CPU      0.07s WALL (    3013 calls)

     PWSCF        :     1.13s CPU         1.22s WALL


   This run was terminated on:   0:11:22   8Apr2024            

=------------------------------------------------------------------------------=
   JOB DONE.
=------------------------------------------------------------------------------=
