
     Program PWSCF v.6.3MaX starts on  8Apr2024 at  0:30:56 

     This program is part of the open-source Quantum ESPRESSO suite
     for quantum simulation of materials; please cite
         "P. Giannozzi et al., J. Phys.:Condens. Matter 21 395502 (2009);
         "P. Giannozzi et al., J. Phys.:Condens. Matter 29 465901 (2017);
          URL http://www.quantum-espresso.org", 
     in publications or presentations arising from this work. More details at
     http://www.quantum-espresso.org/quote

     Parallel version (MPI), running on     5 processors

     MPI processes distributed on     1 nodes
     R & G space division:  proc/nbgrp/npool/nimage =       5
     Waiting for input...
     Reading input from standard input

     Current dimensions of program PWSCF are:
     Max number of different atomic species (ntypx) = 10
     Max number of k-points (npk) =  40000
     Max angular momentum in pseudopotentials (lmaxx) =  3
               file K.pz-spn-kjpaw_psl.1.0.0.UPF: wavefunction(s)  3S renormalized

     Subspace diagonalization in iterative solution of the eigenvalue problem:
     a serial algorithm will be used


     Parallelization info
     --------------------
     sticks:   dense  smooth     PW     G-vecs:    dense   smooth      PW
     Min         196     196     57                 3895     3895     630
     Max         197     197     59                 3897     3897     631
     Sum         981     981    291                19477    19477    3151



     bravais-lattice index     =            3
     lattice parameter (alat)  =       9.8600  a.u.
     unit-cell volume          =     479.2926 (a.u.)^3
     number of atoms/cell      =            1
     number of atomic types    =            1
     number of electrons       =         9.00
     number of Kohn-Sham states=            9
     kinetic-energy cutoff     =      45.0000  Ry
     charge density cutoff     =     180.0000  Ry
     convergence threshold     =      1.0E-08
     mixing beta               =       0.7000
     number of iterations used =            8  plain     mixing
     Exchange-correlation      = SLA PZ NOGX NOGC ( 1  1  0  0 0 0)

     celldm(1)=   9.860000  celldm(2)=   0.000000  celldm(3)=   0.000000
     celldm(4)=   0.000000  celldm(5)=   0.000000  celldm(6)=   0.000000

     crystal axes: (cart. coord. in units of alat)
               a(1) = (   0.500000   0.500000   0.500000 )  
               a(2) = (  -0.500000   0.500000   0.500000 )  
               a(3) = (  -0.500000  -0.500000   0.500000 )  

     reciprocal axes: (cart. coord. in units 2 pi/alat)
               b(1) = (  1.000000  0.000000  1.000000 )  
               b(2) = ( -1.000000  1.000000  0.000000 )  
               b(3) = (  0.000000 -1.000000  1.000000 )  


     PseudoPot. # 1 for K  read from file:
     /home/lorenzo/pseudos/K/K.pz-spn-kjpaw_psl.1.0.0.UPF
     MD5 check sum: 59b94f4c1a6681f21e103574f2c5fc67
     Pseudo is Projector augmented-wave + core cor, Zval =  9.0
     Generated using "atomic" code by A. Dal Corso v.6.2.2
     Shape of augmentation charge: PSQ
     Using radial grid of 1165 points,  6 beta functions with: 
                l(1) =   0
                l(2) =   0
                l(3) =   1
                l(4) =   1
                l(5) =   2
                l(6) =   2
     Q(r) pseudized with 0 coefficients 


     atomic species   valence    mass     pseudopotential
        K              9.00    39.09830     K ( 1.00)

     48 Sym. Ops., with inversion, found



   Cartesian axes

     site n.     atom                  positions (alat units)
         1           K   tau(   1) = (   0.0000000   0.0000000   0.0000000  )

     number of k points=    16  gaussian smearing, width (Ry)=  0.0100
                       cart. coord. in units 2pi/alat
        k(    1) = (   0.0000000   0.0000000   0.0000000), wk =   0.0092593
        k(    2) = (   0.0000000  -0.1666667   0.1666667), wk =   0.1111111
        k(    3) = (   0.0000000  -0.3333333   0.3333333), wk =   0.1111111
        k(    4) = (   0.0000000   0.5000000  -0.5000000), wk =   0.0555556
        k(    5) = (  -0.1666667  -0.1666667   0.3333333), wk =   0.2222222
        k(    6) = (  -0.1666667   0.6666667  -0.5000000), wk =   0.4444444
        k(    7) = (  -0.3333333   0.6666667  -0.3333333), wk =   0.0740741
        k(    8) = (   0.0000000   0.0000000   0.3333333), wk =   0.0555556
        k(    9) = (   0.0000000  -0.1666667   0.5000000), wk =   0.2222222
        k(   10) = (   0.0000000   0.6666667  -0.3333333), wk =   0.1111111
        k(   11) = (  -0.1666667   0.8333333  -0.3333333), wk =   0.2222222
        k(   12) = (   0.6666667  -0.6666667   0.3333333), wk =   0.0740741
        k(   13) = (   0.5000000  -0.5000000   0.3333333), wk =   0.1111111
        k(   14) = (   0.0000000   0.0000000   0.6666667), wk =   0.0555556
        k(   15) = (   0.0000000   0.8333333  -0.1666667), wk =   0.1111111
        k(   16) = (   0.0000000   0.0000000  -1.0000000), wk =   0.0092593

     Dense  grid:    19477 G-vectors     FFT dimensions: (  40,  40,  40)

     Estimated max dynamical RAM per process >      17.41 MB

     Estimated total dynamical RAM >      87.07 MB

     Check: negative/imaginary core charge=   -0.000011    0.000000

     Initial potential from superposition of free atoms

     starting charge    8.98437, renormalised to    9.00000
     Starting wfcs are    8 randomized atomic wfcs +    1 random wfcs
     Checking if some PAW data can be deallocated... 

     total cpu time spent up to now is        1.1 secs

     Self-consistent Calculation

     iteration #  1     ecut=    45.00 Ry     beta= 0.70
     Davidson diagonalization with overlap
     ethr =  1.00E-02,  avg # of iterations =  7.1

     Threshold (ethr) on eigenvalues was too large:
     Diagonalizing with lowered threshold

     Davidson diagonalization with overlap
     ethr =  1.22E-05,  avg # of iterations =  6.1

     total cpu time spent up to now is        2.2 secs

     total energy              =    -109.86972622 Ry
     Harris-Foulkes estimate   =    -109.87027339 Ry
     estimated scf accuracy    <       0.00110354 Ry

     iteration #  2     ecut=    45.00 Ry     beta= 0.70
     Davidson diagonalization with overlap
     ethr =  1.23E-05,  avg # of iterations =  2.0

     total cpu time spent up to now is        2.6 secs

     total energy              =    -109.86990852 Ry
     Harris-Foulkes estimate   =    -109.86993294 Ry
     estimated scf accuracy    <       0.00008687 Ry

     iteration #  3     ecut=    45.00 Ry     beta= 0.70
     Davidson diagonalization with overlap
     ethr =  9.65E-07,  avg # of iterations =  2.0

     total cpu time spent up to now is        3.1 secs

     total energy              =    -109.86991984 Ry
     Harris-Foulkes estimate   =    -109.86991955 Ry
     estimated scf accuracy    <       0.00000584 Ry

     iteration #  4     ecut=    45.00 Ry     beta= 0.70
     Davidson diagonalization with overlap
     ethr =  6.49E-08,  avg # of iterations =  1.4

     total cpu time spent up to now is        3.4 secs

     total energy              =    -109.86992044 Ry
     Harris-Foulkes estimate   =    -109.86992043 Ry
     estimated scf accuracy    <       0.00000004 Ry

     iteration #  5     ecut=    45.00 Ry     beta= 0.70
     Davidson diagonalization with overlap
     ethr =  4.58E-10,  avg # of iterations =  2.8

     total cpu time spent up to now is        3.9 secs

     End of self-consistent calculation

          k = 0.0000 0.0000 0.0000 (  2491 PWs)   bands (ev):

   -30.0967 -13.7344 -13.7344 -13.7344  -0.4764   5.9299   5.9299   5.9299
     6.8765

          k = 0.0000-0.1667 0.1667 (  2445 PWs)   bands (ev):

   -30.0953 -13.7545 -13.7410 -13.7343  -0.1231   5.3552   5.5703   6.2135
     6.6300

          k = 0.0000-0.3333 0.3333 (  2431 PWs)   bands (ev):

   -30.0927 -13.7944 -13.7544 -13.7341   0.8683   3.9023   5.0451   6.7066
     7.0267

          k = 0.0000 0.5000-0.5000 (  2422 PWs)   bands (ev):

   -30.0914 -13.8140 -13.7611 -13.7341   2.1435   2.4888   4.8359   6.5337
     7.8352

          k =-0.1667-0.1667 0.3333 (  2429 PWs)   bands (ev):

   -30.0933 -13.7816 -13.7493 -13.7389   0.5515   4.5557   4.9197   6.5141
     6.6134

          k =-0.1667 0.6667-0.5000 (  2450 PWs)   bands (ev):

   -30.0914 -13.8040 -13.7651 -13.7405   1.7706   3.2647   4.4364   6.3542
     7.0079

          k =-0.3333 0.6667-0.3333 (  2457 PWs)   bands (ev):

   -30.0908 -13.7893 -13.7893 -13.7443   2.9762   2.9762   3.3022   6.2476
     7.0187

          k = 0.0000 0.0000 0.3333 (  2455 PWs)   bands (ev):

   -30.0941 -13.7582 -13.7480 -13.7480   0.2204   5.4568   5.4568   5.4656
     6.3328

          k = 0.0000-0.1667 0.5000 (  2445 PWs)   bands (ev):

   -30.0916 -13.7908 -13.7619 -13.7496   1.1839   4.0441   5.1103   5.5976
     6.9434

          k = 0.0000 0.6667-0.3333 (  2446 PWs)   bands (ev):

   -30.0904 -13.8085 -13.7688 -13.7488   2.5000   2.6362   4.9465   5.4365
     6.9586

          k =-0.1667 0.8333-0.3333 (  2449 PWs)   bands (ev):

   -30.0899 -13.7986 -13.7810 -13.7549   2.3157   3.4578   4.1428   5.9593
     6.4100

          k = 0.6667-0.6667 0.3333 (  2436 PWs)   bands (ev):

   -30.0919 -13.7972 -13.7520 -13.7520   1.4910   4.0007   4.0007   6.0849
     7.2205

          k = 0.5000-0.5000 0.3333 (  2424 PWs)   bands (ev):

   -30.0912 -13.7933 -13.7701 -13.7534   2.8138   2.8194   3.8185   5.3879
     7.3232

          k = 0.0000 0.0000 0.6667 (  2442 PWs)   bands (ev):

   -30.0894 -13.7868 -13.7768 -13.7768   2.0411   3.9453   5.1738   5.1738
     5.7577

          k = 0.0000 0.8333-0.1667 (  2464 PWs)   bands (ev):

   -30.0884 -13.7975 -13.7842 -13.7776   3.0509   3.2529   4.7484   5.1711
     5.9424

          k = 0.0000 0.0000-1.0000 (  2454 PWs)   bands (ev):

   -30.0874 -13.7918 -13.7918 -13.7918   3.4018   3.4018   5.2836   5.2836
     5.2836

     the Fermi energy is     1.7556 ev

!    total energy              =    -109.86992046 Ry
     Harris-Foulkes estimate   =    -109.86992046 Ry
     estimated scf accuracy    <          3.4E-09 Ry

     total all-electron energy =     -1201.194920 Ry

     The total energy is the sum of the following terms:

     one-electron contribution =     -35.36512131 Ry
     hartree contribution      =      18.82533726 Ry
     xc contribution           =     -11.01728501 Ry
     ewald contribution        =     -29.89633975 Ry
     one-center paw contrib.   =     -52.41526644 Ry
     smearing contrib. (-TS)   =      -0.00124521 Ry

     convergence has been achieved in   5 iterations

     Forces acting on atoms (cartesian axes, Ry/au):

     atom    1 type  1   force =     0.00000000    0.00000000    0.00000000

     Total force =     0.000000     Total SCF correction =     0.000000


     Computing stress (Cartesian axis) and pressure

          total   stress  (Ry/bohr**3)                   (kbar)     P=   -4.60
  -0.00003130  -0.00000000   0.00000000         -4.60     -0.00      0.00
   0.00000000  -0.00003130  -0.00000000          0.00     -4.60     -0.00
   0.00000000  -0.00000000  -0.00003130          0.00     -0.00     -4.60


     Writing output data file K.save/

     init_run     :      0.35s CPU      0.36s WALL (       1 calls)
     electrons    :      2.67s CPU      2.80s WALL (       1 calls)
     forces       :      0.06s CPU      0.06s WALL (       1 calls)
     stress       :      0.25s CPU      0.25s WALL (       1 calls)

     Called by init_run:
     wfcinit      :      0.11s CPU      0.11s WALL (       1 calls)
     potinit      :      0.04s CPU      0.05s WALL (       1 calls)
     hinit0       :      0.16s CPU      0.16s WALL (       1 calls)

     Called by electrons:
     c_bands      :      1.89s CPU      2.01s WALL (       6 calls)
     sum_band     :      0.44s CPU      0.45s WALL (       6 calls)
     v_of_rho     :      0.01s CPU      0.02s WALL (       6 calls)
     newd         :      0.12s CPU      0.12s WALL (       6 calls)
     PAW_pot      :      0.24s CPU      0.25s WALL (       6 calls)
     mix_rho      :      0.01s CPU      0.01s WALL (       6 calls)

     Called by c_bands:
     init_us_2    :      0.07s CPU      0.07s WALL (     240 calls)
     cegterg      :      1.81s CPU      1.92s WALL (      96 calls)

     Called by sum_band:
     sum_band:bec :      0.00s CPU      0.00s WALL (      96 calls)
     addusdens    :      0.11s CPU      0.11s WALL (       6 calls)

     Called by *egterg:
     h_psi        :      1.51s CPU      1.61s WALL (     454 calls)
     s_psi        :      0.05s CPU      0.05s WALL (     454 calls)
     g_psi        :      0.00s CPU      0.00s WALL (     342 calls)
     cdiaghg      :      0.09s CPU      0.10s WALL (     422 calls)

     Called by h_psi:
     h_psi:pot    :      1.50s CPU      1.60s WALL (     454 calls)
     h_psi:calbec :      0.08s CPU      0.09s WALL (     454 calls)
     vloc_psi     :      1.37s CPU      1.45s WALL (     454 calls)
     add_vuspsi   :      0.05s CPU      0.05s WALL (     454 calls)

     General routines
     calbec       :      0.13s CPU      0.14s WALL (     630 calls)
     fft          :      0.02s CPU      0.02s WALL (      34 calls)
     ffts         :      0.00s CPU      0.00s WALL (       6 calls)
     fftw         :      1.50s CPU      1.59s WALL (    6020 calls)

     Parallel routines
     fft_scatt_xy :      0.12s CPU      0.12s WALL (    6060 calls)
     fft_scatt_yz :      0.42s CPU      0.45s WALL (    6060 calls)

     PWSCF        :     4.05s CPU         4.24s WALL


   This run was terminated on:   0:31: 1   8Apr2024            

=------------------------------------------------------------------------------=
   JOB DONE.
=------------------------------------------------------------------------------=
