
     Program PWSCF v.6.3MaX starts on  8Apr2024 at  0:27:23 

     This program is part of the open-source Quantum ESPRESSO suite
     for quantum simulation of materials; please cite
         "P. Giannozzi et al., J. Phys.:Condens. Matter 21 395502 (2009);
         "P. Giannozzi et al., J. Phys.:Condens. Matter 29 465901 (2017);
          URL http://www.quantum-espresso.org", 
     in publications or presentations arising from this work. More details at
     http://www.quantum-espresso.org/quote

     Parallel version (MPI), running on     5 processors

     MPI processes distributed on     1 nodes
     R & G space division:  proc/nbgrp/npool/nimage =       5
     Waiting for input...
     Reading input from standard input

     Current dimensions of program PWSCF are:
     Max number of different atomic species (ntypx) = 10
     Max number of k-points (npk) =  40000
     Max angular momentum in pseudopotentials (lmaxx) =  3
               file K.pz-spn-kjpaw_psl.1.0.0.UPF: wavefunction(s)  3S renormalized

     Subspace diagonalization in iterative solution of the eigenvalue problem:
     a serial algorithm will be used


     Parallelization info
     --------------------
     sticks:   dense  smooth     PW     G-vecs:    dense   smooth      PW
     Min         175     175     52                 3283     3283     531
     Max         175     175     53                 3283     3283     533
     Sum         875     875    261                16415    16415    2659



     bravais-lattice index     =            3
     lattice parameter (alat)  =       9.8600  a.u.
     unit-cell volume          =     479.2926 (a.u.)^3
     number of atoms/cell      =            1
     number of atomic types    =            1
     number of electrons       =         9.00
     number of Kohn-Sham states=            9
     kinetic-energy cutoff     =      40.0000  Ry
     charge density cutoff     =     160.0000  Ry
     convergence threshold     =      1.0E-08
     mixing beta               =       0.7000
     number of iterations used =            8  plain     mixing
     Exchange-correlation      = SLA PZ NOGX NOGC ( 1  1  0  0 0 0)

     celldm(1)=   9.860000  celldm(2)=   0.000000  celldm(3)=   0.000000
     celldm(4)=   0.000000  celldm(5)=   0.000000  celldm(6)=   0.000000

     crystal axes: (cart. coord. in units of alat)
               a(1) = (   0.500000   0.500000   0.500000 )  
               a(2) = (  -0.500000   0.500000   0.500000 )  
               a(3) = (  -0.500000  -0.500000   0.500000 )  

     reciprocal axes: (cart. coord. in units 2 pi/alat)
               b(1) = (  1.000000  0.000000  1.000000 )  
               b(2) = ( -1.000000  1.000000  0.000000 )  
               b(3) = (  0.000000 -1.000000  1.000000 )  


     PseudoPot. # 1 for K  read from file:
     /home/lorenzo/pseudos/K/K.pz-spn-kjpaw_psl.1.0.0.UPF
     MD5 check sum: 59b94f4c1a6681f21e103574f2c5fc67
     Pseudo is Projector augmented-wave + core cor, Zval =  9.0
     Generated using "atomic" code by A. Dal Corso v.6.2.2
     Shape of augmentation charge: PSQ
     Using radial grid of 1165 points,  6 beta functions with: 
                l(1) =   0
                l(2) =   0
                l(3) =   1
                l(4) =   1
                l(5) =   2
                l(6) =   2
     Q(r) pseudized with 0 coefficients 


     atomic species   valence    mass     pseudopotential
        K              9.00    39.09830     K ( 1.00)

     48 Sym. Ops., with inversion, found



   Cartesian axes

     site n.     atom                  positions (alat units)
         1           K   tau(   1) = (   0.0000000   0.0000000   0.0000000  )

     number of k points=    20  gaussian smearing, width (Ry)=  0.0100
                       cart. coord. in units 2pi/alat
        k(    1) = (   0.0000000   0.0000000   0.0000000), wk =   0.0058309
        k(    2) = (   0.0000000  -0.1428571   0.1428571), wk =   0.0699708
        k(    3) = (   0.0000000  -0.2857143   0.2857143), wk =   0.0699708
        k(    4) = (   0.0000000  -0.4285714   0.4285714), wk =   0.0699708
        k(    5) = (  -0.1428571  -0.1428571   0.2857143), wk =   0.1399417
        k(    6) = (  -0.1428571  -0.2857143   0.4285714), wk =   0.2798834
        k(    7) = (  -0.1428571   0.5714286  -0.4285714), wk =   0.1399417
        k(    8) = (  -0.2857143   0.7142857  -0.4285714), wk =   0.1399417
        k(    9) = (   0.0000000   0.0000000   0.2857143), wk =   0.0349854
        k(   10) = (   0.0000000  -0.1428571   0.4285714), wk =   0.1399417
        k(   11) = (   0.0000000  -0.2857143   0.5714286), wk =   0.1399417
        k(   12) = (  -0.1428571  -0.1428571   0.5714286), wk =   0.1399417
        k(   13) = (  -0.1428571   0.7142857  -0.2857143), wk =   0.1399417
        k(   14) = (  -0.2857143   0.2857143   0.2857143), wk =   0.0466472
        k(   15) = (   0.5714286  -0.5714286   0.2857143), wk =   0.1399417
        k(   16) = (   0.4285714  -0.5714286   0.4285714), wk =   0.0466472
        k(   17) = (   0.0000000   0.0000000   0.5714286), wk =   0.0349854
        k(   18) = (   0.0000000  -0.1428571   0.7142857), wk =   0.1399417
        k(   19) = (  -0.1428571   0.8571429  -0.1428571), wk =   0.0466472
        k(   20) = (   0.0000000   0.0000000   0.8571429), wk =   0.0349854

     Dense  grid:    16415 G-vectors     FFT dimensions: (  36,  36,  36)

     Estimated max dynamical RAM per process >      15.03 MB

     Estimated total dynamical RAM >      75.15 MB

     Check: negative/imaginary core charge=   -0.000011    0.000000

     Initial potential from superposition of free atoms

     starting charge    8.98437, renormalised to    9.00000
     Starting wfcs are    8 randomized atomic wfcs +    1 random wfcs
     Checking if some PAW data can be deallocated... 

     total cpu time spent up to now is        1.1 secs

     Self-consistent Calculation

     iteration #  1     ecut=    40.00 Ry     beta= 0.70
     Davidson diagonalization with overlap
     ethr =  1.00E-02,  avg # of iterations =  6.5

     Threshold (ethr) on eigenvalues was too large:
     Diagonalizing with lowered threshold

     Davidson diagonalization with overlap
     ethr =  1.24E-05,  avg # of iterations =  7.3

     total cpu time spent up to now is        2.2 secs

     total energy              =    -109.87034360 Ry
     Harris-Foulkes estimate   =    -109.87089279 Ry
     estimated scf accuracy    <       0.00111751 Ry

     iteration #  2     ecut=    40.00 Ry     beta= 0.70
     Davidson diagonalization with overlap
     ethr =  1.24E-05,  avg # of iterations =  2.1

     total cpu time spent up to now is        2.6 secs

     total energy              =    -109.87052474 Ry
     Harris-Foulkes estimate   =    -109.87054907 Ry
     estimated scf accuracy    <       0.00008662 Ry

     iteration #  3     ecut=    40.00 Ry     beta= 0.70
     Davidson diagonalization with overlap
     ethr =  9.62E-07,  avg # of iterations =  2.3

     total cpu time spent up to now is        3.1 secs

     total energy              =    -109.87053595 Ry
     Harris-Foulkes estimate   =    -109.87053569 Ry
     estimated scf accuracy    <       0.00000591 Ry

     iteration #  4     ecut=    40.00 Ry     beta= 0.70
     Davidson diagonalization with overlap
     ethr =  6.57E-08,  avg # of iterations =  1.4

     total cpu time spent up to now is        3.4 secs

     total energy              =    -109.87053665 Ry
     Harris-Foulkes estimate   =    -109.87053664 Ry
     estimated scf accuracy    <       0.00000004 Ry

     iteration #  5     ecut=    40.00 Ry     beta= 0.70
     Davidson diagonalization with overlap
     ethr =  4.87E-10,  avg # of iterations =  2.5

     total cpu time spent up to now is        3.8 secs

     End of self-consistent calculation

          k = 0.0000 0.0000 0.0000 (  2093 PWs)   bands (ev):

   -30.0967 -13.7348 -13.7348 -13.7348  -0.4764   5.9297   5.9297   5.9297
     6.8751

          k = 0.0000-0.1429 0.1429 (  2050 PWs)   bands (ev):

   -30.0955 -13.7500 -13.7398 -13.7347  -0.2157   5.5213   5.6503   6.1386
     6.6342

          k = 0.0000-0.2857 0.2857 (  2056 PWs)   bands (ev):

   -30.0933 -13.7839 -13.7511 -13.7347   0.5294   4.3401   5.1738   6.7082
     6.7461

          k = 0.0000-0.4286 0.4286 (  2052 PWs)   bands (ev):

   -30.0916 -13.8106 -13.7602 -13.7347   1.6419   3.0144   4.8752   6.5870
     7.2092

          k =-0.1429-0.1429 0.2857 (  2047 PWs)   bands (ev):

   -30.0939 -13.7732 -13.7458 -13.7383   0.2881   4.8546   5.1290   6.4799
     6.4923

          k =-0.1429-0.2857 0.4286 (  2045 PWs)   bands (ev):

   -30.0919 -13.7986 -13.7594 -13.7396   1.2257   3.7519   4.6635   6.4859
     6.9126

          k =-0.1429 0.5714-0.4286 (  2054 PWs)   bands (ev):

   -30.0911 -13.8093 -13.7663 -13.7399   2.3450   2.5751   4.5034   6.2768
     7.2972

          k =-0.2857 0.7143-0.4286 (  2061 PWs)   bands (ev):

   -30.0909 -13.7987 -13.7773 -13.7441   2.2793   3.3125   3.7295   6.3045
     6.8387

          k = 0.0000 0.0000 0.2857 (  2054 PWs)   bands (ev):

   -30.0946 -13.7533 -13.7450 -13.7450   0.0397   5.5431   5.5431   5.7330
     6.2286

          k = 0.0000-0.1429 0.4286 (  2063 PWs)   bands (ev):

   -30.0925 -13.7821 -13.7567 -13.7466   0.7695   4.4293   5.2014   5.7492
     6.7599

          k = 0.0000-0.2857 0.5714 (  2051 PWs)   bands (ev):

   -30.0908 -13.8067 -13.7660 -13.7458   1.8634   3.1604   4.9529   5.6626
     7.0179

          k =-0.1429-0.1429 0.5714 (  2057 PWs)   bands (ev):

   -30.0907 -13.7965 -13.7716 -13.7519   1.6636   3.8104   4.5312   5.8831
     6.5726

          k =-0.1429 0.7143-0.2857 (  2047 PWs)   bands (ev):

   -30.0898 -13.8021 -13.7810 -13.7521   2.7955   2.8293   4.1261   5.9596
     6.7012

          k =-0.2857 0.2857 0.2857 (  2061 PWs)   bands (ev):

   -30.0925 -13.7934 -13.7475 -13.7475   1.0036   4.3129   4.3129   6.4684
     7.0945

          k = 0.5714-0.5714 0.2857 (  2051 PWs)   bands (ev):

   -30.0913 -13.7992 -13.7652 -13.7489   2.0821   3.2882   4.0413   5.8024
     7.2491

          k = 0.4286-0.5714 0.4286 (  2049 PWs)   bands (ev):

   -30.0910 -13.7819 -13.7819 -13.7565   3.0627   3.0627   3.3594   5.1835
     7.3721

          k = 0.0000 0.0000 0.5714 (  2050 PWs)   bands (ev):

   -30.0906 -13.7818 -13.7690 -13.7690   1.4485   4.2918   5.1889   5.1889
     6.3008

          k = 0.0000-0.1429 0.7143 (  2040 PWs)   bands (ev):

   -30.0890 -13.7980 -13.7789 -13.7705   2.4386   3.5008   4.9078   5.1213
     6.1352

          k =-0.1429 0.8571-0.1429 (  2040 PWs)   bands (ev):

   -30.0883 -13.7932 -13.7932 -13.7731   3.2017   3.2017   4.2462   5.7758
     5.7758

          k = 0.0000 0.0000 0.8571 (  2006 PWs)   bands (ev):

   -30.0874 -13.7917 -13.7892 -13.7892   3.1097   3.5018   5.2236   5.2450
     5.2450

     the Fermi energy is     1.7338 ev

!    total energy              =    -109.87053666 Ry
     Harris-Foulkes estimate   =    -109.87053667 Ry
     estimated scf accuracy    <          3.5E-09 Ry

     total all-electron energy =     -1201.195536 Ry

     The total energy is the sum of the following terms:

     one-electron contribution =     -35.36401891 Ry
     hartree contribution      =      18.82395182 Ry
     xc contribution           =     -11.01722199 Ry
     ewald contribution        =     -29.89633978 Ry
     one-center paw contrib.   =     -52.41631910 Ry
     smearing contrib. (-TS)   =      -0.00058870 Ry

     convergence has been achieved in   5 iterations

     Forces acting on atoms (cartesian axes, Ry/au):

     atom    1 type  1   force =     0.00000000    0.00000000    0.00000000

     Total force =     0.000000     Total SCF correction =     0.000000


     Computing stress (Cartesian axis) and pressure

          total   stress  (Ry/bohr**3)                   (kbar)     P=   -4.65
  -0.00003162  -0.00000000   0.00000000         -4.65     -0.00      0.00
  -0.00000000  -0.00003162  -0.00000000         -0.00     -4.65     -0.00
   0.00000000  -0.00000000  -0.00003162          0.00     -0.00     -4.65


     Writing output data file K.save/

     init_run     :      0.36s CPU      0.37s WALL (       1 calls)
     electrons    :      2.62s CPU      2.76s WALL (       1 calls)
     forces       :      0.08s CPU      0.08s WALL (       1 calls)
     stress       :      0.21s CPU      0.21s WALL (       1 calls)

     Called by init_run:
     wfcinit      :      0.11s CPU      0.12s WALL (       1 calls)
     potinit      :      0.06s CPU      0.06s WALL (       1 calls)
     hinit0       :      0.16s CPU      0.16s WALL (       1 calls)

     Called by electrons:
     c_bands      :      1.91s CPU      2.02s WALL (       6 calls)
     sum_band     :      0.41s CPU      0.43s WALL (       6 calls)
     v_of_rho     :      0.01s CPU      0.01s WALL (       6 calls)
     newd         :      0.09s CPU      0.10s WALL (       6 calls)
     PAW_pot      :      0.26s CPU      0.26s WALL (       6 calls)
     mix_rho      :      0.00s CPU      0.00s WALL (       6 calls)

     Called by c_bands:
     init_us_2    :      0.07s CPU      0.08s WALL (     300 calls)
     cegterg      :      1.82s CPU      1.93s WALL (     120 calls)

     Called by sum_band:
     sum_band:bec :      0.00s CPU      0.00s WALL (     120 calls)
     addusdens    :      0.09s CPU      0.10s WALL (       6 calls)

     Called by *egterg:
     h_psi        :      1.48s CPU      1.58s WALL (     584 calls)
     s_psi        :      0.05s CPU      0.05s WALL (     584 calls)
     g_psi        :      0.01s CPU      0.01s WALL (     444 calls)
     cdiaghg      :      0.12s CPU      0.13s WALL (     544 calls)

     Called by h_psi:
     h_psi:pot    :      1.47s CPU      1.57s WALL (     584 calls)
     h_psi:calbec :      0.08s CPU      0.08s WALL (     584 calls)
     vloc_psi     :      1.34s CPU      1.43s WALL (     584 calls)
     add_vuspsi   :      0.05s CPU      0.05s WALL (     584 calls)

     General routines
     calbec       :      0.14s CPU      0.15s WALL (     804 calls)
     fft          :      0.02s CPU      0.02s WALL (      34 calls)
     ffts         :      0.00s CPU      0.00s WALL (       6 calls)
     fftw         :      1.46s CPU      1.56s WALL (    7624 calls)

     Parallel routines
     fft_scatt_xy :      0.12s CPU      0.13s WALL (    7664 calls)
     fft_scatt_yz :      0.35s CPU      0.38s WALL (    7664 calls)

     PWSCF        :     4.02s CPU         4.22s WALL


   This run was terminated on:   0:27:27   8Apr2024            

=------------------------------------------------------------------------------=
   JOB DONE.
=------------------------------------------------------------------------------=
