
     Program PWSCF v.6.3MaX starts on  8Apr2024 at  0:19:49 

     This program is part of the open-source Quantum ESPRESSO suite
     for quantum simulation of materials; please cite
         "P. Giannozzi et al., J. Phys.:Condens. Matter 21 395502 (2009);
         "P. Giannozzi et al., J. Phys.:Condens. Matter 29 465901 (2017);
          URL http://www.quantum-espresso.org", 
     in publications or presentations arising from this work. More details at
     http://www.quantum-espresso.org/quote

     Parallel version (MPI), running on     5 processors

     MPI processes distributed on     1 nodes
     R & G space division:  proc/nbgrp/npool/nimage =       5
     Waiting for input...
     Reading input from standard input

     Current dimensions of program PWSCF are:
     Max number of different atomic species (ntypx) = 10
     Max number of k-points (npk) =  40000
     Max angular momentum in pseudopotentials (lmaxx) =  3
               file K.pbe-spn-kjpaw_psl.1.0.0.UPF: wavefunction(s)  3S renormalized

     Subspace diagonalization in iterative solution of the eigenvalue problem:
     a serial algorithm will be used


     Parallelization info
     --------------------
     sticks:   dense  smooth     PW     G-vecs:    dense   smooth      PW
     Min         131     131     41                 2128     2128     373
     Max         132     132     41                 2129     2129     373
     Sum         657     657    205                10641    10641    1865



     bravais-lattice index     =            3
     lattice parameter (alat)  =       9.8600  a.u.
     unit-cell volume          =     479.2926 (a.u.)^3
     number of atoms/cell      =            1
     number of atomic types    =            1
     number of electrons       =         9.00
     number of Kohn-Sham states=            9
     kinetic-energy cutoff     =      30.0000  Ry
     charge density cutoff     =     120.0000  Ry
     convergence threshold     =      1.0E-08
     mixing beta               =       0.7000
     number of iterations used =            8  plain     mixing
     Exchange-correlation      = SLA PW PBX PBC ( 1  4  3  4 0 0)

     celldm(1)=   9.860000  celldm(2)=   0.000000  celldm(3)=   0.000000
     celldm(4)=   0.000000  celldm(5)=   0.000000  celldm(6)=   0.000000

     crystal axes: (cart. coord. in units of alat)
               a(1) = (   0.500000   0.500000   0.500000 )  
               a(2) = (  -0.500000   0.500000   0.500000 )  
               a(3) = (  -0.500000  -0.500000   0.500000 )  

     reciprocal axes: (cart. coord. in units 2 pi/alat)
               b(1) = (  1.000000  0.000000  1.000000 )  
               b(2) = ( -1.000000  1.000000  0.000000 )  
               b(3) = (  0.000000 -1.000000  1.000000 )  


     PseudoPot. # 1 for K  read from file:
     /home/lorenzo/pseudos/K/K.pbe-spn-kjpaw_psl.1.0.0.UPF
     MD5 check sum: 34cc42130a09071ebe376fd42eb21491
     Pseudo is Projector augmented-wave + core cor, Zval =  9.0
     Generated using "atomic" code by A. Dal Corso v.6.2.2
     Shape of augmentation charge: PSQ
     Using radial grid of 1165 points,  6 beta functions with: 
                l(1) =   0
                l(2) =   0
                l(3) =   1
                l(4) =   1
                l(5) =   2
                l(6) =   2
     Q(r) pseudized with 0 coefficients 


     atomic species   valence    mass     pseudopotential
        K              9.00    39.09830     K ( 1.00)

     48 Sym. Ops., with inversion, found



   Cartesian axes

     site n.     atom                  positions (alat units)
         1           K   tau(   1) = (   0.0000000   0.0000000   0.0000000  )

     number of k points=     3  gaussian smearing, width (Ry)=  0.0100
                       cart. coord. in units 2pi/alat
        k(    1) = (   0.0000000   0.0000000   0.0000000), wk =   0.2500000
        k(    2) = (   0.0000000   0.5000000  -0.5000000), wk =   1.5000000
        k(    3) = (   0.0000000   0.0000000  -1.0000000), wk =   0.2500000

     Dense  grid:    10641 G-vectors     FFT dimensions: (  30,  30,  30)

     Estimated max dynamical RAM per process >       9.39 MB

     Estimated total dynamical RAM >      46.93 MB

     Check: negative/imaginary core charge=   -0.000029    0.000000

     Initial potential from superposition of free atoms

     starting charge    8.98117, renormalised to    9.00000
     Starting wfcs are    8 randomized atomic wfcs +    1 random wfcs
     Checking if some PAW data can be deallocated... 

     total cpu time spent up to now is        1.2 secs

     Self-consistent Calculation

     iteration #  1     ecut=    30.00 Ry     beta= 0.70
     Davidson diagonalization with overlap
     ethr =  1.00E-02,  avg # of iterations =  8.7

     Threshold (ethr) on eigenvalues was too large:
     Diagonalizing with lowered threshold

     Davidson diagonalization with overlap
     ethr =  6.09E-06,  avg # of iterations = 10.3

     total cpu time spent up to now is        1.5 secs

     total energy              =    -112.96723478 Ry
     Harris-Foulkes estimate   =    -112.96762747 Ry
     estimated scf accuracy    <       0.00056112 Ry

     iteration #  2     ecut=    30.00 Ry     beta= 0.70
     Davidson diagonalization with overlap
     ethr =  6.23E-06,  avg # of iterations =  2.0

     total cpu time spent up to now is        1.8 secs

     total energy              =    -112.96738988 Ry
     Harris-Foulkes estimate   =    -112.96740701 Ry
     estimated scf accuracy    <       0.00003420 Ry

     iteration #  3     ecut=    30.00 Ry     beta= 0.70
     Davidson diagonalization with overlap
     ethr =  3.80E-07,  avg # of iterations =  2.0

     total cpu time spent up to now is        1.9 secs

     total energy              =    -112.96739780 Ry
     Harris-Foulkes estimate   =    -112.96739669 Ry
     estimated scf accuracy    <       0.00000068 Ry

     iteration #  4     ecut=    30.00 Ry     beta= 0.70
     Davidson diagonalization with overlap
     ethr =  7.55E-09,  avg # of iterations =  2.0

     total cpu time spent up to now is        2.1 secs

     End of self-consistent calculation

          k = 0.0000 0.0000 0.0000 (  1289 PWs)   bands (ev):

   -30.0467 -13.4938 -13.4938 -13.4938  -0.2044   6.3265   6.3265   6.3265
     7.2830

          k = 0.0000 0.5000-0.5000 (  1340 PWs)   bands (ev):

   -30.0419 -13.5731 -13.5222 -13.4959   2.4426   2.7209   5.1764   6.9407
     7.7949

          k = 0.0000 0.0000-1.0000 (  1312 PWs)   bands (ev):

   -30.0380 -13.5512 -13.5512 -13.5512   3.6851   5.5539   5.5539   5.5539
     7.7078

     the Fermi energy is     2.4421 ev

!    total energy              =    -112.96739794 Ry
     Harris-Foulkes estimate   =    -112.96739792 Ry
     estimated scf accuracy    <          7.9E-09 Ry

     total all-electron energy =     -1204.206108 Ry

     The total energy is the sum of the following terms:

     one-electron contribution =     -35.43056049 Ry
     hartree contribution      =      18.95418114 Ry
     xc contribution           =     -11.17464468 Ry
     ewald contribution        =     -29.89633973 Ry
     one-center paw contrib.   =     -55.41573915 Ry
     smearing contrib. (-TS)   =      -0.00429504 Ry

     convergence has been achieved in   4 iterations

     Forces acting on atoms (cartesian axes, Ry/au):

     atom    1 type  1   force =     0.00000000    0.00000000    0.00000000

     Total force =     0.000000     Total SCF correction =     0.000000


     Computing stress (Cartesian axis) and pressure

          total   stress  (Ry/bohr**3)                   (kbar)     P=   -0.51
  -0.00000348   0.00000000  -0.00000000         -0.51      0.00     -0.00
   0.00000000  -0.00000348   0.00000000          0.00     -0.51      0.00
  -0.00000000   0.00000000  -0.00000348         -0.00      0.00     -0.51


     Writing output data file K.save/

     init_run     :      0.41s CPU      0.44s WALL (       1 calls)
     electrons    :      0.89s CPU      0.93s WALL (       1 calls)
     forces       :      0.05s CPU      0.05s WALL (       1 calls)
     stress       :      0.13s CPU      0.13s WALL (       1 calls)

     Called by init_run:
     wfcinit      :      0.01s CPU      0.01s WALL (       1 calls)
     potinit      :      0.16s CPU      0.18s WALL (       1 calls)
     hinit0       :      0.21s CPU      0.21s WALL (       1 calls)

     Called by electrons:
     c_bands      :      0.22s CPU      0.23s WALL (       5 calls)
     sum_band     :      0.11s CPU      0.12s WALL (       5 calls)
     v_of_rho     :      0.03s CPU      0.03s WALL (       5 calls)
     newd         :      0.07s CPU      0.08s WALL (       5 calls)
     PAW_pot      :      0.57s CPU      0.61s WALL (       5 calls)
     mix_rho      :      0.00s CPU      0.00s WALL (       5 calls)

     Called by c_bands:
     init_us_2    :      0.01s CPU      0.01s WALL (      39 calls)
     cegterg      :      0.21s CPU      0.21s WALL (      15 calls)

     Called by sum_band:
     sum_band:bec :      0.00s CPU      0.00s WALL (      15 calls)
     addusdens    :      0.05s CPU      0.05s WALL (       5 calls)

     Called by *egterg:
     h_psi        :      0.15s CPU      0.16s WALL (      93 calls)
     s_psi        :      0.00s CPU      0.00s WALL (      93 calls)
     g_psi        :      0.00s CPU      0.00s WALL (      75 calls)
     cdiaghg      :      0.03s CPU      0.03s WALL (      87 calls)

     Called by h_psi:
     h_psi:pot    :      0.15s CPU      0.16s WALL (      93 calls)
     h_psi:calbec :      0.01s CPU      0.01s WALL (      93 calls)
     vloc_psi     :      0.13s CPU      0.14s WALL (      93 calls)
     add_vuspsi   :      0.01s CPU      0.01s WALL (      93 calls)

     General routines
     calbec       :      0.03s CPU      0.03s WALL (     123 calls)
     fft          :      0.06s CPU      0.07s WALL (      82 calls)
     ffts         :      0.00s CPU      0.00s WALL (       5 calls)
     fftw         :      0.16s CPU      0.16s WALL (     993 calls)

     Parallel routines
     fft_scatt_xy :      0.01s CPU      0.01s WALL (    1080 calls)
     fft_scatt_yz :      0.10s CPU      0.11s WALL (    1080 calls)

     PWSCF        :     2.27s CPU         2.36s WALL


   This run was terminated on:   0:19:51   8Apr2024            

=------------------------------------------------------------------------------=
   JOB DONE.
=------------------------------------------------------------------------------=
