
     Program PWSCF v.6.3MaX starts on  8Apr2024 at  1:22:36 

     This program is part of the open-source Quantum ESPRESSO suite
     for quantum simulation of materials; please cite
         "P. Giannozzi et al., J. Phys.:Condens. Matter 21 395502 (2009);
         "P. Giannozzi et al., J. Phys.:Condens. Matter 29 465901 (2017);
          URL http://www.quantum-espresso.org", 
     in publications or presentations arising from this work. More details at
     http://www.quantum-espresso.org/quote

     Parallel version (MPI), running on     5 processors

     MPI processes distributed on     1 nodes
     R & G space division:  proc/nbgrp/npool/nimage =       5
     Waiting for input...
     Reading input from standard input

     Current dimensions of program PWSCF are:
     Max number of different atomic species (ntypx) = 10
     Max number of k-points (npk) =  40000
     Max angular momentum in pseudopotentials (lmaxx) =  3
               file K.pbe-spn-rrkjus_psl.1.0.0.UPF: wavefunction(s)  3S renormalized

     Subspace diagonalization in iterative solution of the eigenvalue problem:
     a serial algorithm will be used


     Parallelization info
     --------------------
     sticks:   dense  smooth     PW     G-vecs:    dense   smooth      PW
     Min         369     369    106                10119    10119    1541
     Max         370     370    107                10120    10120    1542
     Sum        1849    1849    531                50597    50597    7707



     bravais-lattice index     =            3
     lattice parameter (alat)  =       9.8600  a.u.
     unit-cell volume          =     479.2926 (a.u.)^3
     number of atoms/cell      =            1
     number of atomic types    =            1
     number of electrons       =         9.00
     number of Kohn-Sham states=            9
     kinetic-energy cutoff     =      85.0000  Ry
     charge density cutoff     =     340.0000  Ry
     convergence threshold     =      1.0E-08
     mixing beta               =       0.7000
     number of iterations used =            8  plain     mixing
     Exchange-correlation      = PBE ( 1  4  3  4 0 0)

     celldm(1)=   9.860000  celldm(2)=   0.000000  celldm(3)=   0.000000
     celldm(4)=   0.000000  celldm(5)=   0.000000  celldm(6)=   0.000000

     crystal axes: (cart. coord. in units of alat)
               a(1) = (   0.500000   0.500000   0.500000 )  
               a(2) = (  -0.500000   0.500000   0.500000 )  
               a(3) = (  -0.500000  -0.500000   0.500000 )  

     reciprocal axes: (cart. coord. in units 2 pi/alat)
               b(1) = (  1.000000  0.000000  1.000000 )  
               b(2) = ( -1.000000  1.000000  0.000000 )  
               b(3) = (  0.000000 -1.000000  1.000000 )  


     PseudoPot. # 1 for K  read from file:
     /home/lorenzo/pseudos/K/K.pbe-spn-rrkjus_psl.1.0.0.UPF
     MD5 check sum: 897b700350bb708b0563e904352feb48
     Pseudo is Ultrasoft + core correction, Zval =  9.0
     Generated using "atomic" code by A. Dal Corso v.6.2.2
     Using radial grid of 1165 points,  6 beta functions with: 
                l(1) =   0
                l(2) =   0
                l(3) =   1
                l(4) =   1
                l(5) =   2
                l(6) =   2
     Q(r) pseudized with 0 coefficients 


     atomic species   valence    mass     pseudopotential
        K              9.00    39.09830     K ( 1.00)

     48 Sym. Ops., with inversion, found



   Cartesian axes

     site n.     atom                  positions (alat units)
         1           K   tau(   1) = (   0.0000000   0.0000000   0.0000000  )

     number of k points=    35  gaussian smearing, width (Ry)=  0.0100
                       cart. coord. in units 2pi/alat
        k(    1) = (   0.0000000   0.0000000   0.0000000), wk =   0.0027435
        k(    2) = (   0.0000000  -0.1111111   0.1111111), wk =   0.0329218
        k(    3) = (   0.0000000  -0.2222222   0.2222222), wk =   0.0329218
        k(    4) = (   0.0000000  -0.3333333   0.3333333), wk =   0.0329218
        k(    5) = (   0.0000000  -0.4444444   0.4444444), wk =   0.0329218
        k(    6) = (  -0.1111111  -0.1111111   0.2222222), wk =   0.0658436
        k(    7) = (  -0.1111111  -0.2222222   0.3333333), wk =   0.1316872
        k(    8) = (  -0.1111111  -0.3333333   0.4444444), wk =   0.1316872
        k(    9) = (  -0.1111111   0.5555556  -0.4444444), wk =   0.0658436
        k(   10) = (  -0.2222222  -0.2222222   0.4444444), wk =   0.0658436
        k(   11) = (  -0.2222222   0.6666667  -0.4444444), wk =   0.1316872
        k(   12) = (  -0.3333333   0.6666667  -0.3333333), wk =   0.0219479
        k(   13) = (   0.0000000   0.0000000   0.2222222), wk =   0.0164609
        k(   14) = (   0.0000000  -0.1111111   0.3333333), wk =   0.0658436
        k(   15) = (   0.0000000  -0.2222222   0.4444444), wk =   0.0658436
        k(   16) = (   0.0000000  -0.3333333   0.5555556), wk =   0.0658436
        k(   17) = (  -0.1111111  -0.1111111   0.4444444), wk =   0.0658436
        k(   18) = (  -0.1111111  -0.2222222   0.5555556), wk =   0.1316872
        k(   19) = (  -0.1111111   0.6666667  -0.3333333), wk =   0.0658436
        k(   20) = (  -0.2222222   0.2222222   0.2222222), wk =   0.0219479
        k(   21) = (  -0.2222222   0.7777778  -0.3333333), wk =   0.0658436
        k(   22) = (  -0.3333333   0.3333333   0.2222222), wk =   0.0658436
        k(   23) = (   0.5555556  -0.5555556   0.2222222), wk =   0.0658436
        k(   24) = (   0.5555556  -0.6666667   0.3333333), wk =   0.0658436
        k(   25) = (   0.4444444  -0.5555556   0.3333333), wk =   0.0658436
        k(   26) = (   0.0000000   0.0000000   0.4444444), wk =   0.0164609
        k(   27) = (   0.0000000  -0.1111111   0.5555556), wk =   0.0658436
        k(   28) = (   0.0000000  -0.2222222   0.6666667), wk =   0.0658436
        k(   29) = (  -0.1111111  -0.1111111   0.6666667), wk =   0.0658436
        k(   30) = (  -0.1111111   0.7777778  -0.2222222), wk =   0.0658436
        k(   31) = (   0.5555556  -0.5555556   0.4444444), wk =   0.0219479
        k(   32) = (   0.0000000   0.0000000   0.6666667), wk =   0.0164609
        k(   33) = (   0.0000000  -0.1111111   0.7777778), wk =   0.0658436
        k(   34) = (  -0.1111111   0.8888889  -0.1111111), wk =   0.0219479
        k(   35) = (   0.0000000   0.0000000   0.8888889), wk =   0.0164609

     Dense  grid:    50597 G-vectors     FFT dimensions: (  54,  54,  54)

     Estimated max dynamical RAM per process >      46.39 MB

     Estimated total dynamical RAM >     231.93 MB

     Check: negative/imaginary core charge=   -0.000001    0.000000

     Initial potential from superposition of free atoms

     starting charge    8.98117, renormalised to    9.00000
     Starting wfcs are    8 randomized atomic wfcs +    1 random wfcs

     total cpu time spent up to now is        1.8 secs

     Self-consistent Calculation

     iteration #  1     ecut=    85.00 Ry     beta= 0.70
     Davidson diagonalization with overlap
     ethr =  1.00E-02,  avg # of iterations =  6.5

     Threshold (ethr) on eigenvalues was too large:
     Diagonalizing with lowered threshold

     Davidson diagonalization with overlap
     ethr =  1.43E-05,  avg # of iterations =  6.8

     total cpu time spent up to now is        8.2 secs

     total energy              =     -58.77408419 Ry
     Harris-Foulkes estimate   =     -58.77461783 Ry
     estimated scf accuracy    <       0.00127688 Ry

     iteration #  2     ecut=    85.00 Ry     beta= 0.70
     Davidson diagonalization with overlap
     ethr =  1.42E-05,  avg # of iterations =  2.6

     total cpu time spent up to now is       10.4 secs

     total energy              =     -58.77431911 Ry
     Harris-Foulkes estimate   =     -58.77432204 Ry
     estimated scf accuracy    <       0.00010206 Ry

     iteration #  3     ecut=    85.00 Ry     beta= 0.70
     Davidson diagonalization with overlap
     ethr =  1.13E-06,  avg # of iterations =  2.1

     total cpu time spent up to now is       12.3 secs

     total energy              =     -58.77432896 Ry
     Harris-Foulkes estimate   =     -58.77432638 Ry
     estimated scf accuracy    <       0.00000695 Ry

     iteration #  4     ecut=    85.00 Ry     beta= 0.70
     Davidson diagonalization with overlap
     ethr =  7.72E-08,  avg # of iterations =  1.7

     total cpu time spent up to now is       14.0 secs

     total energy              =     -58.77432963 Ry
     Harris-Foulkes estimate   =     -58.77432962 Ry
     estimated scf accuracy    <       0.00000005 Ry

     iteration #  5     ecut=    85.00 Ry     beta= 0.70
     Davidson diagonalization with overlap
     ethr =  5.41E-10,  avg # of iterations =  2.5

     total cpu time spent up to now is       15.9 secs

     End of self-consistent calculation

          k = 0.0000 0.0000 0.0000 (  6363 PWs)   bands (ev):

   -30.1658 -13.6141 -13.6141 -13.6141  -0.2616   6.2635   6.2635   6.2635
     7.1812

          k = 0.0000-0.1111 0.1111 (  6371 PWs)   bands (ev):

   -30.1652 -13.6232 -13.6171 -13.6141  -0.1041   6.0104   6.0705   6.3895
     6.9675

          k = 0.0000-0.2222 0.2222 (  6367 PWs)   bands (ev):

   -30.1638 -13.6460 -13.6247 -13.6140   0.3553   5.1571   5.6805   6.7608
     6.9768

          k = 0.0000-0.3333 0.3333 (  6344 PWs)   bands (ev):

   -30.1621 -13.6716 -13.6333 -13.6140   1.0773   4.1197   5.3356   7.0333
     7.2489

          k = 0.0000-0.4444 0.4444 (  6320 PWs)   bands (ev):

   -30.1611 -13.6882 -13.6389 -13.6140   1.9916   3.0629   5.1449   6.9038
     7.5601

          k =-0.1111-0.1111 0.2222 (  6361 PWs)   bands (ev):

   -30.1642 -13.6389 -13.6204 -13.6162   0.2045   5.5222   5.6926   6.6172
     6.8004

          k =-0.1111-0.2222 0.3333 (  6363 PWs)   bands (ev):

   -30.1627 -13.6612 -13.6296 -13.6171   0.7964   4.6502   5.2736   6.8304
     7.0159

          k =-0.1111-0.3333 0.4444 (  6343 PWs)   bands (ev):

   -30.1613 -13.6801 -13.6386 -13.6173   1.6201   3.6474   5.0021   6.7738
     7.4248

          k =-0.1111 0.5556-0.4444 (  6315 PWs)   bands (ev):

   -30.1608 -13.6874 -13.6423 -13.6174   2.5094   2.7031   4.9075   6.6540
     7.6633

          k =-0.2222-0.2222 0.4444 (  6348 PWs)   bands (ev):

   -30.1614 -13.6736 -13.6396 -13.6209   1.4930   4.1232   4.6544   6.9386
     6.9438

          k =-0.2222 0.6667-0.4444 (  6321 PWs)   bands (ev):

   -30.1606 -13.6785 -13.6504 -13.6221   2.3794   3.3349   4.2971   6.6263
     7.2539

          k =-0.3333 0.6667-0.3333 (  6326 PWs)   bands (ev):

   -30.1603 -13.6666 -13.6666 -13.6237   3.1568   3.1568   3.5775   6.5948
     7.3432

          k = 0.0000 0.0000 0.2222 (  6375 PWs)   bands (ev):

   -30.1647 -13.6256 -13.6201 -13.6201   0.0514   5.9740   5.9740   6.3456
     6.4470

          k = 0.0000-0.1111 0.3333 (  6348 PWs)   bands (ev):

   -30.1632 -13.6457 -13.6279 -13.6214   0.5049   5.2033   5.6666   6.2129
     6.7770

          k = 0.0000-0.2222 0.4444 (  6341 PWs)   bands (ev):

   -30.1616 -13.6700 -13.6367 -13.6209   1.2178   4.1889   5.3624   6.2625
     7.3527

          k = 0.0000-0.3333 0.5556 (  6340 PWs)   bands (ev):

   -30.1606 -13.6858 -13.6424 -13.6206   2.1236   3.1562   5.1891   6.1746
     7.4850

          k =-0.1111-0.1111 0.4444 (  6344 PWs)   bands (ev):

   -30.1618 -13.6616 -13.6370 -13.6257   1.0808   4.6158   5.2403   6.1651
     7.0905

          k =-0.1111-0.2222 0.5556 (  6344 PWs)   bands (ev):

   -30.1605 -13.6768 -13.6469 -13.6263   1.8820   3.7886   4.8513   6.2364
     7.1102

          k =-0.1111 0.6667-0.3333 (  6324 PWs)   bands (ev):

   -30.1600 -13.6829 -13.6509 -13.6262   2.8121   2.8411   4.7138   6.1741
     7.2762

          k =-0.2222 0.2222 0.2222 (  6366 PWs)   bands (ev):

   -30.1631 -13.6578 -13.6211 -13.6211   0.6522   5.0365   5.0366   6.8545
     7.2418

          k =-0.2222 0.7778-0.3333 (  6331 PWs)   bands (ev):

   -30.1598 -13.6754 -13.6613 -13.6278   2.7152   3.4541   4.0400   6.6389
     6.8904

          k =-0.3333 0.3333 0.2222 (  6353 PWs)   bands (ev):

   -30.1618 -13.6729 -13.6329 -13.6220   1.3588   4.1942   4.6982   6.7952
     7.3780

          k = 0.5556-0.5556 0.2222 (  6346 PWs)   bands (ev):

   -30.1609 -13.6803 -13.6430 -13.6225   2.2570   3.2479   4.5268   6.4480
     7.5909

          k = 0.5556-0.6667 0.3333 (  6365 PWs)   bands (ev):

   -30.1610 -13.6745 -13.6425 -13.6283   2.1426   3.7947   4.1227   6.1700
     7.5114

          k = 0.4444-0.5556 0.3333 (  6343 PWs)   bands (ev):

   -30.1607 -13.6702 -13.6522 -13.6297   3.0076   3.0753   3.9300   5.8700
     7.6154

          k = 0.0000 0.0000 0.4444 (  6355 PWs)   bands (ev):

   -30.1619 -13.6486 -13.6360 -13.6360   0.9404   5.0914   5.5705   5.5705
     6.9603

          k = 0.0000-0.1111 0.5556 (  6340 PWs)   bands (ev):

   -30.1604 -13.6661 -13.6451 -13.6381   1.6222   4.3135   5.4103   5.5635
     6.8803

          k = 0.0000-0.2222 0.6667 (  6329 PWs)   bands (ev):

   -30.1595 -13.6797 -13.6511 -13.6371   2.4821   3.4198   5.2989   5.3834
     6.9028

          k =-0.1111-0.1111 0.6667 (  6328 PWs)   bands (ev):

   -30.1593 -13.6731 -13.6565 -13.6414   2.3621   3.8666   4.8046   5.8547
     6.5012

          k =-0.1111 0.7778-0.2222 (  6326 PWs)   bands (ev):

   -30.1588 -13.6759 -13.6625 -13.6413   3.1093   3.2819   4.4709   5.9654
     6.5778

          k = 0.5556-0.5556 0.4444 (  6347 PWs)   bands (ev):

   -30.1607 -13.6637 -13.6444 -13.6444   2.9324   3.6331   3.6331   5.3473
     7.7558

          k = 0.0000 0.0000 0.6667 (  6346 PWs)   bands (ev):

   -30.1591 -13.6643 -13.6547 -13.6547   2.2384   4.1493   5.4271   5.4271
     6.0568

          k = 0.0000-0.1111 0.7778 (  6344 PWs)   bands (ev):

   -30.1582 -13.6728 -13.6609 -13.6557   2.9648   3.6833   5.1075   5.4178
     6.1136

          k =-0.1111 0.8889-0.1111 (  6350 PWs)   bands (ev):

   -30.1578 -13.6697 -13.6697 -13.6572   3.4564   3.4564   4.7973   5.8445
     5.8445

          k = 0.0000 0.0000 0.8889 (  6346 PWs)   bands (ev):

   -30.1573 -13.6688 -13.6673 -13.6673   3.4182   3.6609   5.4797   5.4903
     5.4903

     the Fermi energy is     1.9569 ev

!    total energy              =     -58.77432964 Ry
     Harris-Foulkes estimate   =     -58.77432964 Ry
     estimated scf accuracy    <          1.3E-09 Ry

     The total energy is the sum of the following terms:

     one-electron contribution =     -36.58802191 Ry
     hartree contribution      =      18.88030544 Ry
     xc contribution           =     -11.16983846 Ry
     ewald contribution        =     -29.89633970 Ry
     smearing contrib. (-TS)   =      -0.00043500 Ry

     convergence has been achieved in   5 iterations

     Forces acting on atoms (cartesian axes, Ry/au):

     atom    1 type  1   force =     0.00000000    0.00000000    0.00000000

     Total force =     0.000000     Total SCF correction =     0.000000


     Computing stress (Cartesian axis) and pressure

          total   stress  (Ry/bohr**3)                   (kbar)     P=    1.28
   0.00000870   0.00000000  -0.00000000          1.28      0.00     -0.00
   0.00000000   0.00000870   0.00000000          0.00      1.28      0.00
  -0.00000000   0.00000000   0.00000870         -0.00      0.00      1.28


     Writing output data file K.save/

     init_run     :      1.00s CPU      1.04s WALL (       1 calls)
     electrons    :     13.68s CPU     14.12s WALL (       1 calls)
     forces       :      0.23s CPU      0.23s WALL (       1 calls)
     stress       :      0.89s CPU      0.90s WALL (       1 calls)

     Called by init_run:
     wfcinit      :      0.60s CPU      0.62s WALL (       1 calls)
     potinit      :      0.05s CPU      0.05s WALL (       1 calls)
     hinit0       :      0.23s CPU      0.23s WALL (       1 calls)

     Called by electrons:
     c_bands      :     11.23s CPU     11.58s WALL (       6 calls)
     sum_band     :      2.05s CPU      2.12s WALL (       6 calls)
     v_of_rho     :      0.19s CPU      0.19s WALL (       6 calls)
     newd         :      0.27s CPU      0.28s WALL (       6 calls)
     mix_rho      :      0.01s CPU      0.01s WALL (       6 calls)

     Called by c_bands:
     init_us_2    :      0.41s CPU      0.41s WALL (     525 calls)
     cegterg      :     10.75s CPU     11.09s WALL (     210 calls)

     Called by sum_band:
     sum_band:bec :      0.00s CPU      0.00s WALL (     210 calls)
     addusdens    :      0.27s CPU      0.28s WALL (       6 calls)

     Called by *egterg:
     h_psi        :      9.19s CPU      9.52s WALL (    1022 calls)
     s_psi        :      0.27s CPU      0.27s WALL (    1022 calls)
     g_psi        :      0.03s CPU      0.03s WALL (     777 calls)
     cdiaghg      :      0.25s CPU      0.25s WALL (     952 calls)

     Called by h_psi:
     h_psi:pot    :      9.14s CPU      9.47s WALL (    1022 calls)
     h_psi:calbec :      0.49s CPU      0.51s WALL (    1022 calls)
     vloc_psi     :      8.35s CPU      8.66s WALL (    1022 calls)
     add_vuspsi   :      0.29s CPU      0.30s WALL (    1022 calls)

     General routines
     calbec       :      0.76s CPU      0.78s WALL (    1407 calls)
     fft          :      0.11s CPU      0.12s WALL (      93 calls)
     ffts         :      0.01s CPU      0.01s WALL (       6 calls)
     fftw         :      8.90s CPU      9.23s WALL (   12962 calls)

     Parallel routines
     fft_scatt_xy :      0.76s CPU      0.79s WALL (   13061 calls)
     fft_scatt_yz :      1.81s CPU      1.89s WALL (   13061 calls)

     PWSCF        :    16.57s CPU        17.15s WALL


   This run was terminated on:   1:22:53   8Apr2024            

=------------------------------------------------------------------------------=
   JOB DONE.
=------------------------------------------------------------------------------=
