
     Program PWSCF v.6.3MaX starts on  8Apr2024 at  1: 9:14 

     This program is part of the open-source Quantum ESPRESSO suite
     for quantum simulation of materials; please cite
         "P. Giannozzi et al., J. Phys.:Condens. Matter 21 395502 (2009);
         "P. Giannozzi et al., J. Phys.:Condens. Matter 29 465901 (2017);
          URL http://www.quantum-espresso.org", 
     in publications or presentations arising from this work. More details at
     http://www.quantum-espresso.org/quote

     Parallel version (MPI), running on     5 processors

     MPI processes distributed on     1 nodes
     R & G space division:  proc/nbgrp/npool/nimage =       5
     Waiting for input...
     Reading input from standard input

     Current dimensions of program PWSCF are:
     Max number of different atomic species (ntypx) = 10
     Max number of k-points (npk) =  40000
     Max angular momentum in pseudopotentials (lmaxx) =  3
               file K.pz-spn-rrkjus_psl.1.0.0.UPF: wavefunction(s)  3S renormalized

     Subspace diagonalization in iterative solution of the eigenvalue problem:
     a serial algorithm will be used


     Parallelization info
     --------------------
     sticks:   dense  smooth     PW     G-vecs:    dense   smooth      PW
     Min         351     351     97                 9272     9272    1402
     Max         351     351     98                 9273     9273    1403
     Sum        1755    1755    487                46361    46361    7011



     bravais-lattice index     =            3
     lattice parameter (alat)  =       9.8600  a.u.
     unit-cell volume          =     479.2926 (a.u.)^3
     number of atoms/cell      =            1
     number of atomic types    =            1
     number of electrons       =         9.00
     number of Kohn-Sham states=            9
     kinetic-energy cutoff     =      80.0000  Ry
     charge density cutoff     =     320.0000  Ry
     convergence threshold     =      1.0E-08
     mixing beta               =       0.7000
     number of iterations used =            8  plain     mixing
     Exchange-correlation      = LDA ( 1  1  0  0 0 0)

     celldm(1)=   9.860000  celldm(2)=   0.000000  celldm(3)=   0.000000
     celldm(4)=   0.000000  celldm(5)=   0.000000  celldm(6)=   0.000000

     crystal axes: (cart. coord. in units of alat)
               a(1) = (   0.500000   0.500000   0.500000 )  
               a(2) = (  -0.500000   0.500000   0.500000 )  
               a(3) = (  -0.500000  -0.500000   0.500000 )  

     reciprocal axes: (cart. coord. in units 2 pi/alat)
               b(1) = (  1.000000  0.000000  1.000000 )  
               b(2) = ( -1.000000  1.000000  0.000000 )  
               b(3) = (  0.000000 -1.000000  1.000000 )  


     PseudoPot. # 1 for K  read from file:
     /home/lorenzo/pseudos/K/K.pz-spn-rrkjus_psl.1.0.0.UPF
     MD5 check sum: af434a66a3b91719abff201b8f79bb09
     Pseudo is Ultrasoft + core correction, Zval =  9.0
     Generated using "atomic" code by A. Dal Corso v.6.2.2
     Using radial grid of 1165 points,  6 beta functions with: 
                l(1) =   0
                l(2) =   0
                l(3) =   1
                l(4) =   1
                l(5) =   2
                l(6) =   2
     Q(r) pseudized with 0 coefficients 


     atomic species   valence    mass     pseudopotential
        K              9.00    39.09830     K ( 1.00)

     48 Sym. Ops., with inversion, found



   Cartesian axes

     site n.     atom                  positions (alat units)
         1           K   tau(   1) = (   0.0000000   0.0000000   0.0000000  )

     number of k points=    56  gaussian smearing, width (Ry)=  0.0100
                       cart. coord. in units 2pi/alat
        k(    1) = (   0.0000000   0.0000000   0.0000000), wk =   0.0015026
        k(    2) = (   0.0000000  -0.0909091   0.0909091), wk =   0.0180316
        k(    3) = (   0.0000000  -0.1818182   0.1818182), wk =   0.0180316
        k(    4) = (   0.0000000  -0.2727273   0.2727273), wk =   0.0180316
        k(    5) = (   0.0000000  -0.3636364   0.3636364), wk =   0.0180316
        k(    6) = (   0.0000000  -0.4545455   0.4545455), wk =   0.0180316
        k(    7) = (  -0.0909091  -0.0909091   0.1818182), wk =   0.0360631
        k(    8) = (  -0.0909091  -0.1818182   0.2727273), wk =   0.0721262
        k(    9) = (  -0.0909091  -0.2727273   0.3636364), wk =   0.0721262
        k(   10) = (  -0.0909091  -0.3636364   0.4545455), wk =   0.0721262
        k(   11) = (  -0.0909091   0.5454545  -0.4545455), wk =   0.0360631
        k(   12) = (  -0.1818182  -0.1818182   0.3636364), wk =   0.0360631
        k(   13) = (  -0.1818182  -0.2727273   0.4545455), wk =   0.0721262
        k(   14) = (  -0.1818182   0.6363636  -0.4545455), wk =   0.0721262
        k(   15) = (  -0.2727273   0.7272727  -0.4545455), wk =   0.0360631
        k(   16) = (  -0.2727273   0.6363636  -0.3636364), wk =   0.0360631
        k(   17) = (   0.0000000   0.0000000   0.1818182), wk =   0.0090158
        k(   18) = (   0.0000000  -0.0909091   0.2727273), wk =   0.0360631
        k(   19) = (   0.0000000  -0.1818182   0.3636364), wk =   0.0360631
        k(   20) = (   0.0000000  -0.2727273   0.4545455), wk =   0.0360631
        k(   21) = (   0.0000000  -0.3636364   0.5454545), wk =   0.0360631
        k(   22) = (  -0.0909091  -0.0909091   0.3636364), wk =   0.0360631
        k(   23) = (  -0.0909091  -0.1818182   0.4545455), wk =   0.0721262
        k(   24) = (  -0.0909091  -0.2727273   0.5454545), wk =   0.0721262
        k(   25) = (  -0.0909091   0.6363636  -0.3636364), wk =   0.0360631
        k(   26) = (  -0.1818182   0.1818182   0.1818182), wk =   0.0120210
        k(   27) = (  -0.1818182  -0.1818182   0.5454545), wk =   0.0360631
        k(   28) = (  -0.1818182   0.7272727  -0.3636364), wk =   0.0721262
        k(   29) = (  -0.2727273   0.2727273   0.1818182), wk =   0.0360631
        k(   30) = (  -0.2727273   0.7272727  -0.2727273), wk =   0.0120210
        k(   31) = (  -0.3636364   0.3636364   0.1818182), wk =   0.0360631
        k(   32) = (  -0.3636364   0.2727273   0.2727273), wk =   0.0360631
        k(   33) = (   0.5454545  -0.5454545   0.1818182), wk =   0.0360631
        k(   34) = (   0.5454545  -0.6363636   0.2727273), wk =   0.0721262
        k(   35) = (   0.4545455  -0.5454545   0.2727273), wk =   0.0360631
        k(   36) = (   0.4545455  -0.6363636   0.3636364), wk =   0.0360631
        k(   37) = (   0.0000000   0.0000000   0.3636364), wk =   0.0090158
        k(   38) = (   0.0000000  -0.0909091   0.4545455), wk =   0.0360631
        k(   39) = (   0.0000000  -0.1818182   0.5454545), wk =   0.0360631
        k(   40) = (   0.0000000  -0.2727273   0.6363636), wk =   0.0360631
        k(   41) = (  -0.0909091  -0.0909091   0.5454545), wk =   0.0360631
        k(   42) = (  -0.0909091  -0.1818182   0.6363636), wk =   0.0721262
        k(   43) = (  -0.0909091   0.7272727  -0.2727273), wk =   0.0360631
        k(   44) = (  -0.1818182   0.8181818  -0.2727273), wk =   0.0360631
        k(   45) = (   0.6363636  -0.6363636   0.3636364), wk =   0.0120210
        k(   46) = (   0.5454545  -0.5454545   0.3636364), wk =   0.0360631
        k(   47) = (   0.4545455  -0.5454545   0.4545455), wk =   0.0120210
        k(   48) = (   0.0000000   0.0000000   0.5454545), wk =   0.0090158
        k(   49) = (   0.0000000  -0.0909091   0.6363636), wk =   0.0360631
        k(   50) = (   0.0000000  -0.1818182   0.7272727), wk =   0.0360631
        k(   51) = (  -0.0909091  -0.0909091   0.7272727), wk =   0.0360631
        k(   52) = (  -0.0909091   0.8181818  -0.1818182), wk =   0.0360631
        k(   53) = (   0.0000000   0.0000000   0.7272727), wk =   0.0090158
        k(   54) = (   0.0000000  -0.0909091   0.8181818), wk =   0.0360631
        k(   55) = (  -0.0909091   0.9090909  -0.0909091), wk =   0.0120210
        k(   56) = (   0.0000000   0.0000000   0.9090909), wk =   0.0090158

     Dense  grid:    46361 G-vectors     FFT dimensions: (  50,  50,  50)

     Estimated max dynamical RAM per process >      45.65 MB

     Estimated total dynamical RAM >     228.24 MB

     Initial potential from superposition of free atoms

     starting charge    8.98437, renormalised to    9.00000
     Starting wfcs are    8 randomized atomic wfcs +    1 random wfcs

     total cpu time spent up to now is        1.9 secs

     Self-consistent Calculation

     iteration #  1     ecut=    80.00 Ry     beta= 0.70
     Davidson diagonalization with overlap
     ethr =  1.00E-02,  avg # of iterations =  6.6

     Threshold (ethr) on eigenvalues was too large:
     Diagonalizing with lowered threshold

     Davidson diagonalization with overlap
     ethr =  1.24E-05,  avg # of iterations =  6.2

     total cpu time spent up to now is       10.5 secs

     total energy              =     -58.74321664 Ry
     Harris-Foulkes estimate   =     -58.74378734 Ry
     estimated scf accuracy    <       0.00112403 Ry

     iteration #  2     ecut=    80.00 Ry     beta= 0.70
     Davidson diagonalization with overlap
     ethr =  1.25E-05,  avg # of iterations =  2.2

     total cpu time spent up to now is       13.3 secs

     total energy              =     -58.74341624 Ry
     Harris-Foulkes estimate   =     -58.74343378 Ry
     estimated scf accuracy    <       0.00008989 Ry

     iteration #  3     ecut=    80.00 Ry     beta= 0.70
     Davidson diagonalization with overlap
     ethr =  9.99E-07,  avg # of iterations =  2.1

     total cpu time spent up to now is       15.7 secs

     total energy              =     -58.74342516 Ry
     Harris-Foulkes estimate   =     -58.74342439 Ry
     estimated scf accuracy    <       0.00000567 Ry

     iteration #  4     ecut=    80.00 Ry     beta= 0.70
     Davidson diagonalization with overlap
     ethr =  6.30E-08,  avg # of iterations =  1.6

     total cpu time spent up to now is       18.0 secs

     total energy              =     -58.74342569 Ry
     Harris-Foulkes estimate   =     -58.74342569 Ry
     estimated scf accuracy    <       0.00000003 Ry

     iteration #  5     ecut=    80.00 Ry     beta= 0.70
     Davidson diagonalization with overlap
     ethr =  3.77E-10,  avg # of iterations =  2.3

     total cpu time spent up to now is       20.4 secs

     End of self-consistent calculation

          k = 0.0000 0.0000 0.0000 (  5775 PWs)   bands (ev):

   -30.0988 -13.7369 -13.7369 -13.7369  -0.4766   5.9288   5.9288   5.9288
     6.8746

          k = 0.0000-0.0909 0.0909 (  5776 PWs)   bands (ev):

   -30.0983 -13.7434 -13.7391 -13.7369  -0.3703   5.7873   5.8036   6.0138
     6.7094

          k = 0.0000-0.1818 0.1818 (  5776 PWs)   bands (ev):

   -30.0972 -13.7606 -13.7448 -13.7369  -0.0574   5.2385   5.5171   6.2656
     6.6324

          k = 0.0000-0.2727 0.2727 (  5778 PWs)   bands (ev):

   -30.0958 -13.7829 -13.7523 -13.7369   0.4438   4.4575   5.2123   6.6749
     6.7008

          k = 0.0000-0.3636 0.3636 (  5794 PWs)   bands (ev):

   -30.0945 -13.8031 -13.7592 -13.7369   1.1025   3.6197   4.9768   6.6782
     7.0323

          k = 0.0000-0.4545 0.4545 (  5800 PWs)   bands (ev):

   -30.0937 -13.8151 -13.7632 -13.7369   1.8626   2.7788   4.8512   6.5554
     7.2830

          k =-0.0909-0.0909 0.1818 (  5767 PWs)   bands (ev):

   -30.0976 -13.7553 -13.7414 -13.7385  -0.1606   5.4772   5.5565   6.1744
     6.5387

          k =-0.0909-0.1818 0.2727 (  5769 PWs)   bands (ev):

   -30.0963 -13.7741 -13.7482 -13.7391   0.2469   4.8428   5.2239   6.4694
     6.5247

          k =-0.0909-0.2727 0.3636 (  5791 PWs)   bands (ev):

   -30.0949 -13.7940 -13.7566 -13.7393   0.8285   4.0623   4.9481   6.5539
     6.8828

          k =-0.0909-0.3636 0.4545 (  5797 PWs)   bands (ev):

   -30.0939 -13.8090 -13.7631 -13.7393   1.5459   3.2365   4.7693   6.4618
     7.1873

          k =-0.0909 0.5455-0.4545 (  5796 PWs)   bands (ev):

   -30.0935 -13.8145 -13.7655 -13.7393   2.2258   2.5232   4.7076   6.3747
     7.3336

          k =-0.1818-0.1818 0.3636 (  5791 PWs)   bands (ev):

   -30.0951 -13.7893 -13.7549 -13.7422   0.7359   4.3696   4.7831   6.5358
     6.6700

          k =-0.1818-0.2727 0.4545 (  5797 PWs)   bands (ev):

   -30.0940 -13.8013 -13.7644 -13.7435   1.3813   3.7285   4.4598   6.4858
     6.8017

          k =-0.1818 0.6364-0.4545 (  5797 PWs)   bands (ev):

   -30.0933 -13.8076 -13.7711 -13.7439   2.1358   2.9611   4.3048   6.2762
     7.0812

          k =-0.2727 0.7273-0.4545 (  5804 PWs)   bands (ev):

   -30.0933 -13.8019 -13.7761 -13.7459   2.0677   3.4205   3.8725   6.3491
     6.7906

          k =-0.2727 0.6364-0.3636 (  5811 PWs)   bands (ev):

   -30.0930 -13.7992 -13.7836 -13.7466   2.8104   2.8291   3.6394   6.2472
     6.9755

          k = 0.0000 0.0000 0.1818 (  5770 PWs)   bands (ev):

   -30.0979 -13.7452 -13.7412 -13.7412  -0.2649   5.7379   5.7379   6.0518
     6.3061

          k = 0.0000-0.0909 0.2727 (  5771 PWs)   bands (ev):

   -30.0969 -13.7607 -13.7470 -13.7422   0.0454   5.2725   5.5010   6.0809
     6.2768

          k = 0.0000-0.1818 0.3636 (  5783 PWs)   bands (ev):

   -30.0954 -13.7822 -13.7546 -13.7420   0.5426   4.4963   5.2236   6.1227
     6.6752

          k = 0.0000-0.2727 0.4545 (  5790 PWs)   bands (ev):

   -30.0941 -13.8018 -13.7615 -13.7417   1.1963   3.6720   5.0037   6.1307
     7.1733

          k = 0.0000-0.3636 0.5455 (  5806 PWs)   bands (ev):

   -30.0934 -13.8134 -13.7657 -13.7415   1.9553   2.8386   4.8853   6.0477
     7.2160

          k =-0.0909-0.0909 0.3636 (  5787 PWs)   bands (ev):

   -30.0956 -13.7752 -13.7535 -13.7459   0.4459   4.8099   5.2039   5.9521
     6.5331

          k =-0.0909-0.1818 0.4545 (  5807 PWs)   bands (ev):

   -30.0943 -13.7927 -13.7620 -13.7466   1.0178   4.1248   4.9023   6.0150
     6.8516

          k =-0.0909-0.2727 0.5455 (  5789 PWs)   bands (ev):

   -30.0933 -13.8062 -13.7688 -13.7465   1.7247   3.3482   4.7022   5.9696
     6.9676

          k =-0.0909 0.6364-0.3636 (  5799 PWs)   bands (ev):

   -30.0929 -13.8112 -13.7714 -13.7464   2.4386   2.6118   4.6308   5.9029
     7.0914

          k =-0.1818 0.1818 0.1818 (  5774 PWs)   bands (ev):

   -30.0966 -13.7715 -13.7417 -13.7417   0.1466   5.0941   5.0941   6.3978
     6.8294

          k =-0.1818-0.1818 0.5455 (  5797 PWs)   bands (ev):

   -30.0932 -13.8006 -13.7726 -13.7487   1.6449   3.7301   4.3581   6.1926
     6.6403

          k =-0.1818 0.7273-0.3636 (  5794 PWs)   bands (ev):

   -30.0926 -13.8038 -13.7811 -13.7492   2.3792   3.1358   4.0203   6.2265
     6.7647

          k =-0.2727 0.2727 0.1818 (  5793 PWs)   bands (ev):

   -30.0954 -13.7884 -13.7502 -13.7422   0.6401   4.4420   4.7725   6.6023
     6.8876

          k =-0.2727 0.7273-0.2727 (  5792 PWs)   bands (ev):

   -30.0924 -13.7945 -13.7945 -13.7498   2.9985   2.9985   3.4318   6.6459
     6.8076

          k =-0.3636 0.3636 0.1818 (  5796 PWs)   bands (ev):

   -30.0943 -13.8018 -13.7600 -13.7426   1.2909   3.6967   4.5483   6.5144
     7.0894

          k =-0.3636 0.2727 0.2727 (  5799 PWs)   bands (ev):

   -30.0944 -13.7983 -13.7566 -13.7469   1.2044   4.0395   4.3115   6.4074
     7.0035

          k = 0.5455-0.5455 0.1818 (  5799 PWs)   bands (ev):

   -30.0936 -13.8091 -13.7664 -13.7429   2.0486   2.8998   4.4339   6.2833
     7.3125

          k = 0.5455-0.6364 0.2727 (  5788 PWs)   bands (ev):

   -30.0937 -13.8020 -13.7672 -13.7487   1.9034   3.4306   4.0676   6.0044
     7.1339

          k = 0.4545-0.5455 0.2727 (  5793 PWs)   bands (ev):

   -30.0934 -13.8020 -13.7727 -13.7491   2.6392   2.7163   3.9969   5.8265
     7.2340

          k = 0.4545-0.6364 0.3636 (  5791 PWs)   bands (ev):

   -30.0933 -13.7946 -13.7793 -13.7519   2.6109   3.2151   3.5256   5.6325
     7.2167

          k = 0.0000 0.0000 0.3636 (  5774 PWs)   bands (ev):

   -30.0958 -13.7642 -13.7530 -13.7530   0.3478   5.2968   5.4052   5.4052
     6.4046

          k = 0.0000-0.0909 0.4545 (  5776 PWs)   bands (ev):

   -30.0945 -13.7807 -13.7608 -13.7552   0.8321   4.5675   5.2327   5.4873
     6.7298

          k = 0.0000-0.1818 0.5455 (  5788 PWs)   bands (ev):

   -30.0932 -13.7982 -13.7680 -13.7545   1.4686   3.8071   5.0702   5.4785
     6.7964

          k = 0.0000-0.2727 0.6364 (  5788 PWs)   bands (ev):

   -30.0925 -13.8088 -13.7722 -13.7540   2.2133   3.0186   4.9770   5.3522
     6.8516

          k =-0.0909-0.0909 0.5455 (  5785 PWs)   bands (ev):

   -30.0932 -13.7916 -13.7699 -13.7589   1.3819   4.1219   4.8959   5.5673
     6.5940

          k =-0.0909-0.1818 0.6364 (  5793 PWs)   bands (ev):

   -30.0923 -13.8017 -13.7778 -13.7590   2.0583   3.5269   4.5581   5.6483
     6.4904

          k =-0.0909 0.7273-0.2727 (  5810 PWs)   bands (ev):

   -30.0919 -13.8057 -13.7807 -13.7588   2.7869   2.8218   4.4323   5.6226
     6.6227

          k =-0.1818 0.8182-0.2727 (  5801 PWs)   bands (ev):

   -30.0917 -13.7999 -13.7894 -13.7597   2.7251   3.2728   3.9161   6.0342
     6.3383

          k = 0.6364-0.6364 0.3636 (  5789 PWs)   bands (ev):

   -30.0938 -13.7995 -13.7583 -13.7583   1.8237   3.8222   3.8222   5.7668
     7.2866

          k = 0.5455-0.5455 0.3636 (  5794 PWs)   bands (ev):

   -30.0934 -13.7943 -13.7710 -13.7593   2.5379   3.2430   3.7148   5.2799
     7.3409

          k = 0.4545-0.5455 0.4545 (  5804 PWs)   bands (ev):

   -30.0933 -13.7812 -13.7812 -13.7645   3.1136   3.1136   3.3707   4.9433
     7.4106

          k = 0.0000 0.0000 0.5455 (  5778 PWs)   bands (ev):

   -30.0932 -13.7821 -13.7689 -13.7689   1.2930   4.4000   5.2013   5.2013
     6.4676

          k = 0.0000-0.0909 0.6364 (  5795 PWs)   bands (ev):

   -30.0921 -13.7937 -13.7763 -13.7710   1.8920   3.9044   5.1159   5.1410
     6.1267

          k = 0.0000-0.1818 0.7273 (  5795 PWs)   bands (ev):

   -30.0914 -13.8028 -13.7807 -13.7701   2.5771   3.2874   4.8818   5.0963
     6.2862

          k =-0.0909-0.0909 0.7273 (  5794 PWs)   bands (ev):

   -30.0912 -13.7979 -13.7855 -13.7734   2.4989   3.5888   4.6013   5.4594
     5.9452

          k =-0.0909 0.8182-0.1818 (  5790 PWs)   bands (ev):

   -30.0908 -13.7996 -13.7898 -13.7732   3.0353   3.2075   4.3376   5.5543
     6.0325

          k = 0.0000 0.0000 0.7273 (  5790 PWs)   bands (ev):

   -30.0910 -13.7917 -13.7840 -13.7840   2.4194   3.7662   5.1865   5.1865
     5.4930

          k = 0.0000-0.0909 0.8182 (  5776 PWs)   bands (ev):

   -30.0903 -13.7972 -13.7886 -13.7848   2.9660   3.4678   4.8678   5.2040
     5.6820

          k =-0.0909 0.9091-0.0909 (  5777 PWs)   bands (ev):

   -30.0900 -13.7949 -13.7949 -13.7859   3.3047   3.3047   4.7172   5.5004
     5.5004

          k = 0.0000 0.0000 0.9091 (  5778 PWs)   bands (ev):

   -30.0897 -13.7943 -13.7932 -13.7932   3.2838   3.4418   5.2327   5.2663
     5.2663

     the Fermi energy is     1.7633 ev

!    total energy              =     -58.74342570 Ry
     Harris-Foulkes estimate   =     -58.74342570 Ry
     estimated scf accuracy    <          6.2E-10 Ry

     The total energy is the sum of the following terms:

     one-electron contribution =     -36.65541844 Ry
     hartree contribution      =      18.82557579 Ry
     xc contribution           =     -11.01680355 Ry
     ewald contribution        =     -29.89633970 Ry
     smearing contrib. (-TS)   =      -0.00043980 Ry

     convergence has been achieved in   5 iterations

     Forces acting on atoms (cartesian axes, Ry/au):

     atom    1 type  1   force =     0.00000000    0.00000000    0.00000000

     Total force =     0.000000     Total SCF correction =     0.000000


     Computing stress (Cartesian axis) and pressure

          total   stress  (Ry/bohr**3)                   (kbar)     P=   -4.06
  -0.00002758   0.00000000  -0.00000000         -4.06      0.00     -0.00
   0.00000000  -0.00002758   0.00000000          0.00     -4.06      0.00
  -0.00000000   0.00000000  -0.00002758         -0.00      0.00     -4.06


     Writing output data file K.save/

     init_run     :      1.16s CPU      1.22s WALL (       1 calls)
     electrons    :     17.83s CPU     18.46s WALL (       1 calls)
     forces       :      0.23s CPU      0.23s WALL (       1 calls)
     stress       :      1.03s CPU      1.03s WALL (       1 calls)

     Called by init_run:
     wfcinit      :      0.82s CPU      0.87s WALL (       1 calls)
     potinit      :      0.02s CPU      0.02s WALL (       1 calls)
     hinit0       :      0.22s CPU      0.22s WALL (       1 calls)

     Called by electrons:
     c_bands      :     14.87s CPU     15.36s WALL (       6 calls)
     sum_band     :      2.70s CPU      2.84s WALL (       6 calls)
     v_of_rho     :      0.02s CPU      0.03s WALL (       6 calls)
     newd         :      0.25s CPU      0.26s WALL (       6 calls)
     mix_rho      :      0.01s CPU      0.01s WALL (       6 calls)

     Called by c_bands:
     init_us_2    :      0.54s CPU      0.55s WALL (     840 calls)
     cegterg      :     14.21s CPU     14.69s WALL (     336 calls)

     Called by sum_band:
     sum_band:bec :      0.00s CPU      0.00s WALL (     336 calls)
     addusdens    :      0.25s CPU      0.26s WALL (       6 calls)

     Called by *egterg:
     h_psi        :     11.96s CPU     12.43s WALL (    1565 calls)
     s_psi        :      0.38s CPU      0.39s WALL (    1565 calls)
     g_psi        :      0.04s CPU      0.04s WALL (    1173 calls)
     cdiaghg      :      0.38s CPU      0.39s WALL (    1453 calls)

     Called by h_psi:
     h_psi:pot    :     11.88s CPU     12.36s WALL (    1565 calls)
     h_psi:calbec :      0.71s CPU      0.73s WALL (    1565 calls)
     vloc_psi     :     10.74s CPU     11.19s WALL (    1565 calls)
     add_vuspsi   :      0.42s CPU      0.43s WALL (    1565 calls)

     General routines
     calbec       :      1.14s CPU      1.17s WALL (    2181 calls)
     fft          :      0.04s CPU      0.04s WALL (      34 calls)
     ffts         :      0.00s CPU      0.01s WALL (       6 calls)
     fftw         :     11.66s CPU     12.18s WALL (   20632 calls)

     Parallel routines
     fft_scatt_xy :      0.90s CPU      0.95s WALL (   20672 calls)
     fft_scatt_yz :      2.84s CPU      2.96s WALL (   20672 calls)

     PWSCF        :    21.04s CPU        21.87s WALL


   This run was terminated on:   1: 9:36   8Apr2024            

=------------------------------------------------------------------------------=
   JOB DONE.
=------------------------------------------------------------------------------=
