
     Program PWSCF v.6.3MaX starts on  8Apr2024 at  0:13:45 

     This program is part of the open-source Quantum ESPRESSO suite
     for quantum simulation of materials; please cite
         "P. Giannozzi et al., J. Phys.:Condens. Matter 21 395502 (2009);
         "P. Giannozzi et al., J. Phys.:Condens. Matter 29 465901 (2017);
          URL http://www.quantum-espresso.org", 
     in publications or presentations arising from this work. More details at
     http://www.quantum-espresso.org/quote

     Parallel version (MPI), running on     5 processors

     MPI processes distributed on     1 nodes
     R & G space division:  proc/nbgrp/npool/nimage =       5
     Waiting for input...
     Reading input from standard input

     Current dimensions of program PWSCF are:
     Max number of different atomic species (ntypx) = 10
     Max number of k-points (npk) =  40000
     Max angular momentum in pseudopotentials (lmaxx) =  3
               file K.pbe-spn-rrkjus_psl.1.0.0.UPF: wavefunction(s)  3S renormalized

     Subspace diagonalization in iterative solution of the eigenvalue problem:
     a serial algorithm will be used


     Parallelization info
     --------------------
     sticks:   dense  smooth     PW     G-vecs:    dense   smooth      PW
     Min          66      66     20                  756      756     136
     Max          67      67     21                  757      757     137
     Sum         333     333    103                 3781     3781     683



     bravais-lattice index     =            3
     lattice parameter (alat)  =       9.8600  a.u.
     unit-cell volume          =     479.2926 (a.u.)^3
     number of atoms/cell      =            1
     number of atomic types    =            1
     number of electrons       =         9.00
     number of Kohn-Sham states=            9
     kinetic-energy cutoff     =      15.0000  Ry
     charge density cutoff     =      60.0000  Ry
     convergence threshold     =      1.0E-08
     mixing beta               =       0.7000
     number of iterations used =            8  plain     mixing
     Exchange-correlation      = PBE ( 1  4  3  4 0 0)

     celldm(1)=   9.860000  celldm(2)=   0.000000  celldm(3)=   0.000000
     celldm(4)=   0.000000  celldm(5)=   0.000000  celldm(6)=   0.000000

     crystal axes: (cart. coord. in units of alat)
               a(1) = (   0.500000   0.500000   0.500000 )  
               a(2) = (  -0.500000   0.500000   0.500000 )  
               a(3) = (  -0.500000  -0.500000   0.500000 )  

     reciprocal axes: (cart. coord. in units 2 pi/alat)
               b(1) = (  1.000000  0.000000  1.000000 )  
               b(2) = ( -1.000000  1.000000  0.000000 )  
               b(3) = (  0.000000 -1.000000  1.000000 )  


     PseudoPot. # 1 for K  read from file:
     /home/lorenzo/pseudos/K/K.pbe-spn-rrkjus_psl.1.0.0.UPF
     MD5 check sum: 897b700350bb708b0563e904352feb48
     Pseudo is Ultrasoft + core correction, Zval =  9.0
     Generated using "atomic" code by A. Dal Corso v.6.2.2
     Using radial grid of 1165 points,  6 beta functions with: 
                l(1) =   0
                l(2) =   0
                l(3) =   1
                l(4) =   1
                l(5) =   2
                l(6) =   2
     Q(r) pseudized with 0 coefficients 


     atomic species   valence    mass     pseudopotential
        K              9.00    39.09830     K ( 1.00)

     48 Sym. Ops., with inversion, found



   Cartesian axes

     site n.     atom                  positions (alat units)
         1           K   tau(   1) = (   0.0000000   0.0000000   0.0000000  )

     number of k points=    20  gaussian smearing, width (Ry)=  0.0100
                       cart. coord. in units 2pi/alat
        k(    1) = (   0.0000000   0.0000000   0.0000000), wk =   0.0058309
        k(    2) = (   0.0000000  -0.1428571   0.1428571), wk =   0.0699708
        k(    3) = (   0.0000000  -0.2857143   0.2857143), wk =   0.0699708
        k(    4) = (   0.0000000  -0.4285714   0.4285714), wk =   0.0699708
        k(    5) = (  -0.1428571  -0.1428571   0.2857143), wk =   0.1399417
        k(    6) = (  -0.1428571  -0.2857143   0.4285714), wk =   0.2798834
        k(    7) = (  -0.1428571   0.5714286  -0.4285714), wk =   0.1399417
        k(    8) = (  -0.2857143   0.7142857  -0.4285714), wk =   0.1399417
        k(    9) = (   0.0000000   0.0000000   0.2857143), wk =   0.0349854
        k(   10) = (   0.0000000  -0.1428571   0.4285714), wk =   0.1399417
        k(   11) = (   0.0000000  -0.2857143   0.5714286), wk =   0.1399417
        k(   12) = (  -0.1428571  -0.1428571   0.5714286), wk =   0.1399417
        k(   13) = (  -0.1428571   0.7142857  -0.2857143), wk =   0.1399417
        k(   14) = (  -0.2857143   0.2857143   0.2857143), wk =   0.0466472
        k(   15) = (   0.5714286  -0.5714286   0.2857143), wk =   0.1399417
        k(   16) = (   0.4285714  -0.5714286   0.4285714), wk =   0.0466472
        k(   17) = (   0.0000000   0.0000000   0.5714286), wk =   0.0349854
        k(   18) = (   0.0000000  -0.1428571   0.7142857), wk =   0.1399417
        k(   19) = (  -0.1428571   0.8571429  -0.1428571), wk =   0.0466472
        k(   20) = (   0.0000000   0.0000000   0.8571429), wk =   0.0349854

     Dense  grid:     3781 G-vectors     FFT dimensions: (  24,  24,  24)

     Estimated max dynamical RAM per process >       4.11 MB

     Estimated total dynamical RAM >      20.54 MB

     Check: negative/imaginary core charge=   -0.000363    0.000000

     Initial potential from superposition of free atoms

     starting charge    8.98117, renormalised to    9.00000
     Starting wfcs are    8 randomized atomic wfcs +    1 random wfcs

     total cpu time spent up to now is        1.0 secs

     Self-consistent Calculation

     iteration #  1     ecut=    15.00 Ry     beta= 0.70
     Davidson diagonalization with overlap
     ethr =  1.00E-02,  avg # of iterations =  7.0

     Threshold (ethr) on eigenvalues was too large:
     Diagonalizing with lowered threshold

     Davidson diagonalization with overlap
     ethr =  5.01E-04,  avg # of iterations =  1.4

     total cpu time spent up to now is        1.3 secs

     total energy              =     -58.42884333 Ry
     Harris-Foulkes estimate   =     -58.45521808 Ry
     estimated scf accuracy    <       0.04616179 Ry

     iteration #  2     ecut=    15.00 Ry     beta= 0.70
     Davidson diagonalization with overlap
     ethr =  5.13E-04,  avg # of iterations =  2.1

     total cpu time spent up to now is        1.4 secs

     total energy              =     -58.43819814 Ry
     Harris-Foulkes estimate   =     -58.43841543 Ry
     estimated scf accuracy    <       0.00214448 Ry

     iteration #  3     ecut=    15.00 Ry     beta= 0.70
     Davidson diagonalization with overlap
     ethr =  2.38E-05,  avg # of iterations =  4.6

     total cpu time spent up to now is        1.6 secs

     total energy              =     -58.43839686 Ry
     Harris-Foulkes estimate   =     -58.43835325 Ry
     estimated scf accuracy    <       0.00014123 Ry

     iteration #  4     ecut=    15.00 Ry     beta= 0.70
     Davidson diagonalization with overlap
     ethr =  1.57E-06,  avg # of iterations =  2.5

     total cpu time spent up to now is        1.8 secs

     total energy              =     -58.43840005 Ry
     Harris-Foulkes estimate   =     -58.43840016 Ry
     estimated scf accuracy    <       0.00000025 Ry

     iteration #  5     ecut=    15.00 Ry     beta= 0.70
     Davidson diagonalization with overlap
     ethr =  2.78E-09,  avg # of iterations =  2.5

     total cpu time spent up to now is        1.9 secs

     total energy              =     -58.43840020 Ry
     Harris-Foulkes estimate   =     -58.43840021 Ry
     estimated scf accuracy    <       0.00000001 Ry

     iteration #  6     ecut=    15.00 Ry     beta= 0.70
     Davidson diagonalization with overlap
     ethr =  1.12E-10,  avg # of iterations =  2.0

     total cpu time spent up to now is        2.0 secs

     End of self-consistent calculation

          k = 0.0000 0.0000 0.0000 (   459 PWs)   bands (ev):

   -31.2558 -13.4518 -13.4518 -13.4518  -0.5420   6.6445   6.6445   6.6445
     7.7133

          k = 0.0000-0.1429 0.1429 (   471 PWs)   bands (ev):

   -31.2550 -13.5716 -13.5066 -13.4971  -0.2779   5.9894   6.2486   6.8232
     7.3626

          k = 0.0000-0.2857 0.2857 (   465 PWs)   bands (ev):

   -31.2532 -13.5489 -13.5340 -13.4660   0.4807   4.5355   5.6628   7.4448
     7.4567

          k = 0.0000-0.4286 0.4286 (   476 PWs)   bands (ev):

   -31.2517 -13.6398 -13.6241 -13.5168   1.6228   3.0397   5.3052   7.1844
     7.6633

          k =-0.1429-0.1429 0.2857 (   467 PWs)   bands (ev):

   -31.2537 -13.5619 -13.5011 -13.4994   0.2345   5.1608   5.5269   7.1203
     7.1768

          k =-0.1429-0.2857 0.4286 (   476 PWs)   bands (ev):

   -31.2520 -13.6345 -13.5908 -13.5481   1.1887   3.8679   4.9513   6.9515
     7.4872

          k =-0.1429 0.5714-0.4286 (   472 PWs)   bands (ev):

   -31.2513 -13.6310 -13.5613 -13.5389   2.3783   2.5517   4.7787   6.6903
     7.8784

          k =-0.2857 0.7143-0.4286 (   473 PWs)   bands (ev):

   -31.2511 -13.6144 -13.5924 -13.5601   2.2780   3.3866   3.8392   6.6087
     7.5807

          k = 0.0000 0.0000 0.2857 (   478 PWs)   bands (ev):

   -31.2542 -13.6356 -13.5407 -13.5407  -0.0201   6.0250   6.0250   6.1125
     6.9536

          k = 0.0000-0.1429 0.4286 (   467 PWs)   bands (ev):

   -31.2525 -13.5893 -13.5132 -13.5062   0.7231   4.6343   5.5983   6.1549
     7.5414

          k = 0.0000-0.2857 0.5714 (   466 PWs)   bands (ev):

   -31.2511 -13.6083 -13.5160 -13.5131   1.8471   3.2111   5.3309   5.9618
     7.7884

          k =-0.1429-0.1429 0.5714 (   472 PWs)   bands (ev):

   -31.2510 -13.6387 -13.5756 -13.5308   1.6374   3.9459   4.7115   6.3210
     7.1233

          k =-0.1429 0.7143-0.2857 (   469 PWs)   bands (ev):

   -31.2503 -13.6346 -13.5915 -13.4939   2.7999   2.8730   4.2683   6.4045
     7.2774

          k =-0.2857 0.2857 0.2857 (   477 PWs)   bands (ev):

   -31.2525 -13.6430 -13.5658 -13.5658   0.9604   4.5334   4.5334   6.6242
     8.0026

          k = 0.5714-0.5714 0.2857 (   473 PWs)   bands (ev):

   -31.2515 -13.6237 -13.5613 -13.5601   2.0717   3.3659   4.2397   5.8929
     8.2235

          k = 0.4286-0.5714 0.4286 (   469 PWs)   bands (ev):

   -31.2512 -13.5748 -13.5748 -13.5547   3.1119   3.1119   3.4607   5.2726
     8.4387

          k = 0.0000 0.0000 0.5714 (   466 PWs)   bands (ev):

   -31.2509 -13.5930 -13.5227 -13.5227   1.4190   4.5069   5.4726   5.4726
     6.6483

          k = 0.0000-0.1429 0.7143 (   464 PWs)   bands (ev):

   -31.2496 -13.5959 -13.5709 -13.4921   2.4471   3.6075   5.0964   5.3419
     6.4885

          k =-0.1429 0.8571-0.1429 (   466 PWs)   bands (ev):

   -31.2491 -13.6181 -13.6181 -13.4909   3.2796   3.2796   4.3240   6.0016
     6.0016

          k = 0.0000 0.0000 0.8571 (   474 PWs)   bands (ev):

   -31.2485 -13.6508 -13.6100 -13.6100   3.1820   3.6581   5.3158   5.3158
     5.3412

     the Fermi energy is     1.7117 ev

!    total energy              =     -58.43840021 Ry
     Harris-Foulkes estimate   =     -58.43840021 Ry
     estimated scf accuracy    <          1.9E-11 Ry

     The total energy is the sum of the following terms:

     one-electron contribution =     -35.78770510 Ry
     hartree contribution      =      18.37181993 Ry
     xc contribution           =     -11.12560562 Ry
     ewald contribution        =     -29.89633977 Ry
     smearing contrib. (-TS)   =      -0.00056964 Ry

     convergence has been achieved in   6 iterations

     Forces acting on atoms (cartesian axes, Ry/au):

     atom    1 type  1   force =     0.00000000    0.00000000    0.00000000

     Total force =     0.000000     Total SCF correction =     0.000000


     Computing stress (Cartesian axis) and pressure

          total   stress  (Ry/bohr**3)                   (kbar)     P= -285.18
  -0.00193861   0.00000000  -0.00000000       -285.18      0.00     -0.00
   0.00000000  -0.00193861   0.00000000          0.00   -285.18      0.00
  -0.00000000   0.00000000  -0.00193861         -0.00      0.00   -285.18


     Writing output data file K.save/

     init_run     :      0.13s CPU      0.14s WALL (       1 calls)
     electrons    :      1.01s CPU      1.09s WALL (       1 calls)
     forces       :      0.02s CPU      0.02s WALL (       1 calls)
     stress       :      0.06s CPU      0.06s WALL (       1 calls)

     Called by init_run:
     wfcinit      :      0.04s CPU      0.04s WALL (       1 calls)
     potinit      :      0.01s CPU      0.01s WALL (       1 calls)
     hinit0       :      0.08s CPU      0.08s WALL (       1 calls)

     Called by electrons:
     c_bands      :      0.81s CPU      0.87s WALL (       7 calls)
     sum_band     :      0.15s CPU      0.16s WALL (       7 calls)
     v_of_rho     :      0.02s CPU      0.02s WALL (       7 calls)
     newd         :      0.03s CPU      0.03s WALL (       7 calls)
     mix_rho      :      0.00s CPU      0.00s WALL (       7 calls)

     Called by c_bands:
     init_us_2    :      0.02s CPU      0.02s WALL (     340 calls)
     cegterg      :      0.78s CPU      0.84s WALL (     140 calls)

     Called by sum_band:
     sum_band:bec :      0.00s CPU      0.00s WALL (     140 calls)
     addusdens    :      0.03s CPU      0.03s WALL (       7 calls)

     Called by *egterg:
     h_psi        :      0.57s CPU      0.61s WALL (     605 calls)
     s_psi        :      0.02s CPU      0.02s WALL (     605 calls)
     g_psi        :      0.00s CPU      0.00s WALL (     445 calls)
     cdiaghg      :      0.12s CPU      0.13s WALL (     565 calls)

     Called by h_psi:
     h_psi:pot    :      0.57s CPU      0.61s WALL (     605 calls)
     h_psi:calbec :      0.03s CPU      0.03s WALL (     605 calls)
     vloc_psi     :      0.52s CPU      0.55s WALL (     605 calls)
     add_vuspsi   :      0.02s CPU      0.02s WALL (     605 calls)

     General routines
     calbec       :      0.05s CPU      0.05s WALL (     845 calls)
     fft          :      0.02s CPU      0.02s WALL (     104 calls)
     ffts         :      0.00s CPU      0.00s WALL (       7 calls)
     fftw         :      0.57s CPU      0.61s WALL (    8212 calls)

     Parallel routines
     fft_scatt_xy :      0.05s CPU      0.05s WALL (    8323 calls)
     fft_scatt_yz :      0.19s CPU      0.20s WALL (    8323 calls)

     PWSCF        :     2.06s CPU         2.18s WALL


   This run was terminated on:   0:13:47   8Apr2024            

=------------------------------------------------------------------------------=
   JOB DONE.
=------------------------------------------------------------------------------=
