
     Program PWSCF v.6.3MaX starts on  8Apr2024 at  0:10:44 

     This program is part of the open-source Quantum ESPRESSO suite
     for quantum simulation of materials; please cite
         "P. Giannozzi et al., J. Phys.:Condens. Matter 21 395502 (2009);
         "P. Giannozzi et al., J. Phys.:Condens. Matter 29 465901 (2017);
          URL http://www.quantum-espresso.org", 
     in publications or presentations arising from this work. More details at
     http://www.quantum-espresso.org/quote

     Parallel version (MPI), running on     5 processors

     MPI processes distributed on     1 nodes
     R & G space division:  proc/nbgrp/npool/nimage =       5
     Waiting for input...
     Reading input from standard input

     Current dimensions of program PWSCF are:
     Max number of different atomic species (ntypx) = 10
     Max number of k-points (npk) =  40000
     Max angular momentum in pseudopotentials (lmaxx) =  3
               file K.pz-spn-rrkjus_psl.1.0.0.UPF: wavefunction(s)  3S renormalized

     Subspace diagonalization in iterative solution of the eigenvalue problem:
     a serial algorithm will be used


     Parallelization info
     --------------------
     sticks:   dense  smooth     PW     G-vecs:    dense   smooth      PW
     Min          43      43     15                  417      417      85
     Max          44      44     16                  420      420      86
     Sum         219     219     77                 2093     2093     429



     bravais-lattice index     =            3
     lattice parameter (alat)  =       9.8600  a.u.
     unit-cell volume          =     479.2926 (a.u.)^3
     number of atoms/cell      =            1
     number of atomic types    =            1
     number of electrons       =         9.00
     number of Kohn-Sham states=            9
     kinetic-energy cutoff     =      10.0000  Ry
     charge density cutoff     =      40.0000  Ry
     convergence threshold     =      1.0E-08
     mixing beta               =       0.7000
     number of iterations used =            8  plain     mixing
     Exchange-correlation      = LDA ( 1  1  0  0 0 0)

     celldm(1)=   9.860000  celldm(2)=   0.000000  celldm(3)=   0.000000
     celldm(4)=   0.000000  celldm(5)=   0.000000  celldm(6)=   0.000000

     crystal axes: (cart. coord. in units of alat)
               a(1) = (   0.500000   0.500000   0.500000 )  
               a(2) = (  -0.500000   0.500000   0.500000 )  
               a(3) = (  -0.500000  -0.500000   0.500000 )  

     reciprocal axes: (cart. coord. in units 2 pi/alat)
               b(1) = (  1.000000  0.000000  1.000000 )  
               b(2) = ( -1.000000  1.000000  0.000000 )  
               b(3) = (  0.000000 -1.000000  1.000000 )  


     PseudoPot. # 1 for K  read from file:
     /home/lorenzo/pseudos/K/K.pz-spn-rrkjus_psl.1.0.0.UPF
     MD5 check sum: af434a66a3b91719abff201b8f79bb09
     Pseudo is Ultrasoft + core correction, Zval =  9.0
     Generated using "atomic" code by A. Dal Corso v.6.2.2
     Using radial grid of 1165 points,  6 beta functions with: 
                l(1) =   0
                l(2) =   0
                l(3) =   1
                l(4) =   1
                l(5) =   2
                l(6) =   2
     Q(r) pseudized with 0 coefficients 


     atomic species   valence    mass     pseudopotential
        K              9.00    39.09830     K ( 1.00)

     48 Sym. Ops., with inversion, found



   Cartesian axes

     site n.     atom                  positions (alat units)
         1           K   tau(   1) = (   0.0000000   0.0000000   0.0000000  )

     number of k points=    47  gaussian smearing, width (Ry)=  0.0100
                       cart. coord. in units 2pi/alat
        k(    1) = (   0.0000000   0.0000000   0.0000000), wk =   0.0020000
        k(    2) = (   0.0000000  -0.1000000   0.1000000), wk =   0.0240000
        k(    3) = (   0.0000000  -0.2000000   0.2000000), wk =   0.0240000
        k(    4) = (   0.0000000  -0.3000000   0.3000000), wk =   0.0240000
        k(    5) = (   0.0000000  -0.4000000   0.4000000), wk =   0.0240000
        k(    6) = (   0.0000000   0.5000000  -0.5000000), wk =   0.0120000
        k(    7) = (  -0.1000000  -0.1000000   0.2000000), wk =   0.0480000
        k(    8) = (  -0.1000000  -0.2000000   0.3000000), wk =   0.0960000
        k(    9) = (  -0.1000000  -0.3000000   0.4000000), wk =   0.0960000
        k(   10) = (  -0.1000000   0.6000000  -0.5000000), wk =   0.0960000
        k(   11) = (  -0.2000000  -0.2000000   0.4000000), wk =   0.0480000
        k(   12) = (  -0.2000000   0.7000000  -0.5000000), wk =   0.0960000
        k(   13) = (  -0.2000000   0.6000000  -0.4000000), wk =   0.0480000
        k(   14) = (  -0.3000000   0.7000000  -0.4000000), wk =   0.0480000
        k(   15) = (   0.0000000   0.0000000   0.2000000), wk =   0.0120000
        k(   16) = (   0.0000000  -0.1000000   0.3000000), wk =   0.0480000
        k(   17) = (   0.0000000  -0.2000000   0.4000000), wk =   0.0480000
        k(   18) = (   0.0000000  -0.3000000   0.5000000), wk =   0.0480000
        k(   19) = (   0.0000000   0.6000000  -0.4000000), wk =   0.0240000
        k(   20) = (  -0.1000000  -0.1000000   0.4000000), wk =   0.0480000
        k(   21) = (  -0.1000000  -0.2000000   0.5000000), wk =   0.0960000
        k(   22) = (  -0.1000000   0.7000000  -0.4000000), wk =   0.0960000
        k(   23) = (  -0.2000000   0.2000000   0.2000000), wk =   0.0160000
        k(   24) = (  -0.2000000   0.8000000  -0.4000000), wk =   0.0480000
        k(   25) = (  -0.2000000   0.7000000  -0.3000000), wk =   0.0480000
        k(   26) = (  -0.3000000   0.3000000   0.2000000), wk =   0.0480000
        k(   27) = (   0.6000000  -0.6000000   0.2000000), wk =   0.0480000
        k(   28) = (   0.6000000  -0.7000000   0.3000000), wk =   0.0480000
        k(   29) = (   0.5000000  -0.5000000   0.2000000), wk =   0.0240000
        k(   30) = (   0.5000000  -0.6000000   0.3000000), wk =   0.0960000
        k(   31) = (   0.4000000  -0.6000000   0.4000000), wk =   0.0160000
        k(   32) = (   0.0000000   0.0000000   0.4000000), wk =   0.0120000
        k(   33) = (   0.0000000  -0.1000000   0.5000000), wk =   0.0480000
        k(   34) = (   0.0000000  -0.2000000   0.6000000), wk =   0.0480000
        k(   35) = (   0.0000000   0.7000000  -0.3000000), wk =   0.0240000
        k(   36) = (  -0.1000000  -0.1000000   0.6000000), wk =   0.0480000
        k(   37) = (  -0.1000000   0.8000000  -0.3000000), wk =   0.0960000
        k(   38) = (  -0.2000000   0.8000000  -0.2000000), wk =   0.0160000
        k(   39) = (   0.6000000  -0.6000000   0.4000000), wk =   0.0160000
        k(   40) = (   0.5000000  -0.5000000   0.4000000), wk =   0.0240000
        k(   41) = (   0.0000000   0.0000000   0.6000000), wk =   0.0120000
        k(   42) = (   0.0000000  -0.1000000   0.7000000), wk =   0.0480000
        k(   43) = (   0.0000000   0.8000000  -0.2000000), wk =   0.0240000
        k(   44) = (  -0.1000000   0.9000000  -0.2000000), wk =   0.0480000
        k(   45) = (   0.0000000   0.0000000   0.8000000), wk =   0.0120000
        k(   46) = (   0.0000000   0.9000000  -0.1000000), wk =   0.0240000
        k(   47) = (   0.0000000   0.0000000  -1.0000000), wk =   0.0020000

     Dense  grid:     2093 G-vectors     FFT dimensions: (  18,  18,  18)

     Estimated max dynamical RAM per process >       2.70 MB

     Estimated total dynamical RAM >      13.50 MB

     Check: negative/imaginary core charge=   -0.001512    0.000000

     Initial potential from superposition of free atoms
     Check: negative starting charge=   -0.000618

     starting charge    8.98437, renormalised to    9.00000

     negative rho (up, down):  6.194E-04 0.000E+00
     Starting wfcs are    8 randomized atomic wfcs +    1 random wfcs

     total cpu time spent up to now is        0.9 secs

     Self-consistent Calculation

     iteration #  1     ecut=    10.00 Ry     beta= 0.70
     Davidson diagonalization with overlap
     ethr =  1.00E-02,  avg # of iterations =  6.4

     total cpu time spent up to now is        1.3 secs

     total energy              =     -57.19230337 Ry
     Harris-Foulkes estimate   =     -57.45317972 Ry
     estimated scf accuracy    <       0.37431671 Ry

     iteration #  2     ecut=    10.00 Ry     beta= 0.70
     Davidson diagonalization with overlap
     ethr =  4.16E-03,  avg # of iterations =  2.0

     total cpu time spent up to now is        1.5 secs

     total energy              =     -57.25959904 Ry
     Harris-Foulkes estimate   =     -57.26220462 Ry
     estimated scf accuracy    <       0.00989085 Ry

     iteration #  3     ecut=    10.00 Ry     beta= 0.70
     Davidson diagonalization with overlap
     ethr =  1.10E-04,  avg # of iterations =  3.0

     total cpu time spent up to now is        1.7 secs

     total energy              =     -57.25993248 Ry
     Harris-Foulkes estimate   =     -57.25997550 Ry
     estimated scf accuracy    <       0.00073533 Ry

     iteration #  4     ecut=    10.00 Ry     beta= 0.70
     Davidson diagonalization with overlap
     ethr =  8.17E-06,  avg # of iterations =  3.4

     total cpu time spent up to now is        1.9 secs

     total energy              =     -57.25995204 Ry
     Harris-Foulkes estimate   =     -57.25995296 Ry
     estimated scf accuracy    <       0.00000216 Ry

     iteration #  5     ecut=    10.00 Ry     beta= 0.70
     Davidson diagonalization with overlap
     ethr =  2.40E-08,  avg # of iterations =  2.6

     total cpu time spent up to now is        2.1 secs

     total energy              =     -57.25995244 Ry
     Harris-Foulkes estimate   =     -57.25995255 Ry
     estimated scf accuracy    <       0.00000014 Ry

     iteration #  6     ecut=    10.00 Ry     beta= 0.70
     Davidson diagonalization with overlap
     ethr =  1.57E-09,  avg # of iterations =  2.0

     total cpu time spent up to now is        2.3 secs

     End of self-consistent calculation

          k = 0.0000 0.0000 0.0000 (   249 PWs)   bands (ev):

   -33.9527 -13.0826 -13.0826 -13.0826  -0.3740   7.1025   7.1025   7.1025
     8.3307

          k = 0.0000-0.1000 0.1000 (   247 PWs)   bands (ev):

   -33.9457 -13.0941 -13.0560 -12.9600  -0.2354   6.7752   6.8723   7.2662
     8.0033

          k = 0.0000-0.2000 0.2000 (   259 PWs)   bands (ev):

   -33.9754 -13.5819 -13.2230 -13.2068   0.1629   5.8205   6.4112   7.5187
     7.9781

          k = 0.0000-0.3000 0.3000 (   257 PWs)   bands (ev):

   -33.9750 -13.3875 -13.3627 -13.2475   0.8035   4.7623   5.9651   7.9423
     8.0989

          k = 0.0000-0.4000 0.4000 (   255 PWs)   bands (ev):

   -33.9701 -13.3515 -13.2785 -13.2698   1.6242   3.7182   5.7015   7.7031
     8.0592

          k = 0.0000 0.5000-0.5000 (   268 PWs)   bands (ev):

   -34.0006 -13.7250 -13.5921 -13.5222   2.3471   2.8629   5.5586   7.4706
     8.1813

          k =-0.1000-0.1000 0.2000 (   255 PWs)   bands (ev):

   -33.9655 -13.4940 -13.1283 -13.0931   0.0316   6.2188   6.4091   7.3918
     7.7468

          k =-0.1000-0.2000 0.3000 (   256 PWs)   bands (ev):

   -33.9705 -13.4103 -13.2842 -13.1777   0.5537   5.3031   5.9255   7.6310
     7.7913

          k =-0.1000-0.3000 0.4000 (   256 PWs)   bands (ev):

   -33.9723 -13.3636 -13.3275 -13.2651   1.2898   4.2827   5.5778   7.4512
     8.1008

          k =-0.1000 0.6000-0.5000 (   261 PWs)   bands (ev):

   -33.9842 -13.5017 -13.4449 -13.3875   2.1526   3.2681   5.4100   7.1463
     8.3633

          k =-0.2000-0.2000 0.4000 (   254 PWs)   bands (ev):

   -33.9668 -13.4155 -13.2648 -13.1145   1.1726   4.7447   5.2415   7.4590
     7.8225

          k =-0.2000 0.7000-0.5000 (   258 PWs)   bands (ev):

   -33.9767 -13.4866 -13.3976 -13.2363   1.9818   3.9412   4.8213   7.0360
     8.0538

          k =-0.2000 0.6000-0.4000 (   266 PWs)   bands (ev):

   -33.9950 -13.6375 -13.6353 -13.4180   2.7806   3.0693   4.6869   6.8500
     8.2867

          k =-0.3000 0.7000-0.4000 (   256 PWs)   bands (ev):

   -33.9707 -13.4366 -13.4187 -13.1280   2.8485   3.7081   3.9353   6.8301
     8.2642

          k = 0.0000 0.0000 0.2000 (   249 PWs)   bands (ev):

   -33.9512 -13.3975 -12.9387 -12.9387  -0.0978   6.7370   6.7370   7.2104
     7.3439

          k = 0.0000-0.1000 0.3000 (   258 PWs)   bands (ev):

   -33.9745 -13.5995 -13.2085 -13.1776   0.2932   5.8634   6.3407   6.9653
     7.6070

          k = 0.0000-0.2000 0.4000 (   258 PWs)   bands (ev):

   -33.9774 -13.4855 -13.3575 -13.2454   0.9295   4.8270   5.9802   6.9379
     8.1305

          k = 0.0000-0.3000 0.5000 (   257 PWs)   bands (ev):

   -33.9750 -13.4982 -13.3047 -13.2514   1.7418   3.7956   5.7406   6.7638
     8.5391

          k = 0.0000 0.6000-0.4000 (   262 PWs)   bands (ev):

   -33.9871 -13.5761 -13.5298 -13.3172   2.4956   2.9408   5.6379   6.6352
     8.7105

          k =-0.1000-0.1000 0.4000 (   256 PWs)   bands (ev):

   -33.9717 -13.4747 -13.2772 -13.1679   0.8078   5.2703   5.8427   6.8717
     7.8949

          k =-0.1000-0.2000 0.5000 (   256 PWs)   bands (ev):

   -33.9720 -13.4022 -13.3683 -13.2010   1.5297   4.4041   5.4152   6.8815
     7.8775

          k =-0.1000 0.7000-0.4000 (   255 PWs)   bands (ev):

   -33.9703 -13.4229 -13.2971 -13.2170   2.4025   3.4331   5.1919   6.7168
     8.2008

          k =-0.2000 0.2000 0.2000 (   261 PWs)   bands (ev):

   -33.9833 -13.4694 -13.3782 -13.3782   0.4251   5.6840   5.6840   7.4904
     8.2427

          k =-0.2000 0.8000-0.4000 (   256 PWs)   bands (ev):

   -33.9723 -13.4873 -13.4034 -13.1204   2.3119   4.0199   4.5232   7.2935
     7.4675

          k =-0.2000 0.7000-0.3000 (   259 PWs)   bands (ev):

   -33.9790 -13.5688 -13.4197 -13.2402   3.1921   3.2664   4.2080   7.2233
     7.9892

          k =-0.3000 0.3000 0.2000 (   259 PWs)   bands (ev):

   -33.9797 -13.4642 -13.4079 -13.2745   1.0480   4.8099   5.2900   7.1998
     8.4756

          k = 0.6000-0.6000 0.2000 (   255 PWs)   bands (ev):

   -33.9698 -13.4364 -13.3155 -13.1477   1.8658   3.8783   5.0579   6.7785
     8.7552

          k = 0.6000-0.7000 0.3000 (   258 PWs)   bands (ev):

   -33.9757 -13.4498 -13.3597 -13.2766   1.7629   4.3744   4.6868   6.4815
     8.6199

          k = 0.5000-0.5000 0.2000 (   258 PWs)   bands (ev):

   -33.9773 -13.5351 -13.3114 -13.2847   2.6501   3.0197   5.0089   6.5780
     8.8855

          k = 0.5000-0.6000 0.3000 (   257 PWs)   bands (ev):

   -33.9731 -13.3929 -13.3729 -13.2717   2.6434   3.6073   4.4179   6.0583
     8.8167

          k = 0.4000-0.6000 0.4000 (   252 PWs)   bands (ev):

   -33.9612 -13.3363 -13.1834 -13.1834   3.5132   3.5132   3.6333   5.8206
     8.9903

          k = 0.0000 0.0000 0.4000 (   257 PWs)   bands (ev):

   -33.9751 -13.6158 -13.1906 -13.1906   0.6772   5.8055   6.1590   6.1590
     7.8643

          k = 0.0000-0.1000 0.5000 (   249 PWs)   bands (ev):

   -33.9572 -13.2616 -13.1675 -13.0834   1.3133   4.9591   5.9988   6.1759
     7.7541

          k = 0.0000-0.2000 0.6000 (   255 PWs)   bands (ev):

   -33.9732 -13.4552 -13.3092 -13.2199   2.1000   3.9997   5.8118   5.9040
     7.6818

          k = 0.0000 0.7000-0.3000 (   252 PWs)   bands (ev):

   -33.9660 -13.3661 -13.2436 -13.1715   2.9365   3.1231   5.7453   5.7591
     7.9326

          k =-0.1000-0.1000 0.6000 (   252 PWs)   bands (ev):

   -33.9676 -13.4426 -13.2354 -13.1217   1.9955   4.4584   5.3031   6.4049
     7.1768

          k =-0.1000 0.8000-0.3000 (   254 PWs)   bands (ev):

   -33.9736 -13.4485 -13.3207 -13.2090   2.8346   3.7331   4.8231   6.4466
     7.3477

          k =-0.2000 0.8000-0.2000 (   249 PWs)   bands (ev):

   -33.9624 -13.3964 -13.1266 -13.1266   3.5698   3.5698   4.0729   7.0431
     7.0432

          k = 0.6000-0.6000 0.4000 (   258 PWs)   bands (ev):

   -33.9747 -13.3929 -13.3465 -13.3465   2.5469   4.1522   4.1522   5.5295
     9.1210

          k = 0.5000-0.5000 0.4000 (   256 PWs)   bands (ev):

   -33.9702 -13.3574 -13.3119 -13.2966   3.4323   3.4465   4.0715   5.1398
     9.1921

          k = 0.0000 0.0000 0.6000 (   249 PWs)   bands (ev):

   -33.9623 -13.5065 -13.0595 -13.0595   1.8826   4.7769   5.9340   5.9340
     6.6606

          k = 0.0000-0.1000 0.7000 (   254 PWs)   bands (ev):

   -33.9768 -13.5295 -13.2799 -13.2234   2.6223   4.2202   5.4913   5.8213
     6.6349

          k = 0.0000 0.8000-0.2000 (   248 PWs)   bands (ev):

   -33.9636 -13.2416 -13.2243 -13.1752   3.4092   3.5208   5.2271   5.7870
     6.9898

          k =-0.1000 0.9000-0.2000 (   247 PWs)   bands (ev):

   -33.9623 -13.2609 -13.2118 -13.1165   3.3523   3.9328   4.8569   6.2066
     6.5308

          k = 0.0000 0.0000 0.8000 (   245 PWs)   bands (ev):

   -33.9591 -13.2925 -13.0940 -13.0940   3.2507   4.1496   5.7296   5.8237
     5.8237

          k = 0.0000 0.9000-0.1000 (   248 PWs)   bands (ev):

   -33.9667 -13.2859 -13.2376 -13.1762   3.7509   3.8957   5.3299   5.7868
     6.1569

          k = 0.0000 0.0000-1.0000 (   236 PWs)   bands (ev):

   -33.9383 -12.9641 -12.9641 -12.9641   3.9501   5.8477   5.8477   5.8477
     7.1877

     the Fermi energy is     1.9947 ev

!    total energy              =     -57.25995247 Ry
     Harris-Foulkes estimate   =     -57.25995247 Ry
     estimated scf accuracy    <          4.7E-10 Ry

     The total energy is the sum of the following terms:

     one-electron contribution =     -33.57650900 Ry
     hartree contribution      =      16.85353259 Ry
     xc contribution           =     -10.64000298 Ry
     ewald contribution        =     -29.89633971 Ry
     smearing contrib. (-TS)   =      -0.00063337 Ry

     convergence has been achieved in   6 iterations

     Forces acting on atoms (cartesian axes, Ry/au):

     atom    1 type  1   force =     0.00000000    0.00000000    0.00000000

     Total force =     0.000000     Total SCF correction =     0.000000


     Computing stress (Cartesian axis) and pressure

          total   stress  (Ry/bohr**3)                   (kbar)     P= -797.04
  -0.00541820   0.00000000  -0.00000000       -797.04      0.00     -0.00
   0.00000000  -0.00541820   0.00000000          0.00   -797.04      0.00
  -0.00000000   0.00000000  -0.00541820         -0.00      0.00   -797.04


     Writing output data file K.save/

     init_run     :      0.13s CPU      0.14s WALL (       1 calls)
     electrons    :      1.32s CPU      1.44s WALL (       1 calls)
     forces       :      0.02s CPU      0.02s WALL (       1 calls)
     stress       :      0.06s CPU      0.06s WALL (       1 calls)

     Called by init_run:
     wfcinit      :      0.06s CPU      0.07s WALL (       1 calls)
     potinit      :      0.00s CPU      0.00s WALL (       1 calls)
     hinit0       :      0.06s CPU      0.07s WALL (       1 calls)

     Called by electrons:
     c_bands      :      1.12s CPU      1.22s WALL (       6 calls)
     sum_band     :      0.18s CPU      0.20s WALL (       6 calls)
     v_of_rho     :      0.00s CPU      0.00s WALL (       7 calls)
     newd         :      0.01s CPU      0.01s WALL (       7 calls)
     mix_rho      :      0.00s CPU      0.00s WALL (       6 calls)

     Called by c_bands:
     init_us_2    :      0.03s CPU      0.03s WALL (     705 calls)
     cegterg      :      1.07s CPU      1.17s WALL (     282 calls)

     Called by sum_band:
     sum_band:bec :      0.00s CPU      0.00s WALL (     282 calls)
     addusdens    :      0.01s CPU      0.01s WALL (       6 calls)

     Called by *egterg:
     h_psi        :      0.73s CPU      0.80s WALL (    1241 calls)
     s_psi        :      0.02s CPU      0.02s WALL (    1241 calls)
     g_psi        :      0.00s CPU      0.00s WALL (     912 calls)
     cdiaghg      :      0.23s CPU      0.24s WALL (    1194 calls)

     Called by h_psi:
     h_psi:pot    :      0.72s CPU      0.80s WALL (    1241 calls)
     h_psi:calbec :      0.04s CPU      0.05s WALL (    1241 calls)
     vloc_psi     :      0.65s CPU      0.72s WALL (    1241 calls)
     add_vuspsi   :      0.02s CPU      0.02s WALL (    1241 calls)

     General routines
     calbec       :      0.07s CPU      0.07s WALL (    1758 calls)
     fft          :      0.00s CPU      0.00s WALL (      37 calls)
     ffts         :      0.00s CPU      0.00s WALL (       6 calls)
     fftw         :      0.73s CPU      0.80s WALL (   17152 calls)

     Parallel routines
     fft_scatt_xy :      0.06s CPU      0.07s WALL (   17195 calls)
     fft_scatt_yz :      0.30s CPU      0.33s WALL (   17195 calls)

     PWSCF        :     2.27s CPU         2.46s WALL


   This run was terminated on:   0:10:46   8Apr2024            

=------------------------------------------------------------------------------=
   JOB DONE.
=------------------------------------------------------------------------------=
