
     Program PWSCF v.6.3MaX starts on  8Apr2024 at  1:20:16 

     This program is part of the open-source Quantum ESPRESSO suite
     for quantum simulation of materials; please cite
         "P. Giannozzi et al., J. Phys.:Condens. Matter 21 395502 (2009);
         "P. Giannozzi et al., J. Phys.:Condens. Matter 29 465901 (2017);
          URL http://www.quantum-espresso.org", 
     in publications or presentations arising from this work. More details at
     http://www.quantum-espresso.org/quote

     Parallel version (MPI), running on     5 processors

     MPI processes distributed on     1 nodes
     R & G space division:  proc/nbgrp/npool/nimage =       5
     Waiting for input...
     Reading input from standard input

     Current dimensions of program PWSCF are:
     Max number of different atomic species (ntypx) = 10
     Max number of k-points (npk) =  40000
     Max angular momentum in pseudopotentials (lmaxx) =  3
               file K.pz-spn-rrkjus_psl.1.0.0.UPF: wavefunction(s)  3S renormalized

     Subspace diagonalization in iterative solution of the eigenvalue problem:
     a serial algorithm will be used


     Parallelization info
     --------------------
     sticks:   dense  smooth     PW     G-vecs:    dense   smooth      PW
     Min         369     369    107                10119    10119    1560
     Max         370     370    107                10120    10120    1561
     Sum        1849    1849    535                50597    50597    7803



     bravais-lattice index     =            3
     lattice parameter (alat)  =       9.8600  a.u.
     unit-cell volume          =     479.2926 (a.u.)^3
     number of atoms/cell      =            1
     number of atomic types    =            1
     number of electrons       =         9.00
     number of Kohn-Sham states=            9
     kinetic-energy cutoff     =      85.0000  Ry
     charge density cutoff     =     340.0000  Ry
     convergence threshold     =      1.0E-08
     mixing beta               =       0.7000
     number of iterations used =            8  plain     mixing
     Exchange-correlation      = LDA ( 1  1  0  0 0 0)

     celldm(1)=   9.860000  celldm(2)=   0.000000  celldm(3)=   0.000000
     celldm(4)=   0.000000  celldm(5)=   0.000000  celldm(6)=   0.000000

     crystal axes: (cart. coord. in units of alat)
               a(1) = (   0.500000   0.500000   0.500000 )  
               a(2) = (  -0.500000   0.500000   0.500000 )  
               a(3) = (  -0.500000  -0.500000   0.500000 )  

     reciprocal axes: (cart. coord. in units 2 pi/alat)
               b(1) = (  1.000000  0.000000  1.000000 )  
               b(2) = ( -1.000000  1.000000  0.000000 )  
               b(3) = (  0.000000 -1.000000  1.000000 )  


     PseudoPot. # 1 for K  read from file:
     /home/lorenzo/pseudos/K/K.pz-spn-rrkjus_psl.1.0.0.UPF
     MD5 check sum: af434a66a3b91719abff201b8f79bb09
     Pseudo is Ultrasoft + core correction, Zval =  9.0
     Generated using "atomic" code by A. Dal Corso v.6.2.2
     Using radial grid of 1165 points,  6 beta functions with: 
                l(1) =   0
                l(2) =   0
                l(3) =   1
                l(4) =   1
                l(5) =   2
                l(6) =   2
     Q(r) pseudized with 0 coefficients 


     atomic species   valence    mass     pseudopotential
        K              9.00    39.09830     K ( 1.00)

     48 Sym. Ops., with inversion, found



   Cartesian axes

     site n.     atom                  positions (alat units)
         1           K   tau(   1) = (   0.0000000   0.0000000   0.0000000  )

     number of k points=    16  gaussian smearing, width (Ry)=  0.0100
                       cart. coord. in units 2pi/alat
        k(    1) = (   0.0000000   0.0000000   0.0000000), wk =   0.0092593
        k(    2) = (   0.0000000  -0.1666667   0.1666667), wk =   0.1111111
        k(    3) = (   0.0000000  -0.3333333   0.3333333), wk =   0.1111111
        k(    4) = (   0.0000000   0.5000000  -0.5000000), wk =   0.0555556
        k(    5) = (  -0.1666667  -0.1666667   0.3333333), wk =   0.2222222
        k(    6) = (  -0.1666667   0.6666667  -0.5000000), wk =   0.4444444
        k(    7) = (  -0.3333333   0.6666667  -0.3333333), wk =   0.0740741
        k(    8) = (   0.0000000   0.0000000   0.3333333), wk =   0.0555556
        k(    9) = (   0.0000000  -0.1666667   0.5000000), wk =   0.2222222
        k(   10) = (   0.0000000   0.6666667  -0.3333333), wk =   0.1111111
        k(   11) = (  -0.1666667   0.8333333  -0.3333333), wk =   0.2222222
        k(   12) = (   0.6666667  -0.6666667   0.3333333), wk =   0.0740741
        k(   13) = (   0.5000000  -0.5000000   0.3333333), wk =   0.1111111
        k(   14) = (   0.0000000   0.0000000   0.6666667), wk =   0.0555556
        k(   15) = (   0.0000000   0.8333333  -0.1666667), wk =   0.1111111
        k(   16) = (   0.0000000   0.0000000  -1.0000000), wk =   0.0092593

     Dense  grid:    50597 G-vectors     FFT dimensions: (  54,  54,  54)

     Estimated max dynamical RAM per process >      43.08 MB

     Estimated total dynamical RAM >     215.39 MB

     Check: negative/imaginary core charge=   -0.000001    0.000000

     Initial potential from superposition of free atoms

     starting charge    8.98437, renormalised to    9.00000
     Starting wfcs are    8 randomized atomic wfcs +    1 random wfcs

     total cpu time spent up to now is        1.5 secs

     Self-consistent Calculation

     iteration #  1     ecut=    85.00 Ry     beta= 0.70
     Davidson diagonalization with overlap
     ethr =  1.00E-02,  avg # of iterations =  6.3

     Threshold (ethr) on eigenvalues was too large:
     Diagonalizing with lowered threshold

     Davidson diagonalization with overlap
     ethr =  1.24E-05,  avg # of iterations =  6.1

     total cpu time spent up to now is        5.8 secs

     total energy              =     -58.74215670 Ry
     Harris-Foulkes estimate   =     -58.74271999 Ry
     estimated scf accuracy    <       0.00111241 Ry

     iteration #  2     ecut=    85.00 Ry     beta= 0.70
     Davidson diagonalization with overlap
     ethr =  1.24E-05,  avg # of iterations =  2.2

     total cpu time spent up to now is        7.1 secs

     total energy              =     -58.74235380 Ry
     Harris-Foulkes estimate   =     -58.74237087 Ry
     estimated scf accuracy    <       0.00008885 Ry

     iteration #  3     ecut=    85.00 Ry     beta= 0.70
     Davidson diagonalization with overlap
     ethr =  9.87E-07,  avg # of iterations =  1.9

     total cpu time spent up to now is        8.3 secs

     total energy              =     -58.74236261 Ry
     Harris-Foulkes estimate   =     -58.74236182 Ry
     estimated scf accuracy    <       0.00000561 Ry

     iteration #  4     ecut=    85.00 Ry     beta= 0.70
     Davidson diagonalization with overlap
     ethr =  6.23E-08,  avg # of iterations =  1.4

     total cpu time spent up to now is        9.3 secs

     total energy              =     -58.74236318 Ry
     Harris-Foulkes estimate   =     -58.74236317 Ry
     estimated scf accuracy    <       0.00000004 Ry

     iteration #  5     ecut=    85.00 Ry     beta= 0.70
     Davidson diagonalization with overlap
     ethr =  3.93E-10,  avg # of iterations =  1.9

     total cpu time spent up to now is       10.3 secs

     End of self-consistent calculation

          k = 0.0000 0.0000 0.0000 (  6363 PWs)   bands (ev):

   -30.0973 -13.7356 -13.7356 -13.7356  -0.4765   5.9291   5.9291   6.8748
     6.8756

          k = 0.0000-0.1667 0.1667 (  6361 PWs)   bands (ev):

   -30.0960 -13.7558 -13.7423 -13.7355  -0.1232   5.3546   5.5697   6.2127
     6.6292

          k = 0.0000-0.3333 0.3333 (  6344 PWs)   bands (ev):

   -30.0934 -13.7957 -13.7557 -13.7355   0.8681   3.9020   5.0446   6.7057
     6.9679

          k = 0.0000 0.5000-0.5000 (  6300 PWs)   bands (ev):

   -30.0921 -13.8153 -13.7624 -13.7355   2.1434   2.4886   4.8354   6.5327
     7.8350

          k =-0.1667-0.1667 0.3333 (  6362 PWs)   bands (ev):

   -30.0941 -13.7829 -13.7506 -13.7402   0.5513   4.5553   4.9193   6.5133
     6.6126

          k =-0.1667 0.6667-0.5000 (  6336 PWs)   bands (ev):

   -30.0921 -13.8052 -13.7663 -13.7418   1.7705   3.2645   4.4361   6.3536
     7.0071

          k =-0.3333 0.6667-0.3333 (  6326 PWs)   bands (ev):

   -30.0915 -13.7905 -13.7905 -13.7456   2.9760   2.9761   3.3019   6.2472
     7.0177

          k = 0.0000 0.0000 0.3333 (  6331 PWs)   bands (ev):

   -30.0948 -13.7594 -13.7493 -13.7493   0.2203   5.4563   5.4563   5.4651
     6.3320

          k = 0.0000-0.1667 0.5000 (  6346 PWs)   bands (ev):

   -30.0924 -13.7921 -13.7632 -13.7508   1.1837   4.0438   5.1098   5.5971
     6.9425

          k = 0.0000 0.6667-0.3333 (  6326 PWs)   bands (ev):

   -30.0911 -13.8097 -13.7701 -13.7500   2.4998   2.6360   4.9460   5.4361
     6.9578

          k =-0.1667 0.8333-0.3333 (  6328 PWs)   bands (ev):

   -30.0906 -13.7999 -13.7822 -13.7561   2.3155   3.4575   4.1425   5.9587
     6.4093

          k = 0.6667-0.6667 0.3333 (  6384 PWs)   bands (ev):

   -30.0927 -13.7984 -13.7533 -13.7533   1.4908   4.0004   4.0004   6.0847
     7.2194

          k = 0.5000-0.5000 0.3333 (  6342 PWs)   bands (ev):

   -30.0919 -13.7946 -13.7714 -13.7547   2.8136   2.8192   3.8182   5.3877
     7.3206

          k = 0.0000 0.0000 0.6667 (  6346 PWs)   bands (ev):

   -30.0902 -13.7881 -13.7780 -13.7780   2.0410   3.9450   5.1734   5.1734
     5.7572

          k = 0.0000 0.8333-0.1667 (  6344 PWs)   bands (ev):

   -30.0891 -13.7986 -13.7854 -13.7788   3.0506   3.2526   4.7480   5.1708
     5.9420

          k = 0.0000 0.0000-1.0000 (  6434 PWs)   bands (ev):

   -30.0881 -13.7931 -13.7931 -13.7931   3.4015   5.2835   5.2835   5.2835
     7.2563

     the Fermi energy is     1.7554 ev

!    total energy              =     -58.74236319 Ry
     Harris-Foulkes estimate   =     -58.74236319 Ry
     estimated scf accuracy    <          5.3E-10 Ry

     The total energy is the sum of the following terms:

     one-electron contribution =     -36.65427652 Ry
     hartree contribution      =      18.82646349 Ry
     xc contribution           =     -11.01696525 Ry
     ewald contribution        =     -29.89633970 Ry
     smearing contrib. (-TS)   =      -0.00124521 Ry

     convergence has been achieved in   5 iterations

     Forces acting on atoms (cartesian axes, Ry/au):

     atom    1 type  1   force =     0.00000000    0.00000000    0.00000000

     Total force =     0.000000     Total SCF correction =     0.000000


     Computing stress (Cartesian axis) and pressure

          total   stress  (Ry/bohr**3)                   (kbar)     P=   -3.70
  -0.00002514  -0.00000000  -0.00000000         -3.70     -0.00     -0.00
   0.00000000  -0.00002514   0.00000000          0.00     -3.70      0.00
  -0.00000000   0.00000000  -0.00002514         -0.00      0.00     -3.70


     Writing output data file K.save/

     init_run     :      0.71s CPU      0.74s WALL (       1 calls)
     electrons    :      8.56s CPU      8.83s WALL (       1 calls)
     forces       :      0.17s CPU      0.17s WALL (       1 calls)
     stress       :      0.59s CPU      0.59s WALL (       1 calls)

     Called by init_run:
     wfcinit      :      0.32s CPU      0.34s WALL (       1 calls)
     potinit      :      0.02s CPU      0.02s WALL (       1 calls)
     hinit0       :      0.23s CPU      0.24s WALL (       1 calls)

     Called by electrons:
     c_bands      :      6.68s CPU      6.90s WALL (       6 calls)
     sum_band     :      1.53s CPU      1.57s WALL (       6 calls)
     v_of_rho     :      0.04s CPU      0.04s WALL (       6 calls)
     newd         :      0.34s CPU      0.35s WALL (       6 calls)
     mix_rho      :      0.02s CPU      0.02s WALL (       6 calls)

     Called by c_bands:
     init_us_2    :      0.21s CPU      0.22s WALL (     240 calls)
     cegterg      :      6.39s CPU      6.60s WALL (      96 calls)

     Called by sum_band:
     sum_band:bec :      0.00s CPU      0.00s WALL (      96 calls)
     addusdens    :      0.30s CPU      0.30s WALL (       6 calls)

     Called by *egterg:
     h_psi        :      5.46s CPU      5.67s WALL (     430 calls)
     s_psi        :      0.12s CPU      0.12s WALL (     430 calls)
     g_psi        :      0.01s CPU      0.01s WALL (     318 calls)
     cdiaghg      :      0.12s CPU      0.12s WALL (     398 calls)

     Called by h_psi:
     h_psi:pot    :      5.44s CPU      5.65s WALL (     430 calls)
     h_psi:calbec :      0.33s CPU      0.33s WALL (     430 calls)
     vloc_psi     :      4.97s CPU      5.16s WALL (     430 calls)
     add_vuspsi   :      0.14s CPU      0.14s WALL (     430 calls)

     General routines
     calbec       :      0.48s CPU      0.48s WALL (     606 calls)
     fft          :      0.06s CPU      0.07s WALL (      34 calls)
     ffts         :      0.01s CPU      0.01s WALL (       6 calls)
     fftw         :      5.46s CPU      5.67s WALL (    5796 calls)

     Parallel routines
     fft_scatt_xy :      0.40s CPU      0.42s WALL (    5836 calls)
     fft_scatt_yz :      1.92s CPU      2.00s WALL (    5836 calls)

     PWSCF        :    10.81s CPU        11.16s WALL


   This run was terminated on:   1:20:28   8Apr2024            

=------------------------------------------------------------------------------=
   JOB DONE.
=------------------------------------------------------------------------------=
