
     Program PWSCF v.6.3MaX starts on  8Apr2024 at  0: 5:29 

     This program is part of the open-source Quantum ESPRESSO suite
     for quantum simulation of materials; please cite
         "P. Giannozzi et al., J. Phys.:Condens. Matter 21 395502 (2009);
         "P. Giannozzi et al., J. Phys.:Condens. Matter 29 465901 (2017);
          URL http://www.quantum-espresso.org", 
     in publications or presentations arising from this work. More details at
     http://www.quantum-espresso.org/quote

     Parallel version (MPI), running on     5 processors

     MPI processes distributed on     1 nodes
     R & G space division:  proc/nbgrp/npool/nimage =       5
     Waiting for input...
     Reading input from standard input

     Current dimensions of program PWSCF are:
     Max number of different atomic species (ntypx) = 10
     Max number of k-points (npk) =  40000
     Max angular momentum in pseudopotentials (lmaxx) =  3
               file K.pz-spn-kjpaw_psl.1.0.0.UPF: wavefunction(s)  3S renormalized

     Subspace diagonalization in iterative solution of the eigenvalue problem:
     a serial algorithm will be used


     Parallelization info
     --------------------
     sticks:   dense  smooth     PW     G-vecs:    dense   smooth      PW
     Min         438     438    123                12915    12915    1937
     Max         439     439    124                12916    12916    1939
     Sum        2191    2191    619                64579    64579    9693



     bravais-lattice index     =            3
     lattice parameter (alat)  =       9.8600  a.u.
     unit-cell volume          =     479.2926 (a.u.)^3
     number of atoms/cell      =            1
     number of atomic types    =            1
     number of electrons       =         9.00
     number of Kohn-Sham states=            9
     kinetic-energy cutoff     =     100.0000  Ry
     charge density cutoff     =     400.0000  Ry
     convergence threshold     =      1.0E-08
     mixing beta               =       0.7000
     number of iterations used =            8  plain     mixing
     Exchange-correlation      = SLA PZ NOGX NOGC ( 1  1  0  0 0 0)

     celldm(1)=   9.860000  celldm(2)=   0.000000  celldm(3)=   0.000000
     celldm(4)=   0.000000  celldm(5)=   0.000000  celldm(6)=   0.000000

     crystal axes: (cart. coord. in units of alat)
               a(1) = (   0.500000   0.500000   0.500000 )  
               a(2) = (  -0.500000   0.500000   0.500000 )  
               a(3) = (  -0.500000  -0.500000   0.500000 )  

     reciprocal axes: (cart. coord. in units 2 pi/alat)
               b(1) = (  1.000000  0.000000  1.000000 )  
               b(2) = ( -1.000000  1.000000  0.000000 )  
               b(3) = (  0.000000 -1.000000  1.000000 )  


     PseudoPot. # 1 for K  read from file:
     /home/lorenzo/pseudos/K/K.pz-spn-kjpaw_psl.1.0.0.UPF
     MD5 check sum: 59b94f4c1a6681f21e103574f2c5fc67
     Pseudo is Projector augmented-wave + core cor, Zval =  9.0
     Generated using "atomic" code by A. Dal Corso v.6.2.2
     Shape of augmentation charge: PSQ
     Using radial grid of 1165 points,  6 beta functions with: 
                l(1) =   0
                l(2) =   0
                l(3) =   1
                l(4) =   1
                l(5) =   2
                l(6) =   2
     Q(r) pseudized with 0 coefficients 


     atomic species   valence    mass     pseudopotential
        K              9.00    39.09830     K ( 1.00)

     48 Sym. Ops., with inversion, found



   Cartesian axes

     site n.     atom                  positions (alat units)
         1           K   tau(   1) = (   0.0000000   0.0000000   0.0000000  )

     number of k points=    10  gaussian smearing, width (Ry)=  0.0100
                       cart. coord. in units 2pi/alat
        k(    1) = (   0.0000000   0.0000000   0.0000000), wk =   0.0160000
        k(    2) = (   0.0000000  -0.2000000   0.2000000), wk =   0.1920000
        k(    3) = (   0.0000000  -0.4000000   0.4000000), wk =   0.1920000
        k(    4) = (  -0.2000000  -0.2000000   0.4000000), wk =   0.3840000
        k(    5) = (  -0.2000000   0.6000000  -0.4000000), wk =   0.3840000
        k(    6) = (   0.0000000   0.0000000   0.4000000), wk =   0.0960000
        k(    7) = (   0.0000000  -0.2000000   0.6000000), wk =   0.3840000
        k(    8) = (  -0.2000000   0.8000000  -0.2000000), wk =   0.1280000
        k(    9) = (   0.6000000  -0.6000000   0.4000000), wk =   0.1280000
        k(   10) = (   0.0000000   0.0000000   0.8000000), wk =   0.0960000

     Dense  grid:    64579 G-vectors     FFT dimensions: (  60,  60,  60)

     Estimated max dynamical RAM per process >      53.36 MB

     Estimated total dynamical RAM >     266.78 MB

     Check: negative/imaginary core charge=   -0.000001    0.000000

     Initial potential from superposition of free atoms

     starting charge    8.98437, renormalised to    9.00000
     Starting wfcs are    8 randomized atomic wfcs +    1 random wfcs
     Checking if some PAW data can be deallocated... 

     total cpu time spent up to now is        1.5 secs

     Self-consistent Calculation

     iteration #  1     ecut=   100.00 Ry     beta= 0.70
     Davidson diagonalization with overlap
     ethr =  1.00E-02,  avg # of iterations =  7.8

     Threshold (ethr) on eigenvalues was too large:
     Diagonalizing with lowered threshold

     Davidson diagonalization with overlap
     ethr =  1.20E-05,  avg # of iterations =  5.6

     total cpu time spent up to now is        4.1 secs

     total energy              =    -109.87215561 Ry
     Harris-Foulkes estimate   =    -109.87271092 Ry
     estimated scf accuracy    <       0.00109977 Ry

     iteration #  2     ecut=   100.00 Ry     beta= 0.70
     Davidson diagonalization with overlap
     ethr =  1.22E-05,  avg # of iterations =  2.2

     total cpu time spent up to now is        5.1 secs

     total energy              =    -109.87234142 Ry
     Harris-Foulkes estimate   =    -109.87236657 Ry
     estimated scf accuracy    <       0.00008842 Ry

     iteration #  3     ecut=   100.00 Ry     beta= 0.70
     Davidson diagonalization with overlap
     ethr =  9.82E-07,  avg # of iterations =  2.0

     total cpu time spent up to now is        6.0 secs

     total energy              =    -109.87235276 Ry
     Harris-Foulkes estimate   =    -109.87235250 Ry
     estimated scf accuracy    <       0.00000595 Ry

     iteration #  4     ecut=   100.00 Ry     beta= 0.70
     Davidson diagonalization with overlap
     ethr =  6.61E-08,  avg # of iterations =  1.6

     total cpu time spent up to now is        6.7 secs

     total energy              =    -109.87235338 Ry
     Harris-Foulkes estimate   =    -109.87235337 Ry
     estimated scf accuracy    <       0.00000004 Ry

     iteration #  5     ecut=   100.00 Ry     beta= 0.70
     Davidson diagonalization with overlap
     ethr =  4.31E-10,  avg # of iterations =  2.4

     total cpu time spent up to now is        7.7 secs

     End of self-consistent calculation

          k = 0.0000 0.0000 0.0000 (  8151 PWs)   bands (ev):

   -30.0987 -13.7367 -13.7367 -13.7367  -0.4765   5.9289   5.9289   6.8743
     6.8745

          k = 0.0000-0.2000 0.2000 (  8116 PWs)   bands (ev):

   -30.0969 -13.7646 -13.7460 -13.7366   0.0287   5.0919   5.4540   6.3353
     6.6427

          k = 0.0000-0.4000 0.4000 (  8074 PWs)   bands (ev):

   -30.0940 -13.8089 -13.7609 -13.7366   1.3998   3.2799   4.9122   6.6281
     7.1258

          k =-0.2000-0.2000 0.4000 (  8116 PWs)   bands (ev):

   -30.0946 -13.7942 -13.7583 -13.7428   0.9740   4.1556   4.6161   6.5724
     6.6849

          k =-0.2000 0.6000-0.4000 (  8079 PWs)   bands (ev):

   -30.0931 -13.8065 -13.7738 -13.7444   2.5303   2.6594   4.1686   6.2383
     7.1367

          k = 0.0000 0.0000 0.4000 (  8108 PWs)   bands (ev):

   -30.0953 -13.7680 -13.7557 -13.7557   0.5135   5.1009   5.3497   5.3497
     6.4988

          k = 0.0000-0.2000 0.6000 (  8073 PWs)   bands (ev):

   -30.0926 -13.8023 -13.7714 -13.7571   1.8279   3.5341   5.0420   5.3163
     6.6794

          k =-0.2000 0.8000-0.2000 (  8058 PWs)   bands (ev):

   -30.0914 -13.7953 -13.7953 -13.7620   3.0928   3.0929   3.8047   6.1459
     6.1459

          k = 0.6000-0.6000 0.4000 (  8109 PWs)   bands (ev):

   -30.0935 -13.7961 -13.7626 -13.7626   2.2376   3.6310   3.6311   5.3854
     7.3524

          k = 0.0000 0.0000 0.8000 (  8100 PWs)   bands (ev):

   -30.0903 -13.7930 -13.7884 -13.7884   2.8397   3.5981   5.2171   5.2171
     5.2874

     the Fermi energy is     1.7808 ev

!    total energy              =    -109.87235339 Ry
     Harris-Foulkes estimate   =    -109.87235339 Ry
     estimated scf accuracy    <          3.6E-09 Ry

     total all-electron energy =     -1201.197353 Ry

     The total energy is the sum of the following terms:

     one-electron contribution =     -35.37052919 Ry
     hartree contribution      =      18.82601388 Ry
     xc contribution           =     -11.01684017 Ry
     ewald contribution        =     -29.89633970 Ry
     one-center paw contrib.   =     -52.41369670 Ry
     smearing contrib. (-TS)   =      -0.00096152 Ry

     convergence has been achieved in   5 iterations

     Forces acting on atoms (cartesian axes, Ry/au):

     atom    1 type  1   force =     0.00000000    0.00000000    0.00000000

     Total force =     0.000000     Total SCF correction =     0.000000


     Computing stress (Cartesian axis) and pressure

          total   stress  (Ry/bohr**3)                   (kbar)     P=   -3.91
  -0.00002659  -0.00000000   0.00000000         -3.91     -0.00      0.00
  -0.00000000  -0.00002659  -0.00000000         -0.00     -3.91     -0.00
   0.00000000  -0.00000000  -0.00002659          0.00     -0.00     -3.91


     Writing output data file K.save/

     init_run     :      0.76s CPU      0.79s WALL (       1 calls)
     electrons    :      5.91s CPU      6.17s WALL (       1 calls)
     forces       :      0.18s CPU      0.19s WALL (       1 calls)
     stress       :      0.59s CPU      0.64s WALL (       1 calls)

     Called by init_run:
     wfcinit      :      0.28s CPU      0.29s WALL (       1 calls)
     potinit      :      0.07s CPU      0.07s WALL (       1 calls)
     hinit0       :      0.24s CPU      0.24s WALL (       1 calls)

     Called by electrons:
     c_bands      :      4.21s CPU      4.34s WALL (       6 calls)
     sum_band     :      1.13s CPU      1.20s WALL (       6 calls)
     v_of_rho     :      0.05s CPU      0.05s WALL (       6 calls)
     newd         :      0.34s CPU      0.40s WALL (       6 calls)
     PAW_pot      :      0.24s CPU      0.24s WALL (       6 calls)
     mix_rho      :      0.02s CPU      0.02s WALL (       6 calls)

     Called by c_bands:
     init_us_2    :      0.16s CPU      0.16s WALL (     150 calls)
     cegterg      :      4.05s CPU      4.18s WALL (      60 calls)

     Called by sum_band:
     sum_band:bec :      0.00s CPU      0.00s WALL (      60 calls)
     addusdens    :      0.35s CPU      0.41s WALL (       6 calls)

     Called by *egterg:
     h_psi        :      3.56s CPU      3.68s WALL (     286 calls)
     s_psi        :      0.10s CPU      0.10s WALL (     286 calls)
     g_psi        :      0.01s CPU      0.01s WALL (     216 calls)
     cdiaghg      :      0.07s CPU      0.07s WALL (     266 calls)

     Called by h_psi:
     h_psi:pot    :      3.54s CPU      3.66s WALL (     286 calls)
     h_psi:calbec :      0.18s CPU      0.18s WALL (     286 calls)
     vloc_psi     :      3.25s CPU      3.37s WALL (     286 calls)
     add_vuspsi   :      0.11s CPU      0.11s WALL (     286 calls)

     General routines
     calbec       :      0.29s CPU      0.29s WALL (     396 calls)
     fft          :      0.06s CPU      0.06s WALL (      34 calls)
     ffts         :      0.01s CPU      0.01s WALL (       6 calls)
     fftw         :      3.45s CPU      3.57s WALL (    3794 calls)

     Parallel routines
     fft_scatt_xy :      0.29s CPU      0.30s WALL (    3834 calls)
     fft_scatt_yz :      0.78s CPU      0.82s WALL (    3834 calls)

     PWSCF        :     8.18s CPU         8.60s WALL


   This run was terminated on:   0: 5:38   8Apr2024            

=------------------------------------------------------------------------------=
   JOB DONE.
=------------------------------------------------------------------------------=
