
     Program PWSCF v.6.3MaX starts on  8Apr2024 at  0:34:53 

     This program is part of the open-source Quantum ESPRESSO suite
     for quantum simulation of materials; please cite
         "P. Giannozzi et al., J. Phys.:Condens. Matter 21 395502 (2009);
         "P. Giannozzi et al., J. Phys.:Condens. Matter 29 465901 (2017);
          URL http://www.quantum-espresso.org", 
     in publications or presentations arising from this work. More details at
     http://www.quantum-espresso.org/quote

     Parallel version (MPI), running on     5 processors

     MPI processes distributed on     1 nodes
     R & G space division:  proc/nbgrp/npool/nimage =       5
     Waiting for input...
     Reading input from standard input

     Current dimensions of program PWSCF are:
     Max number of different atomic species (ntypx) = 10
     Max number of k-points (npk) =  40000
     Max angular momentum in pseudopotentials (lmaxx) =  3
               file K.pz-spn-kjpaw_psl.1.0.0.UPF: wavefunction(s)  3S renormalized

     Subspace diagonalization in iterative solution of the eigenvalue problem:
     a serial algorithm will be used


     Parallelization info
     --------------------
     sticks:   dense  smooth     PW     G-vecs:    dense   smooth      PW
     Min         221     221     63                 4575     4575     717
     Max         221     221     65                 4576     4576     718
     Sum        1105    1105    321                22879    22879    3589



     bravais-lattice index     =            3
     lattice parameter (alat)  =       9.8600  a.u.
     unit-cell volume          =     479.2926 (a.u.)^3
     number of atoms/cell      =            1
     number of atomic types    =            1
     number of electrons       =         9.00
     number of Kohn-Sham states=            9
     kinetic-energy cutoff     =      50.0000  Ry
     charge density cutoff     =     200.0000  Ry
     convergence threshold     =      1.0E-08
     mixing beta               =       0.7000
     number of iterations used =            8  plain     mixing
     Exchange-correlation      = SLA PZ NOGX NOGC ( 1  1  0  0 0 0)

     celldm(1)=   9.860000  celldm(2)=   0.000000  celldm(3)=   0.000000
     celldm(4)=   0.000000  celldm(5)=   0.000000  celldm(6)=   0.000000

     crystal axes: (cart. coord. in units of alat)
               a(1) = (   0.500000   0.500000   0.500000 )  
               a(2) = (  -0.500000   0.500000   0.500000 )  
               a(3) = (  -0.500000  -0.500000   0.500000 )  

     reciprocal axes: (cart. coord. in units 2 pi/alat)
               b(1) = (  1.000000  0.000000  1.000000 )  
               b(2) = ( -1.000000  1.000000  0.000000 )  
               b(3) = (  0.000000 -1.000000  1.000000 )  


     PseudoPot. # 1 for K  read from file:
     /home/lorenzo/pseudos/K/K.pz-spn-kjpaw_psl.1.0.0.UPF
     MD5 check sum: 59b94f4c1a6681f21e103574f2c5fc67
     Pseudo is Projector augmented-wave + core cor, Zval =  9.0
     Generated using "atomic" code by A. Dal Corso v.6.2.2
     Shape of augmentation charge: PSQ
     Using radial grid of 1165 points,  6 beta functions with: 
                l(1) =   0
                l(2) =   0
                l(3) =   1
                l(4) =   1
                l(5) =   2
                l(6) =   2
     Q(r) pseudized with 0 coefficients 


     atomic species   valence    mass     pseudopotential
        K              9.00    39.09830     K ( 1.00)

     48 Sym. Ops., with inversion, found



   Cartesian axes

     site n.     atom                  positions (alat units)
         1           K   tau(   1) = (   0.0000000   0.0000000   0.0000000  )

     number of k points=    10  gaussian smearing, width (Ry)=  0.0100
                       cart. coord. in units 2pi/alat
        k(    1) = (   0.0000000   0.0000000   0.0000000), wk =   0.0160000
        k(    2) = (   0.0000000  -0.2000000   0.2000000), wk =   0.1920000
        k(    3) = (   0.0000000  -0.4000000   0.4000000), wk =   0.1920000
        k(    4) = (  -0.2000000  -0.2000000   0.4000000), wk =   0.3840000
        k(    5) = (  -0.2000000   0.6000000  -0.4000000), wk =   0.3840000
        k(    6) = (   0.0000000   0.0000000   0.4000000), wk =   0.0960000
        k(    7) = (   0.0000000  -0.2000000   0.6000000), wk =   0.3840000
        k(    8) = (  -0.2000000   0.8000000  -0.2000000), wk =   0.1280000
        k(    9) = (   0.6000000  -0.6000000   0.4000000), wk =   0.1280000
        k(   10) = (   0.0000000   0.0000000   0.8000000), wk =   0.0960000

     Dense  grid:    22879 G-vectors     FFT dimensions: (  40,  40,  40)

     Estimated max dynamical RAM per process >      19.62 MB

     Estimated total dynamical RAM >      98.09 MB

     Check: negative/imaginary core charge=   -0.000006    0.000000

     Initial potential from superposition of free atoms

     starting charge    8.98437, renormalised to    9.00000
     Starting wfcs are    8 randomized atomic wfcs +    1 random wfcs
     Checking if some PAW data can be deallocated... 

     total cpu time spent up to now is        1.1 secs

     Self-consistent Calculation

     iteration #  1     ecut=    50.00 Ry     beta= 0.70
     Davidson diagonalization with overlap
     ethr =  1.00E-02,  avg # of iterations =  7.1

     Threshold (ethr) on eigenvalues was too large:
     Diagonalizing with lowered threshold

     Davidson diagonalization with overlap
     ethr =  1.20E-05,  avg # of iterations =  7.5

     total cpu time spent up to now is        1.9 secs

     total energy              =    -109.87152614 Ry
     Harris-Foulkes estimate   =    -109.87208110 Ry
     estimated scf accuracy    <       0.00110412 Ry

     iteration #  2     ecut=    50.00 Ry     beta= 0.70
     Davidson diagonalization with overlap
     ethr =  1.23E-05,  avg # of iterations =  2.3

     total cpu time spent up to now is        2.2 secs

     total energy              =    -109.87171149 Ry
     Harris-Foulkes estimate   =    -109.87173669 Ry
     estimated scf accuracy    <       0.00008791 Ry

     iteration #  3     ecut=    50.00 Ry     beta= 0.70
     Davidson diagonalization with overlap
     ethr =  9.77E-07,  avg # of iterations =  2.0

     total cpu time spent up to now is        2.6 secs

     total energy              =    -109.87172290 Ry
     Harris-Foulkes estimate   =    -109.87172263 Ry
     estimated scf accuracy    <       0.00000593 Ry

     iteration #  4     ecut=    50.00 Ry     beta= 0.70
     Davidson diagonalization with overlap
     ethr =  6.59E-08,  avg # of iterations =  1.6

     total cpu time spent up to now is        2.8 secs

     total energy              =    -109.87172352 Ry
     Harris-Foulkes estimate   =    -109.87172351 Ry
     estimated scf accuracy    <       0.00000004 Ry

     iteration #  5     ecut=    50.00 Ry     beta= 0.70
     Davidson diagonalization with overlap
     ethr =  4.47E-10,  avg # of iterations =  2.4

     total cpu time spent up to now is        3.1 secs

     End of self-consistent calculation

          k = 0.0000 0.0000 0.0000 (  2899 PWs)   bands (ev):

   -30.0979 -13.7359 -13.7359 -13.7359  -0.4764   5.9297   5.9297   5.9297
     6.8755

          k = 0.0000-0.2000 0.2000 (  2872 PWs)   bands (ev):

   -30.0961 -13.7638 -13.7451 -13.7358   0.0288   5.0924   5.4547   6.3362
     6.6436

          k = 0.0000-0.4000 0.4000 (  2872 PWs)   bands (ev):

   -30.0932 -13.8081 -13.7601 -13.7358   1.3999   3.2801   4.9128   6.6289
     7.1269

          k =-0.2000-0.2000 0.4000 (  2848 PWs)   bands (ev):

   -30.0938 -13.7933 -13.7575 -13.7419   0.9741   4.1559   4.6165   6.5733
     6.6855

          k =-0.2000 0.6000-0.4000 (  2876 PWs)   bands (ev):

   -30.0923 -13.8057 -13.7730 -13.7436   2.5305   2.6595   4.1690   6.2389
     7.1375

          k = 0.0000 0.0000 0.4000 (  2867 PWs)   bands (ev):

   -30.0945 -13.7672 -13.7549 -13.7549   0.5136   5.1014   5.3502   5.3502
     6.4998

          k = 0.0000-0.2000 0.6000 (  2849 PWs)   bands (ev):

   -30.0918 -13.8014 -13.7705 -13.7563   1.8280   3.5344   5.0425   5.3167
     6.6802

          k =-0.2000 0.8000-0.2000 (  2871 PWs)   bands (ev):

   -30.0905 -13.7945 -13.7945 -13.7612   3.0931   3.0931   3.8049   6.1465
     6.1465

          k = 0.6000-0.6000 0.4000 (  2866 PWs)   bands (ev):

   -30.0927 -13.7952 -13.7617 -13.7617   2.2377   3.6313   3.6313   5.3855
     7.3537

          k = 0.0000 0.0000 0.8000 (  2835 PWs)   bands (ev):

   -30.0894 -13.7921 -13.7875 -13.7875   2.8399   3.5985   5.2173   5.2173
     5.2877

     the Fermi energy is     1.7810 ev

!    total energy              =    -109.87172353 Ry
     Harris-Foulkes estimate   =    -109.87172354 Ry
     estimated scf accuracy    <          3.7E-09 Ry

     total all-electron energy =     -1201.196723 Ry

     The total energy is the sum of the following terms:

     one-electron contribution =     -35.36841051 Ry
     hartree contribution      =      18.82546178 Ry
     xc contribution           =     -11.01704877 Ry
     ewald contribution        =     -29.89633978 Ry
     one-center paw contrib.   =     -52.41442473 Ry
     smearing contrib. (-TS)   =      -0.00096152 Ry

     convergence has been achieved in   5 iterations

     Forces acting on atoms (cartesian axes, Ry/au):

     atom    1 type  1   force =     0.00000000    0.00000000    0.00000000

     Total force =     0.000000     Total SCF correction =     0.000000


     Computing stress (Cartesian axis) and pressure

          total   stress  (Ry/bohr**3)                   (kbar)     P=   -4.70
  -0.00003194   0.00000000  -0.00000000         -4.70      0.00     -0.00
   0.00000000  -0.00003194   0.00000000          0.00     -4.70      0.00
  -0.00000000   0.00000000  -0.00003194         -0.00      0.00     -4.70


     Writing output data file K.save/

     init_run     :      0.33s CPU      0.35s WALL (       1 calls)
     electrons    :      1.96s CPU      2.06s WALL (       1 calls)
     forces       :      0.06s CPU      0.06s WALL (       1 calls)
     stress       :      0.23s CPU      0.23s WALL (       1 calls)

     Called by init_run:
     wfcinit      :      0.08s CPU      0.08s WALL (       1 calls)
     potinit      :      0.05s CPU      0.05s WALL (       1 calls)
     hinit0       :      0.17s CPU      0.17s WALL (       1 calls)

     Called by electrons:
     c_bands      :      1.30s CPU      1.38s WALL (       6 calls)
     sum_band     :      0.34s CPU      0.36s WALL (       6 calls)
     v_of_rho     :      0.01s CPU      0.01s WALL (       6 calls)
     newd         :      0.12s CPU      0.13s WALL (       6 calls)
     PAW_pot      :      0.24s CPU      0.24s WALL (       6 calls)
     mix_rho      :      0.01s CPU      0.01s WALL (       6 calls)

     Called by c_bands:
     init_us_2    :      0.05s CPU      0.05s WALL (     150 calls)
     cegterg      :      1.24s CPU      1.31s WALL (      60 calls)

     Called by sum_band:
     sum_band:bec :      0.00s CPU      0.00s WALL (      60 calls)
     addusdens    :      0.12s CPU      0.13s WALL (       6 calls)

     Called by *egterg:
     h_psi        :      1.01s CPU      1.07s WALL (     299 calls)
     s_psi        :      0.03s CPU      0.04s WALL (     299 calls)
     g_psi        :      0.00s CPU      0.00s WALL (     229 calls)
     cdiaghg      :      0.07s CPU      0.07s WALL (     279 calls)

     Called by h_psi:
     h_psi:pot    :      1.00s CPU      1.07s WALL (     299 calls)
     h_psi:calbec :      0.06s CPU      0.06s WALL (     299 calls)
     vloc_psi     :      0.91s CPU      0.96s WALL (     299 calls)
     add_vuspsi   :      0.04s CPU      0.04s WALL (     299 calls)

     General routines
     calbec       :      0.09s CPU      0.09s WALL (     409 calls)
     fft          :      0.02s CPU      0.02s WALL (      34 calls)
     ffts         :      0.00s CPU      0.00s WALL (       6 calls)
     fftw         :      0.98s CPU      1.05s WALL (    3830 calls)

     Parallel routines
     fft_scatt_xy :      0.08s CPU      0.08s WALL (    3870 calls)
     fft_scatt_yz :      0.26s CPU      0.27s WALL (    3870 calls)

     PWSCF        :     3.33s CPU         3.49s WALL


   This run was terminated on:   0:34:57   8Apr2024            

=------------------------------------------------------------------------------=
   JOB DONE.
=------------------------------------------------------------------------------=
