
     Program PWSCF v.6.3MaX starts on  8Apr2024 at  1: 5:40 

     This program is part of the open-source Quantum ESPRESSO suite
     for quantum simulation of materials; please cite
         "P. Giannozzi et al., J. Phys.:Condens. Matter 21 395502 (2009);
         "P. Giannozzi et al., J. Phys.:Condens. Matter 29 465901 (2017);
          URL http://www.quantum-espresso.org", 
     in publications or presentations arising from this work. More details at
     http://www.quantum-espresso.org/quote

     Parallel version (MPI), running on     5 processors

     MPI processes distributed on     1 nodes
     R & G space division:  proc/nbgrp/npool/nimage =       5
     Waiting for input...
     Reading input from standard input

     Current dimensions of program PWSCF are:
     Max number of different atomic species (ntypx) = 10
     Max number of k-points (npk) =  40000
     Max angular momentum in pseudopotentials (lmaxx) =  3
               file K.pz-spn-rrkjus_psl.1.0.0.UPF: wavefunction(s)  3S renormalized

     Subspace diagonalization in iterative solution of the eigenvalue problem:
     a serial algorithm will be used


     Parallelization info
     --------------------
     sticks:   dense  smooth     PW     G-vecs:    dense   smooth      PW
     Min         330     330     94                 8429     8429    1305
     Max         331     331     95                 8430     8430    1307
     Sum        1653    1653    471                42147    42147    6531



     bravais-lattice index     =            3
     lattice parameter (alat)  =       9.8600  a.u.
     unit-cell volume          =     479.2926 (a.u.)^3
     number of atoms/cell      =            1
     number of atomic types    =            1
     number of electrons       =         9.00
     number of Kohn-Sham states=            9
     kinetic-energy cutoff     =      75.0000  Ry
     charge density cutoff     =     300.0000  Ry
     convergence threshold     =      1.0E-08
     mixing beta               =       0.7000
     number of iterations used =            8  plain     mixing
     Exchange-correlation      = LDA ( 1  1  0  0 0 0)

     celldm(1)=   9.860000  celldm(2)=   0.000000  celldm(3)=   0.000000
     celldm(4)=   0.000000  celldm(5)=   0.000000  celldm(6)=   0.000000

     crystal axes: (cart. coord. in units of alat)
               a(1) = (   0.500000   0.500000   0.500000 )  
               a(2) = (  -0.500000   0.500000   0.500000 )  
               a(3) = (  -0.500000  -0.500000   0.500000 )  

     reciprocal axes: (cart. coord. in units 2 pi/alat)
               b(1) = (  1.000000  0.000000  1.000000 )  
               b(2) = ( -1.000000  1.000000  0.000000 )  
               b(3) = (  0.000000 -1.000000  1.000000 )  


     PseudoPot. # 1 for K  read from file:
     /home/lorenzo/pseudos/K/K.pz-spn-rrkjus_psl.1.0.0.UPF
     MD5 check sum: af434a66a3b91719abff201b8f79bb09
     Pseudo is Ultrasoft + core correction, Zval =  9.0
     Generated using "atomic" code by A. Dal Corso v.6.2.2
     Using radial grid of 1165 points,  6 beta functions with: 
                l(1) =   0
                l(2) =   0
                l(3) =   1
                l(4) =   1
                l(5) =   2
                l(6) =   2
     Q(r) pseudized with 0 coefficients 


     atomic species   valence    mass     pseudopotential
        K              9.00    39.09830     K ( 1.00)

     48 Sym. Ops., with inversion, found



   Cartesian axes

     site n.     atom                  positions (alat units)
         1           K   tau(   1) = (   0.0000000   0.0000000   0.0000000  )

     number of k points=    29  gaussian smearing, width (Ry)=  0.0100
                       cart. coord. in units 2pi/alat
        k(    1) = (   0.0000000   0.0000000   0.0000000), wk =   0.0039062
        k(    2) = (   0.0000000  -0.1250000   0.1250000), wk =   0.0468750
        k(    3) = (   0.0000000  -0.2500000   0.2500000), wk =   0.0468750
        k(    4) = (   0.0000000  -0.3750000   0.3750000), wk =   0.0468750
        k(    5) = (   0.0000000   0.5000000  -0.5000000), wk =   0.0234375
        k(    6) = (  -0.1250000  -0.1250000   0.2500000), wk =   0.0937500
        k(    7) = (  -0.1250000  -0.2500000   0.3750000), wk =   0.1875000
        k(    8) = (  -0.1250000   0.6250000  -0.5000000), wk =   0.1875000
        k(    9) = (  -0.2500000   0.7500000  -0.5000000), wk =   0.0937500
        k(   10) = (  -0.2500000   0.6250000  -0.3750000), wk =   0.0937500
        k(   11) = (   0.0000000   0.0000000   0.2500000), wk =   0.0234375
        k(   12) = (   0.0000000  -0.1250000   0.3750000), wk =   0.0937500
        k(   13) = (   0.0000000  -0.2500000   0.5000000), wk =   0.0937500
        k(   14) = (   0.0000000   0.6250000  -0.3750000), wk =   0.0468750
        k(   15) = (  -0.1250000  -0.1250000   0.5000000), wk =   0.0937500
        k(   16) = (  -0.1250000   0.7500000  -0.3750000), wk =   0.1875000
        k(   17) = (  -0.2500000   0.2500000   0.2500000), wk =   0.0312500
        k(   18) = (  -0.2500000   0.7500000  -0.2500000), wk =   0.0312500
        k(   19) = (   0.6250000  -0.6250000   0.2500000), wk =   0.0937500
        k(   20) = (   0.5000000  -0.5000000   0.2500000), wk =   0.0468750
        k(   21) = (   0.5000000  -0.6250000   0.3750000), wk =   0.0937500
        k(   22) = (   0.0000000   0.0000000   0.5000000), wk =   0.0234375
        k(   23) = (   0.0000000  -0.1250000   0.6250000), wk =   0.0937500
        k(   24) = (   0.0000000   0.7500000  -0.2500000), wk =   0.0468750
        k(   25) = (  -0.1250000   0.8750000  -0.2500000), wk =   0.0937500
        k(   26) = (   0.5000000  -0.5000000   0.5000000), wk =   0.0078125
        k(   27) = (   0.0000000   0.0000000   0.7500000), wk =   0.0234375
        k(   28) = (   0.0000000   0.8750000  -0.1250000), wk =   0.0468750
        k(   29) = (   0.0000000   0.0000000  -1.0000000), wk =   0.0039062

     Dense  grid:    42147 G-vectors     FFT dimensions: (  48,  48,  48)

     Estimated max dynamical RAM per process >      37.74 MB

     Estimated total dynamical RAM >     188.71 MB

     Check: negative/imaginary core charge=   -0.000002    0.000000

     Initial potential from superposition of free atoms

     starting charge    8.98437, renormalised to    9.00000
     Starting wfcs are    8 randomized atomic wfcs +    1 random wfcs

     total cpu time spent up to now is        1.4 secs

     Self-consistent Calculation

     iteration #  1     ecut=    75.00 Ry     beta= 0.70
     Davidson diagonalization with overlap
     ethr =  1.00E-02,  avg # of iterations =  6.4

     Threshold (ethr) on eigenvalues was too large:
     Diagonalizing with lowered threshold

     Davidson diagonalization with overlap
     ethr =  1.25E-05,  avg # of iterations =  6.0

     total cpu time spent up to now is        4.9 secs

     total energy              =     -58.74271450 Ry
     Harris-Foulkes estimate   =     -58.74328169 Ry
     estimated scf accuracy    <       0.00111972 Ry

     iteration #  2     ecut=    75.00 Ry     beta= 0.70
     Davidson diagonalization with overlap
     ethr =  1.24E-05,  avg # of iterations =  2.1

     total cpu time spent up to now is        6.2 secs

     total energy              =     -58.74291282 Ry
     Harris-Foulkes estimate   =     -58.74293012 Ry
     estimated scf accuracy    <       0.00008957 Ry

     iteration #  3     ecut=    75.00 Ry     beta= 0.70
     Davidson diagonalization with overlap
     ethr =  9.95E-07,  avg # of iterations =  1.7

     total cpu time spent up to now is        7.2 secs

     total energy              =     -58.74292170 Ry
     Harris-Foulkes estimate   =     -58.74292091 Ry
     estimated scf accuracy    <       0.00000565 Ry

     iteration #  4     ecut=    75.00 Ry     beta= 0.70
     Davidson diagonalization with overlap
     ethr =  6.28E-08,  avg # of iterations =  1.4

     total cpu time spent up to now is        8.3 secs

     total energy              =     -58.74292224 Ry
     Harris-Foulkes estimate   =     -58.74292224 Ry
     estimated scf accuracy    <       0.00000004 Ry

     iteration #  5     ecut=    75.00 Ry     beta= 0.70
     Davidson diagonalization with overlap
     ethr =  3.89E-10,  avg # of iterations =  2.2

     total cpu time spent up to now is        9.5 secs

     End of self-consistent calculation

          k = 0.0000 0.0000 0.0000 (  5281 PWs)   bands (ev):

   -30.0980 -13.7364 -13.7364 -13.7364  -0.4766   5.9288   5.9288   5.9288
     6.8751

          k = 0.0000-0.1250 0.1250 (  5277 PWs)   bands (ev):

   -30.0973 -13.7483 -13.7403 -13.7364  -0.2765   5.6290   5.7066   6.0891
     6.6497

          k = 0.0000-0.2500 0.2500 (  5269 PWs)   bands (ev):

   -30.0954 -13.7767 -13.7498 -13.7363   0.3023   4.6612   5.2844   6.5584
     6.6845

          k = 0.0000-0.3750 0.3750 (  5259 PWs)   bands (ev):

   -30.0936 -13.8046 -13.7593 -13.7363   1.1937   3.5136   4.9545   6.6643
     7.0599

          k = 0.0000 0.5000-0.5000 (  5284 PWs)   bands (ev):

   -30.0928 -13.8161 -13.7632 -13.7363   2.1432   2.4885   4.8351   6.5323
     7.8349

          k =-0.1250-0.1250 0.2500 (  5266 PWs)   bands (ev):

   -30.0960 -13.7678 -13.7448 -13.7392   0.1134   5.0789   5.2818   6.3690
     6.4913

          k =-0.1250-0.2500 0.3750 (  5244 PWs)   bands (ev):

   -30.0941 -13.7929 -13.7562 -13.7403   0.8518   4.1237   4.8465   6.5262
     6.8133

          k =-0.1250 0.6250-0.5000 (  5252 PWs)   bands (ev):

   -30.0928 -13.8098 -13.7654 -13.7405   1.8489   3.0166   4.6148   6.3550
     7.1996

          k =-0.2500 0.7500-0.5000 (  5250 PWs)   bands (ev):

   -30.0928 -13.8015 -13.7697 -13.7446   1.7060   3.6273   4.1185   6.4592
     6.7128

          k =-0.2500 0.6250-0.3750 (  5258 PWs)   bands (ev):

   -30.0923 -13.8012 -13.7799 -13.7456   2.7310   2.7577   3.8110   6.2435
     7.0005

          k = 0.0000 0.0000 0.2500 (  5261 PWs)   bands (ev):

   -30.0965 -13.7512 -13.7444 -13.7444  -0.0795   5.6101   5.6101   5.9349
     6.1591

          k = 0.0000-0.1250 0.3750 (  5253 PWs)   bands (ev):

   -30.0947 -13.7758 -13.7541 -13.7458   0.4902   4.7251   5.2906   5.8518
     6.5734

          k = 0.0000-0.2500 0.5000 (  5250 PWs)   bands (ev):

   -30.0930 -13.8021 -13.7637 -13.7451   1.3686   3.6134   5.0060   5.8598
     7.0818

          k = 0.0000 0.6250-0.3750 (  5254 PWs)   bands (ev):

   -30.0922 -13.8129 -13.7677 -13.7449   2.3478   2.5716   4.8998   5.7550
     7.1329

          k =-0.1250-0.1250 0.5000 (  5263 PWs)   bands (ev):

   -30.0930 -13.7924 -13.7659 -13.7508   1.2036   4.1234   4.7918   5.8672
     6.7622

          k =-0.1250 0.7500-0.3750 (  5262 PWs)   bands (ev):

   -30.0918 -13.8046 -13.7766 -13.7512   2.1692   3.2329   4.3704   5.9251
     6.7480

          k =-0.2500 0.2500 0.2500 (  5252 PWs)   bands (ev):

   -30.0946 -13.7886 -13.7459 -13.7459   0.6738   4.5696   4.5696   6.5648
     6.9952

          k =-0.2500 0.7500-0.2500 (  5294 PWs)   bands (ev):

   -30.0913 -13.7945 -13.7945 -13.7523   3.0210   3.0210   3.5231   6.4918
     6.9764

          k = 0.6250-0.6250 0.2500 (  5260 PWs)   bands (ev):

   -30.0932 -13.8011 -13.7608 -13.7470   1.5432   3.6648   4.2560   6.2041
     7.1476

          k = 0.5000-0.5000 0.2500 (  5246 PWs)   bands (ev):

   -30.0927 -13.8039 -13.7692 -13.7475   2.5434   2.6696   4.1510   5.8935
     7.2771

          k = 0.5000-0.6250 0.3750 (  5233 PWs)   bands (ev):

   -30.0926 -13.7946 -13.7736 -13.7546   2.4747   3.3302   3.6205   5.4624
     7.2755

          k = 0.0000 0.0000 0.5000 (  5258 PWs)   bands (ev):

   -30.0931 -13.7777 -13.7642 -13.7642   1.0314   4.6028   5.2338   5.2338
     6.7664

          k = 0.0000-0.1250 0.6250 (  5260 PWs)   bands (ev):

   -30.0915 -13.7959 -13.7744 -13.7662   1.8585   3.8169   5.1149   5.1395
     6.3058

          k = 0.0000 0.7500-0.2500 (  5278 PWs)   bands (ev):

   -30.0908 -13.8050 -13.7786 -13.7653   2.8160   2.8868   4.9321   5.0579
     6.4840

          k =-0.1250 0.8750-0.2500 (  5269 PWs)   bands (ev):

   -30.0904 -13.7987 -13.7878 -13.7693   2.7014   3.4254   4.3062   5.6551
     6.0549

          k = 0.5000-0.5000 0.5000 (  5216 PWs)   bands (ev):

   -30.0925 -13.7752 -13.7752 -13.7752   3.2329   3.2329   3.2329   4.7546
     7.4344

          k = 0.0000 0.0000 0.7500 (  5258 PWs)   bands (ev):

   -30.0900 -13.7917 -13.7850 -13.7850   2.5568   3.7085   5.1946   5.1946
     5.4148

          k = 0.0000 0.8750-0.1250 (  5258 PWs)   bands (ev):

   -30.0894 -13.7971 -13.7894 -13.7856   3.1745   3.3534   4.8313   5.2175
     5.6897

          k = 0.0000 0.0000-1.0000 (  5162 PWs)   bands (ev):

   -30.0887 -13.7939 -13.7939 -13.7939   3.4012   5.2834   5.2834   5.2834
     7.2559

     the Fermi energy is     1.7670 ev

!    total energy              =     -58.74292225 Ry
     Harris-Foulkes estimate   =     -58.74292225 Ry
     estimated scf accuracy    <          5.1E-10 Ry

     The total energy is the sum of the following terms:

     one-electron contribution =     -36.65482450 Ry
     hartree contribution      =      18.82586992 Ry
     xc contribution           =     -11.01685774 Ry
     ewald contribution        =     -29.89633970 Ry
     smearing contrib. (-TS)   =      -0.00077024 Ry

     convergence has been achieved in   5 iterations

     Forces acting on atoms (cartesian axes, Ry/au):

     atom    1 type  1   force =     0.00000000    0.00000000    0.00000000

     Total force =     0.000000     Total SCF correction =     0.000000


     Computing stress (Cartesian axis) and pressure

          total   stress  (Ry/bohr**3)                   (kbar)     P=   -3.90
  -0.00002650   0.00000000   0.00000000         -3.90      0.00      0.00
   0.00000000  -0.00002650   0.00000000          0.00     -3.90      0.00
   0.00000000   0.00000000  -0.00002650          0.00      0.00     -3.90


     Writing output data file K.save/

     init_run     :      0.66s CPU      0.69s WALL (       1 calls)
     electrons    :      7.80s CPU      8.08s WALL (       1 calls)
     forces       :      0.16s CPU      0.16s WALL (       1 calls)
     stress       :      0.64s CPU      0.64s WALL (       1 calls)

     Called by init_run:
     wfcinit      :      0.35s CPU      0.37s WALL (       1 calls)
     potinit      :      0.01s CPU      0.01s WALL (       1 calls)
     hinit0       :      0.21s CPU      0.21s WALL (       1 calls)

     Called by electrons:
     c_bands      :      6.32s CPU      6.55s WALL (       6 calls)
     sum_band     :      1.25s CPU      1.29s WALL (       6 calls)
     v_of_rho     :      0.02s CPU      0.02s WALL (       6 calls)
     newd         :      0.23s CPU      0.24s WALL (       6 calls)
     mix_rho      :      0.01s CPU      0.01s WALL (       6 calls)

     Called by c_bands:
     init_us_2    :      0.28s CPU      0.28s WALL (     435 calls)
     cegterg      :      5.99s CPU      6.22s WALL (     174 calls)

     Called by sum_band:
     sum_band:bec :      0.00s CPU      0.00s WALL (     174 calls)
     addusdens    :      0.23s CPU      0.24s WALL (       6 calls)

     Called by *egterg:
     h_psi        :      4.93s CPU      5.14s WALL (     778 calls)
     s_psi        :      0.18s CPU      0.18s WALL (     778 calls)
     g_psi        :      0.02s CPU      0.02s WALL (     575 calls)
     cdiaghg      :      0.19s CPU      0.19s WALL (     720 calls)

     Called by h_psi:
     h_psi:pot    :      4.89s CPU      5.11s WALL (     778 calls)
     h_psi:calbec :      0.32s CPU      0.33s WALL (     778 calls)
     vloc_psi     :      4.37s CPU      4.57s WALL (     778 calls)
     add_vuspsi   :      0.20s CPU      0.20s WALL (     778 calls)

     General routines
     calbec       :      0.48s CPU      0.50s WALL (    1097 calls)
     fft          :      0.04s CPU      0.04s WALL (      34 calls)
     ffts         :      0.00s CPU      0.00s WALL (       6 calls)
     fftw         :      4.70s CPU      4.91s WALL (   10538 calls)

     Parallel routines
     fft_scatt_xy :      0.38s CPU      0.40s WALL (   10578 calls)
     fft_scatt_yz :      1.17s CPU      1.23s WALL (   10578 calls)

     PWSCF        :    10.01s CPU        10.41s WALL


   This run was terminated on:   1: 5:51   8Apr2024            

=------------------------------------------------------------------------------=
   JOB DONE.
=------------------------------------------------------------------------------=
