
     Program PWSCF v.6.3MaX starts on  8Apr2024 at  0: 9:42 

     This program is part of the open-source Quantum ESPRESSO suite
     for quantum simulation of materials; please cite
         "P. Giannozzi et al., J. Phys.:Condens. Matter 21 395502 (2009);
         "P. Giannozzi et al., J. Phys.:Condens. Matter 29 465901 (2017);
          URL http://www.quantum-espresso.org", 
     in publications or presentations arising from this work. More details at
     http://www.quantum-espresso.org/quote

     Parallel version (MPI), running on     5 processors

     MPI processes distributed on     1 nodes
     R & G space division:  proc/nbgrp/npool/nimage =       5
     Waiting for input...
     Reading input from standard input

     Current dimensions of program PWSCF are:
     Max number of different atomic species (ntypx) = 10
     Max number of k-points (npk) =  40000
     Max angular momentum in pseudopotentials (lmaxx) =  3
               file K.pz-spn-kjpaw_psl.1.0.0.UPF: wavefunction(s)  3S renormalized

     Subspace diagonalization in iterative solution of the eigenvalue problem:
     a serial algorithm will be used


     Parallelization info
     --------------------
     sticks:   dense  smooth     PW     G-vecs:    dense   smooth      PW
     Min         438     438    123                12915    12915    1937
     Max         439     439    124                12916    12916    1939
     Sum        2191    2191    619                64579    64579    9693



     bravais-lattice index     =            3
     lattice parameter (alat)  =       9.8600  a.u.
     unit-cell volume          =     479.2926 (a.u.)^3
     number of atoms/cell      =            1
     number of atomic types    =            1
     number of electrons       =         9.00
     number of Kohn-Sham states=            9
     kinetic-energy cutoff     =     100.0000  Ry
     charge density cutoff     =     400.0000  Ry
     convergence threshold     =      1.0E-08
     mixing beta               =       0.7000
     number of iterations used =            8  plain     mixing
     Exchange-correlation      = SLA PZ NOGX NOGC ( 1  1  0  0 0 0)

     celldm(1)=   9.860000  celldm(2)=   0.000000  celldm(3)=   0.000000
     celldm(4)=   0.000000  celldm(5)=   0.000000  celldm(6)=   0.000000

     crystal axes: (cart. coord. in units of alat)
               a(1) = (   0.500000   0.500000   0.500000 )  
               a(2) = (  -0.500000   0.500000   0.500000 )  
               a(3) = (  -0.500000  -0.500000   0.500000 )  

     reciprocal axes: (cart. coord. in units 2 pi/alat)
               b(1) = (  1.000000  0.000000  1.000000 )  
               b(2) = ( -1.000000  1.000000  0.000000 )  
               b(3) = (  0.000000 -1.000000  1.000000 )  


     PseudoPot. # 1 for K  read from file:
     /home/lorenzo/pseudos/K/K.pz-spn-kjpaw_psl.1.0.0.UPF
     MD5 check sum: 59b94f4c1a6681f21e103574f2c5fc67
     Pseudo is Projector augmented-wave + core cor, Zval =  9.0
     Generated using "atomic" code by A. Dal Corso v.6.2.2
     Shape of augmentation charge: PSQ
     Using radial grid of 1165 points,  6 beta functions with: 
                l(1) =   0
                l(2) =   0
                l(3) =   1
                l(4) =   1
                l(5) =   2
                l(6) =   2
     Q(r) pseudized with 0 coefficients 


     atomic species   valence    mass     pseudopotential
        K              9.00    39.09830     K ( 1.00)

     48 Sym. Ops., with inversion, found



   Cartesian axes

     site n.     atom                  positions (alat units)
         1           K   tau(   1) = (   0.0000000   0.0000000   0.0000000  )

     number of k points=    35  gaussian smearing, width (Ry)=  0.0100
                       cart. coord. in units 2pi/alat
        k(    1) = (   0.0000000   0.0000000   0.0000000), wk =   0.0027435
        k(    2) = (   0.0000000  -0.1111111   0.1111111), wk =   0.0329218
        k(    3) = (   0.0000000  -0.2222222   0.2222222), wk =   0.0329218
        k(    4) = (   0.0000000  -0.3333333   0.3333333), wk =   0.0329218
        k(    5) = (   0.0000000  -0.4444444   0.4444444), wk =   0.0329218
        k(    6) = (  -0.1111111  -0.1111111   0.2222222), wk =   0.0658436
        k(    7) = (  -0.1111111  -0.2222222   0.3333333), wk =   0.1316872
        k(    8) = (  -0.1111111  -0.3333333   0.4444444), wk =   0.1316872
        k(    9) = (  -0.1111111   0.5555556  -0.4444444), wk =   0.0658436
        k(   10) = (  -0.2222222  -0.2222222   0.4444444), wk =   0.0658436
        k(   11) = (  -0.2222222   0.6666667  -0.4444444), wk =   0.1316872
        k(   12) = (  -0.3333333   0.6666667  -0.3333333), wk =   0.0219479
        k(   13) = (   0.0000000   0.0000000   0.2222222), wk =   0.0164609
        k(   14) = (   0.0000000  -0.1111111   0.3333333), wk =   0.0658436
        k(   15) = (   0.0000000  -0.2222222   0.4444444), wk =   0.0658436
        k(   16) = (   0.0000000  -0.3333333   0.5555556), wk =   0.0658436
        k(   17) = (  -0.1111111  -0.1111111   0.4444444), wk =   0.0658436
        k(   18) = (  -0.1111111  -0.2222222   0.5555556), wk =   0.1316872
        k(   19) = (  -0.1111111   0.6666667  -0.3333333), wk =   0.0658436
        k(   20) = (  -0.2222222   0.2222222   0.2222222), wk =   0.0219479
        k(   21) = (  -0.2222222   0.7777778  -0.3333333), wk =   0.0658436
        k(   22) = (  -0.3333333   0.3333333   0.2222222), wk =   0.0658436
        k(   23) = (   0.5555556  -0.5555556   0.2222222), wk =   0.0658436
        k(   24) = (   0.5555556  -0.6666667   0.3333333), wk =   0.0658436
        k(   25) = (   0.4444444  -0.5555556   0.3333333), wk =   0.0658436
        k(   26) = (   0.0000000   0.0000000   0.4444444), wk =   0.0164609
        k(   27) = (   0.0000000  -0.1111111   0.5555556), wk =   0.0658436
        k(   28) = (   0.0000000  -0.2222222   0.6666667), wk =   0.0658436
        k(   29) = (  -0.1111111  -0.1111111   0.6666667), wk =   0.0658436
        k(   30) = (  -0.1111111   0.7777778  -0.2222222), wk =   0.0658436
        k(   31) = (   0.5555556  -0.5555556   0.4444444), wk =   0.0219479
        k(   32) = (   0.0000000   0.0000000   0.6666667), wk =   0.0164609
        k(   33) = (   0.0000000  -0.1111111   0.7777778), wk =   0.0658436
        k(   34) = (  -0.1111111   0.8888889  -0.1111111), wk =   0.0219479
        k(   35) = (   0.0000000   0.0000000   0.8888889), wk =   0.0164609

     Dense  grid:    64579 G-vectors     FFT dimensions: (  60,  60,  60)

     Estimated max dynamical RAM per process >      58.91 MB

     Estimated total dynamical RAM >     294.55 MB

     Check: negative/imaginary core charge=   -0.000001    0.000000

     Initial potential from superposition of free atoms

     starting charge    8.98437, renormalised to    9.00000
     Starting wfcs are    8 randomized atomic wfcs +    1 random wfcs
     Checking if some PAW data can be deallocated... 

     total cpu time spent up to now is        2.1 secs

     Self-consistent Calculation

     iteration #  1     ecut=   100.00 Ry     beta= 0.70
     Davidson diagonalization with overlap
     ethr =  1.00E-02,  avg # of iterations =  6.5

     Threshold (ethr) on eigenvalues was too large:
     Diagonalizing with lowered threshold

     Davidson diagonalization with overlap
     ethr =  1.22E-05,  avg # of iterations =  6.5

     total cpu time spent up to now is       10.4 secs

     total energy              =    -109.87206556 Ry
     Harris-Foulkes estimate   =    -109.87262286 Ry
     estimated scf accuracy    <       0.00110988 Ry

     iteration #  2     ecut=   100.00 Ry     beta= 0.70
     Davidson diagonalization with overlap
     ethr =  1.23E-05,  avg # of iterations =  2.1

     total cpu time spent up to now is       13.1 secs

     total energy              =    -109.87225286 Ry
     Harris-Foulkes estimate   =    -109.87227814 Ry
     estimated scf accuracy    <       0.00008976 Ry

     iteration #  3     ecut=   100.00 Ry     beta= 0.70
     Davidson diagonalization with overlap
     ethr =  9.97E-07,  avg # of iterations =  2.3

     total cpu time spent up to now is       15.9 secs

     total energy              =    -109.87226428 Ry
     Harris-Foulkes estimate   =    -109.87226401 Ry
     estimated scf accuracy    <       0.00000601 Ry

     iteration #  4     ecut=   100.00 Ry     beta= 0.70
     Davidson diagonalization with overlap
     ethr =  6.67E-08,  avg # of iterations =  1.5

     total cpu time spent up to now is       18.4 secs

     total energy              =    -109.87226496 Ry
     Harris-Foulkes estimate   =    -109.87226496 Ry
     estimated scf accuracy    <       0.00000004 Ry

     iteration #  5     ecut=   100.00 Ry     beta= 0.70
     Davidson diagonalization with overlap
     ethr =  4.46E-10,  avg # of iterations =  2.5

     total cpu time spent up to now is       21.3 secs

     End of self-consistent calculation

          k = 0.0000 0.0000 0.0000 (  8151 PWs)   bands (ev):

   -30.0997 -13.7377 -13.7377 -13.7377  -0.4768   5.9285   5.9285   6.8737
     6.8739

          k = 0.0000-0.1111 0.1111 (  8124 PWs)   bands (ev):

   -30.0991 -13.7472 -13.7408 -13.7376  -0.3183   5.7013   5.7480   6.0553
     6.6686

          k = 0.0000-0.2222 0.2222 (  8116 PWs)   bands (ev):

   -30.0976 -13.7710 -13.7488 -13.7376   0.1435   4.9040   5.3770   6.4284
     6.6597

          k = 0.0000-0.3333 0.3333 (  8108 PWs)   bands (ev):

   -30.0958 -13.7977 -13.7578 -13.7376   0.8678   3.9016   5.0441   6.7045
     6.9691

          k = 0.0000-0.4444 0.4444 (  8090 PWs)   bands (ev):

   -30.0947 -13.8150 -13.7637 -13.7376   1.7769   2.8689   4.8588   6.5658
     7.2543

          k =-0.1111-0.1111 0.2222 (  8099 PWs)   bands (ev):

   -30.0981 -13.7636 -13.7443 -13.7399  -0.0080   5.2484   5.3973   6.2853
     6.5010

          k =-0.1111-0.2222 0.3333 (  8107 PWs)   bands (ev):

   -30.0964 -13.7869 -13.7538 -13.7408   0.5866   4.4162   4.9963   6.5252
     6.6891

          k =-0.1111-0.3333 0.4444 (  8106 PWs)   bands (ev):

   -30.0950 -13.8066 -13.7633 -13.7410   1.4118   3.4400   4.7324   6.4583
     7.0992

          k =-0.1111 0.5556-0.4444 (  8077 PWs)   bands (ev):

   -30.0944 -13.8142 -13.7672 -13.7411   2.2659   2.5403   4.6400   6.3296
     7.3206

          k =-0.2222-0.2222 0.4444 (  8088 PWs)   bands (ev):

   -30.0951 -13.7998 -13.7643 -13.7447   1.2863   3.9086   4.4025   6.6126
     6.6277

          k =-0.2222 0.6667-0.4444 (  8106 PWs)   bands (ev):

   -30.0942 -13.8050 -13.7756 -13.7461   2.1749   3.1339   4.0532   6.2893
     6.9300

          k =-0.3333 0.6667-0.3333 (  8088 PWs)   bands (ev):

   -30.0939 -13.7926 -13.7926 -13.7477   2.9757   2.9757   3.3017   6.2467
     7.0164

          k = 0.0000 0.0000 0.2222 (  8091 PWs)   bands (ev):

   -30.0985 -13.7496 -13.7440 -13.7440  -0.1619   5.6628   5.6628   6.0888
     6.1112

          k = 0.0000-0.1111 0.3333 (  8098 PWs)   bands (ev):

   -30.0970 -13.7706 -13.7521 -13.7453   0.2942   4.9542   5.3711   5.9357
     6.4425

          k = 0.0000-0.2222 0.4444 (  8124 PWs)   bands (ev):

   -30.0953 -13.7961 -13.7613 -13.7448   1.0099   3.9712   5.0771   5.9876
     7.0210

          k = 0.0000-0.3333 0.5556 (  8105 PWs)   bands (ev):

   -30.0942 -13.8125 -13.7673 -13.7445   1.9132   2.9588   4.9085   5.8934
     7.1502

          k =-0.1111-0.1111 0.4444 (  8111 PWs)   bands (ev):

   -30.0955 -13.7873 -13.7616 -13.7498   0.8733   4.3916   4.9695   5.8822
     6.7572

          k =-0.1111-0.2222 0.5556 (  8083 PWs)   bands (ev):

   -30.0941 -13.8032 -13.7719 -13.7504   1.6776   3.5822   4.5928   5.9487
     6.7786

          k =-0.1111 0.6667-0.3333 (  8075 PWs)   bands (ev):

   -30.0936 -13.8095 -13.7762 -13.7503   2.5767   2.6731   4.4581   5.8793
     6.9575

          k =-0.2222 0.2222 0.2222 (  8112 PWs)   bands (ev):

   -30.0968 -13.7833 -13.7450 -13.7450   0.4418   4.7799   4.7799   6.5317
     6.9206

          k =-0.2222 0.7778-0.3333 (  8080 PWs)   bands (ev):

   -30.0933 -13.8017 -13.7870 -13.7520   2.5189   3.2644   3.7781   6.3450
     6.5659

          k =-0.3333 0.3333 0.2222 (  8107 PWs)   bands (ev):

   -30.0955 -13.7991 -13.7573 -13.7459   1.1513   3.9720   4.4505   6.4734
     7.0446

          k = 0.5556-0.5556 0.2222 (  8091 PWs)   bands (ev):

   -30.0946 -13.8068 -13.7678 -13.7464   2.0494   3.0470   4.2832   6.1123
     7.2499

          k = 0.5556-0.6667 0.3333 (  8095 PWs)   bands (ev):

   -30.0946 -13.8007 -13.7673 -13.7525   1.9393   3.5879   3.8929   5.8345
     7.1736

          k = 0.4444-0.5556 0.3333 (  8083 PWs)   bands (ev):

   -30.0943 -13.7962 -13.7775 -13.7540   2.8312   2.8526   3.7032   5.5274
     7.2718

          k = 0.0000 0.0000 0.4444 (  8116 PWs)   bands (ev):

   -30.0956 -13.7736 -13.7605 -13.7605   0.7327   4.8708   5.2908   5.2908
     6.6220

          k = 0.0000-0.1111 0.5556 (  8086 PWs)   bands (ev):

   -30.0941 -13.7920 -13.7701 -13.7628   1.4186   4.1013   5.1407   5.2997
     6.5611

          k = 0.0000-0.2222 0.6667 (  8078 PWs)   bands (ev):

   -30.0930 -13.8062 -13.7763 -13.7618   2.2824   3.2169   5.0336   5.1163
     6.5999

          k =-0.1111-0.1111 0.6667 (  8094 PWs)   bands (ev):

   -30.0928 -13.7993 -13.7820 -13.7662   2.1642   3.6668   4.5436   5.5893
     6.1988

          k =-0.1111 0.7778-0.2222 (  8082 PWs)   bands (ev):

   -30.0923 -13.8022 -13.7882 -13.7661   2.9314   3.0718   4.2072   5.6945
     6.2975

          k = 0.5556-0.5556 0.4444 (  8118 PWs)   bands (ev):

   -30.0943 -13.7895 -13.7693 -13.7693   2.7375   3.4306   3.4306   4.9886
     7.4066

          k = 0.0000 0.0000 0.6667 (  8088 PWs)   bands (ev):

   -30.0926 -13.7902 -13.7801 -13.7801   2.0406   3.9440   5.1733   5.1733
     5.7563

          k = 0.0000-0.1111 0.7778 (  8079 PWs)   bands (ev):

   -30.0916 -13.7991 -13.7866 -13.7812   2.7735   3.4838   4.8386   5.1721
     5.8471

          k =-0.1111 0.8889-0.1111 (  8067 PWs)   bands (ev):

   -30.0912 -13.7958 -13.7958 -13.7828   3.2655   3.2655   4.5303   5.5976
     5.5976

          k = 0.0000 0.0000 0.8889 (  8084 PWs)   bands (ev):

   -30.0907 -13.7949 -13.7933 -13.7933   3.2248   3.4616   5.2228   5.2585
     5.2585

     the Fermi energy is     1.7499 ev

!    total energy              =    -109.87226498 Ry
     Harris-Foulkes estimate   =    -109.87226498 Ry
     estimated scf accuracy    <          3.9E-09 Ry

     total all-electron energy =     -1201.197265 Ry

     The total energy is the sum of the following terms:

     one-electron contribution =     -35.37034269 Ry
     hartree contribution      =      18.82539262 Ry
     xc contribution           =     -11.01679508 Ry
     ewald contribution        =     -29.89633970 Ry
     one-center paw contrib.   =     -52.41373683 Ry
     smearing contrib. (-TS)   =      -0.00044331 Ry

     convergence has been achieved in   5 iterations

     Forces acting on atoms (cartesian axes, Ry/au):

     atom    1 type  1   force =     0.00000000    0.00000000    0.00000000

     Total force =     0.000000     Total SCF correction =     0.000000


     Computing stress (Cartesian axis) and pressure

          total   stress  (Ry/bohr**3)                   (kbar)     P=   -3.89
  -0.00002643   0.00000000  -0.00000000         -3.89      0.00     -0.00
   0.00000000  -0.00002643   0.00000000          0.00     -3.89      0.00
  -0.00000000   0.00000000  -0.00002643         -0.00      0.00     -3.89


     Writing output data file K.save/

     init_run     :      1.28s CPU      1.34s WALL (       1 calls)
     electrons    :     18.56s CPU     19.21s WALL (       1 calls)
     forces       :      0.26s CPU      0.28s WALL (       1 calls)
     stress       :      1.05s CPU      1.09s WALL (       1 calls)

     Called by init_run:
     wfcinit      :      0.76s CPU      0.79s WALL (       1 calls)
     potinit      :      0.08s CPU      0.08s WALL (       1 calls)
     hinit0       :      0.26s CPU      0.27s WALL (       1 calls)

     Called by electrons:
     c_bands      :     15.27s CPU     15.73s WALL (       6 calls)
     sum_band     :      2.71s CPU      2.83s WALL (       6 calls)
     v_of_rho     :      0.04s CPU      0.04s WALL (       6 calls)
     newd         :      0.37s CPU      0.44s WALL (       6 calls)
     PAW_pot      :      0.25s CPU      0.25s WALL (       6 calls)
     mix_rho      :      0.02s CPU      0.02s WALL (       6 calls)

     Called by c_bands:
     init_us_2    :      0.52s CPU      0.53s WALL (     525 calls)
     cegterg      :     14.66s CPU     15.11s WALL (     210 calls)

     Called by sum_band:
     sum_band:bec :      0.00s CPU      0.00s WALL (     210 calls)
     addusdens    :      0.35s CPU      0.40s WALL (       6 calls)

     Called by *egterg:
     h_psi        :     12.64s CPU     13.10s WALL (     998 calls)
     s_psi        :      0.34s CPU      0.34s WALL (     998 calls)
     g_psi        :      0.04s CPU      0.04s WALL (     753 calls)
     cdiaghg      :      0.25s CPU      0.26s WALL (     928 calls)

     Called by h_psi:
     h_psi:pot    :     12.57s CPU     13.03s WALL (     998 calls)
     h_psi:calbec :      0.63s CPU      0.66s WALL (     998 calls)
     vloc_psi     :     11.54s CPU     11.97s WALL (     998 calls)
     add_vuspsi   :      0.39s CPU      0.40s WALL (     998 calls)

     General routines
     calbec       :      0.95s CPU      0.98s WALL (    1383 calls)
     fft          :      0.08s CPU      0.08s WALL (      34 calls)
     ffts         :      0.01s CPU      0.01s WALL (       6 calls)
     fftw         :     12.00s CPU     12.45s WALL (   13320 calls)

     Parallel routines
     fft_scatt_xy :      1.03s CPU      1.08s WALL (   13360 calls)
     fft_scatt_yz :      2.55s CPU      2.67s WALL (   13360 calls)

     PWSCF        :    21.96s CPU        22.86s WALL


   This run was terminated on:   0:10: 5   8Apr2024            

=------------------------------------------------------------------------------=
   JOB DONE.
=------------------------------------------------------------------------------=
