
     Program PWSCF v.6.3MaX starts on  8Apr2024 at  1: 3:30 

     This program is part of the open-source Quantum ESPRESSO suite
     for quantum simulation of materials; please cite
         "P. Giannozzi et al., J. Phys.:Condens. Matter 21 395502 (2009);
         "P. Giannozzi et al., J. Phys.:Condens. Matter 29 465901 (2017);
          URL http://www.quantum-espresso.org", 
     in publications or presentations arising from this work. More details at
     http://www.quantum-espresso.org/quote

     Parallel version (MPI), running on     5 processors

     MPI processes distributed on     1 nodes
     R & G space division:  proc/nbgrp/npool/nimage =       5
     Waiting for input...
     Reading input from standard input

     Current dimensions of program PWSCF are:
     Max number of different atomic species (ntypx) = 10
     Max number of k-points (npk) =  40000
     Max angular momentum in pseudopotentials (lmaxx) =  3
               file K.pz-spn-rrkjus_psl.1.0.0.UPF: wavefunction(s)  3S renormalized

     Subspace diagonalization in iterative solution of the eigenvalue problem:
     a serial algorithm will be used


     Parallelization info
     --------------------
     sticks:   dense  smooth     PW     G-vecs:    dense   smooth      PW
     Min         330     330     94                 8429     8429    1305
     Max         331     331     95                 8430     8430    1307
     Sum        1653    1653    471                42147    42147    6531



     bravais-lattice index     =            3
     lattice parameter (alat)  =       9.8600  a.u.
     unit-cell volume          =     479.2926 (a.u.)^3
     number of atoms/cell      =            1
     number of atomic types    =            1
     number of electrons       =         9.00
     number of Kohn-Sham states=            9
     kinetic-energy cutoff     =      75.0000  Ry
     charge density cutoff     =     300.0000  Ry
     convergence threshold     =      1.0E-08
     mixing beta               =       0.7000
     number of iterations used =            8  plain     mixing
     Exchange-correlation      = LDA ( 1  1  0  0 0 0)

     celldm(1)=   9.860000  celldm(2)=   0.000000  celldm(3)=   0.000000
     celldm(4)=   0.000000  celldm(5)=   0.000000  celldm(6)=   0.000000

     crystal axes: (cart. coord. in units of alat)
               a(1) = (   0.500000   0.500000   0.500000 )  
               a(2) = (  -0.500000   0.500000   0.500000 )  
               a(3) = (  -0.500000  -0.500000   0.500000 )  

     reciprocal axes: (cart. coord. in units 2 pi/alat)
               b(1) = (  1.000000  0.000000  1.000000 )  
               b(2) = ( -1.000000  1.000000  0.000000 )  
               b(3) = (  0.000000 -1.000000  1.000000 )  


     PseudoPot. # 1 for K  read from file:
     /home/lorenzo/pseudos/K/K.pz-spn-rrkjus_psl.1.0.0.UPF
     MD5 check sum: af434a66a3b91719abff201b8f79bb09
     Pseudo is Ultrasoft + core correction, Zval =  9.0
     Generated using "atomic" code by A. Dal Corso v.6.2.2
     Using radial grid of 1165 points,  6 beta functions with: 
                l(1) =   0
                l(2) =   0
                l(3) =   1
                l(4) =   1
                l(5) =   2
                l(6) =   2
     Q(r) pseudized with 0 coefficients 


     atomic species   valence    mass     pseudopotential
        K              9.00    39.09830     K ( 1.00)

     48 Sym. Ops., with inversion, found



   Cartesian axes

     site n.     atom                  positions (alat units)
         1           K   tau(   1) = (   0.0000000   0.0000000   0.0000000  )

     number of k points=     8  gaussian smearing, width (Ry)=  0.0100
                       cart. coord. in units 2pi/alat
        k(    1) = (   0.0000000   0.0000000   0.0000000), wk =   0.0312500
        k(    2) = (   0.0000000  -0.2500000   0.2500000), wk =   0.3750000
        k(    3) = (   0.0000000   0.5000000  -0.5000000), wk =   0.1875000
        k(    4) = (  -0.2500000   0.7500000  -0.5000000), wk =   0.7500000
        k(    5) = (   0.0000000   0.0000000   0.5000000), wk =   0.1875000
        k(    6) = (   0.0000000   0.7500000  -0.2500000), wk =   0.3750000
        k(    7) = (   0.5000000  -0.5000000   0.5000000), wk =   0.0625000
        k(    8) = (   0.0000000   0.0000000  -1.0000000), wk =   0.0312500

     Dense  grid:    42147 G-vectors     FFT dimensions: (  48,  48,  48)

     Estimated max dynamical RAM per process >      34.71 MB

     Estimated total dynamical RAM >     173.55 MB

     Check: negative/imaginary core charge=   -0.000002    0.000000

     Initial potential from superposition of free atoms

     starting charge    8.98437, renormalised to    9.00000
     Starting wfcs are    8 randomized atomic wfcs +    1 random wfcs

     total cpu time spent up to now is        1.2 secs

     Self-consistent Calculation

     iteration #  1     ecut=    75.00 Ry     beta= 0.70
     Davidson diagonalization with overlap
     ethr =  1.00E-02,  avg # of iterations =  7.2

     Threshold (ethr) on eigenvalues was too large:
     Diagonalizing with lowered threshold

     Davidson diagonalization with overlap
     ethr =  1.28E-05,  avg # of iterations =  7.1

     total cpu time spent up to now is        2.2 secs

     total energy              =     -58.73893241 Ry
     Harris-Foulkes estimate   =     -58.73948065 Ry
     estimated scf accuracy    <       0.00111564 Ry

     iteration #  2     ecut=    75.00 Ry     beta= 0.70
     Davidson diagonalization with overlap
     ethr =  1.24E-05,  avg # of iterations =  2.0

     total cpu time spent up to now is        2.6 secs

     total energy              =     -58.73912713 Ry
     Harris-Foulkes estimate   =     -58.73914282 Ry
     estimated scf accuracy    <       0.00009007 Ry

     iteration #  3     ecut=    75.00 Ry     beta= 0.70
     Davidson diagonalization with overlap
     ethr =  1.00E-06,  avg # of iterations =  1.4

     total cpu time spent up to now is        3.0 secs

     total energy              =     -58.73913596 Ry
     Harris-Foulkes estimate   =     -58.73913507 Ry
     estimated scf accuracy    <       0.00000570 Ry

     iteration #  4     ecut=    75.00 Ry     beta= 0.70
     Davidson diagonalization with overlap
     ethr =  6.34E-08,  avg # of iterations =  2.2

     total cpu time spent up to now is        3.4 secs

     total energy              =     -58.73913665 Ry
     Harris-Foulkes estimate   =     -58.73913665 Ry
     estimated scf accuracy    <       0.00000004 Ry

     iteration #  5     ecut=    75.00 Ry     beta= 0.70
     Davidson diagonalization with overlap
     ethr =  4.07E-10,  avg # of iterations =  1.8

     total cpu time spent up to now is        3.7 secs

     End of self-consistent calculation

          k = 0.0000 0.0000 0.0000 (  5281 PWs)   bands (ev):

   -30.0963 -13.7349 -13.7349 -13.7349  -0.4768   5.9297   5.9297   5.9297
     6.8755

          k = 0.0000-0.2500 0.2500 (  5269 PWs)   bands (ev):

   -30.0937 -13.7752 -13.7484 -13.7349   0.3021   4.6613   5.2849   6.5593
     6.6852

          k = 0.0000 0.5000-0.5000 (  5284 PWs)   bands (ev):

   -30.0912 -13.8147 -13.7618 -13.7349   2.1432   2.4881   4.8356   6.5329
     7.3591

          k =-0.2500 0.7500-0.5000 (  5250 PWs)   bands (ev):

   -30.0911 -13.8001 -13.7683 -13.7431   1.7058   3.6271   4.1187   6.4600
     6.7134

          k = 0.0000 0.0000 0.5000 (  5258 PWs)   bands (ev):

   -30.0914 -13.7763 -13.7628 -13.7628   1.0312   4.6025   5.2343   5.2343
     6.7669

          k = 0.0000 0.7500-0.2500 (  5278 PWs)   bands (ev):

   -30.0891 -13.8036 -13.7771 -13.7639   2.8156   2.8867   4.9322   5.0582
     6.4845

          k = 0.5000-0.5000 0.5000 (  5216 PWs)   bands (ev):

   -30.0908 -13.7738 -13.7738 -13.7738   3.2327   3.2327   3.2327   4.7554
     7.4354

          k = 0.0000 0.0000-1.0000 (  5162 PWs)   bands (ev):

   -30.0870 -13.7924 -13.7924 -13.7924   3.4008   3.4008   5.2837   5.2837
     5.2837

     the Fermi energy is     1.7159 ev

!    total energy              =     -58.73913666 Ry
     Harris-Foulkes estimate   =     -58.73913666 Ry
     estimated scf accuracy    <          6.7E-10 Ry

     The total energy is the sum of the following terms:

     one-electron contribution =     -36.65023813 Ry
     hartree contribution      =      18.82673364 Ry
     xc contribution           =     -11.01718828 Ry
     ewald contribution        =     -29.89633970 Ry
     smearing contrib. (-TS)   =      -0.00210419 Ry

     convergence has been achieved in   5 iterations

     Forces acting on atoms (cartesian axes, Ry/au):

     atom    1 type  1   force =     0.00000000    0.00000000    0.00000000

     Total force =     0.000000     Total SCF correction =     0.000000


     Computing stress (Cartesian axis) and pressure

          total   stress  (Ry/bohr**3)                   (kbar)     P=   -3.03
  -0.00002061  -0.00000000   0.00000000         -3.03     -0.00      0.00
  -0.00000000  -0.00002061  -0.00000000         -0.00     -3.03     -0.00
   0.00000000  -0.00000000  -0.00002061          0.00     -0.00     -3.03


     Writing output data file K.save/

     init_run     :      0.43s CPU      0.45s WALL (       1 calls)
     electrons    :      2.48s CPU      2.56s WALL (       1 calls)
     forces       :      0.10s CPU      0.10s WALL (       1 calls)
     stress       :      0.39s CPU      0.39s WALL (       1 calls)

     Called by init_run:
     wfcinit      :      0.10s CPU      0.11s WALL (       1 calls)
     potinit      :      0.01s CPU      0.02s WALL (       1 calls)
     hinit0       :      0.22s CPU      0.22s WALL (       1 calls)

     Called by electrons:
     c_bands      :      1.67s CPU      1.74s WALL (       6 calls)
     sum_band     :      0.57s CPU      0.59s WALL (       6 calls)
     v_of_rho     :      0.02s CPU      0.02s WALL (       6 calls)
     newd         :      0.23s CPU      0.25s WALL (       6 calls)
     mix_rho      :      0.01s CPU      0.01s WALL (       6 calls)

     Called by c_bands:
     init_us_2    :      0.08s CPU      0.08s WALL (     120 calls)
     cegterg      :      1.58s CPU      1.64s WALL (      48 calls)

     Called by sum_band:
     sum_band:bec :      0.00s CPU      0.00s WALL (      48 calls)
     addusdens    :      0.23s CPU      0.24s WALL (       6 calls)

     Called by *egterg:
     h_psi        :      1.30s CPU      1.36s WALL (     230 calls)
     s_psi        :      0.05s CPU      0.05s WALL (     230 calls)
     g_psi        :      0.00s CPU      0.00s WALL (     174 calls)
     cdiaghg      :      0.05s CPU      0.05s WALL (     214 calls)

     Called by h_psi:
     h_psi:pot    :      1.29s CPU      1.35s WALL (     230 calls)
     h_psi:calbec :      0.08s CPU      0.09s WALL (     230 calls)
     vloc_psi     :      1.15s CPU      1.21s WALL (     230 calls)
     add_vuspsi   :      0.05s CPU      0.05s WALL (     230 calls)

     General routines
     calbec       :      0.14s CPU      0.14s WALL (     318 calls)
     fft          :      0.03s CPU      0.03s WALL (      34 calls)
     ffts         :      0.00s CPU      0.00s WALL (       6 calls)
     fftw         :      1.26s CPU      1.32s WALL (    2908 calls)

     Parallel routines
     fft_scatt_xy :      0.10s CPU      0.11s WALL (    2948 calls)
     fft_scatt_yz :      0.30s CPU      0.31s WALL (    2948 calls)

     PWSCF        :     4.12s CPU         4.28s WALL


   This run was terminated on:   1: 3:34   8Apr2024            

=------------------------------------------------------------------------------=
   JOB DONE.
=------------------------------------------------------------------------------=
