
     Program PWSCF v.6.3MaX starts on  8Apr2024 at  0:50:17 

     This program is part of the open-source Quantum ESPRESSO suite
     for quantum simulation of materials; please cite
         "P. Giannozzi et al., J. Phys.:Condens. Matter 21 395502 (2009);
         "P. Giannozzi et al., J. Phys.:Condens. Matter 29 465901 (2017);
          URL http://www.quantum-espresso.org", 
     in publications or presentations arising from this work. More details at
     http://www.quantum-espresso.org/quote

     Parallel version (MPI), running on     5 processors

     MPI processes distributed on     1 nodes
     R & G space division:  proc/nbgrp/npool/nimage =       5
     Waiting for input...
     Reading input from standard input

     Current dimensions of program PWSCF are:
     Max number of different atomic species (ntypx) = 10
     Max number of k-points (npk) =  40000
     Max angular momentum in pseudopotentials (lmaxx) =  3
               file K.pz-spn-kjpaw_psl.1.0.0.UPF: wavefunction(s)  3S renormalized

     Subspace diagonalization in iterative solution of the eigenvalue problem:
     a serial algorithm will be used


     Parallelization info
     --------------------
     sticks:   dense  smooth     PW     G-vecs:    dense   smooth      PW
     Min         282     282     82                 6766     6766    1084
     Max         283     283     83                 6768     6768    1088
     Sum        1411    1411    411                33837    33837    5425



     bravais-lattice index     =            3
     lattice parameter (alat)  =       9.8600  a.u.
     unit-cell volume          =     479.2926 (a.u.)^3
     number of atoms/cell      =            1
     number of atomic types    =            1
     number of electrons       =         9.00
     number of Kohn-Sham states=            9
     kinetic-energy cutoff     =      65.0000  Ry
     charge density cutoff     =     260.0000  Ry
     convergence threshold     =      1.0E-08
     mixing beta               =       0.7000
     number of iterations used =            8  plain     mixing
     Exchange-correlation      = SLA PZ NOGX NOGC ( 1  1  0  0 0 0)

     celldm(1)=   9.860000  celldm(2)=   0.000000  celldm(3)=   0.000000
     celldm(4)=   0.000000  celldm(5)=   0.000000  celldm(6)=   0.000000

     crystal axes: (cart. coord. in units of alat)
               a(1) = (   0.500000   0.500000   0.500000 )  
               a(2) = (  -0.500000   0.500000   0.500000 )  
               a(3) = (  -0.500000  -0.500000   0.500000 )  

     reciprocal axes: (cart. coord. in units 2 pi/alat)
               b(1) = (  1.000000  0.000000  1.000000 )  
               b(2) = ( -1.000000  1.000000  0.000000 )  
               b(3) = (  0.000000 -1.000000  1.000000 )  


     PseudoPot. # 1 for K  read from file:
     /home/lorenzo/pseudos/K/K.pz-spn-kjpaw_psl.1.0.0.UPF
     MD5 check sum: 59b94f4c1a6681f21e103574f2c5fc67
     Pseudo is Projector augmented-wave + core cor, Zval =  9.0
     Generated using "atomic" code by A. Dal Corso v.6.2.2
     Shape of augmentation charge: PSQ
     Using radial grid of 1165 points,  6 beta functions with: 
                l(1) =   0
                l(2) =   0
                l(3) =   1
                l(4) =   1
                l(5) =   2
                l(6) =   2
     Q(r) pseudized with 0 coefficients 


     atomic species   valence    mass     pseudopotential
        K              9.00    39.09830     K ( 1.00)

     48 Sym. Ops., with inversion, found



   Cartesian axes

     site n.     atom                  positions (alat units)
         1           K   tau(   1) = (   0.0000000   0.0000000   0.0000000  )

     number of k points=     3  gaussian smearing, width (Ry)=  0.0100
                       cart. coord. in units 2pi/alat
        k(    1) = (   0.0000000   0.0000000   0.0000000), wk =   0.2500000
        k(    2) = (   0.0000000   0.5000000  -0.5000000), wk =   1.5000000
        k(    3) = (   0.0000000   0.0000000  -1.0000000), wk =   0.2500000

     Dense  grid:    33837 G-vectors     FFT dimensions: (  45,  45,  45)

     Estimated max dynamical RAM per process >      27.55 MB

     Estimated total dynamical RAM >     137.76 MB

     Check: negative/imaginary core charge=   -0.000004    0.000000

     Initial potential from superposition of free atoms

     starting charge    8.98437, renormalised to    9.00000
     Starting wfcs are    8 randomized atomic wfcs +    1 random wfcs
     Checking if some PAW data can be deallocated... 

     total cpu time spent up to now is        1.2 secs

     Self-consistent Calculation

     iteration #  1     ecut=    65.00 Ry     beta= 0.70
     Davidson diagonalization with overlap
     ethr =  1.00E-02,  avg # of iterations =  9.3

     Threshold (ethr) on eigenvalues was too large:
     Diagonalizing with lowered threshold

     Davidson diagonalization with overlap
     ethr =  5.07E-06,  avg # of iterations =  5.3

     total cpu time spent up to now is        1.8 secs

     total energy              =    -109.83270841 Ry
     Harris-Foulkes estimate   =    -109.83306602 Ry
     estimated scf accuracy    <       0.00048416 Ry

     iteration #  2     ecut=    65.00 Ry     beta= 0.70
     Davidson diagonalization with overlap
     ethr =  5.38E-06,  avg # of iterations =  2.3

     total cpu time spent up to now is        2.3 secs

     total energy              =    -109.83283887 Ry
     Harris-Foulkes estimate   =    -109.83286189 Ry
     estimated scf accuracy    <       0.00003225 Ry

     iteration #  3     ecut=    65.00 Ry     beta= 0.70
     Davidson diagonalization with overlap
     ethr =  3.58E-07,  avg # of iterations =  4.3

     total cpu time spent up to now is        2.8 secs

     total energy              =    -109.83284691 Ry
     Harris-Foulkes estimate   =    -109.83284670 Ry
     estimated scf accuracy    <       0.00000054 Ry

     iteration #  4     ecut=    65.00 Ry     beta= 0.70
     Davidson diagonalization with overlap
     ethr =  6.03E-09,  avg # of iterations =  2.0

     total cpu time spent up to now is        3.3 secs

     End of self-consistent calculation

          k = 0.0000 0.0000 0.0000 (  4213 PWs)   bands (ev):

   -29.9786 -13.6219 -13.6219 -13.6219  -0.4438   5.9750   5.9750   5.9750
     6.9465

          k = 0.0000 0.5000-0.5000 (  4238 PWs)   bands (ev):

   -29.9733 -13.7030 -13.6492 -13.6218   2.1760   2.5286   4.8756   6.5874
     7.8848

          k = 0.0000 0.0000-1.0000 (  4196 PWs)   bands (ev):

   -29.9692 -13.6804 -13.6804 -13.6804   3.4549   5.3063   5.3063   5.3063
     7.2893

     the Fermi energy is     2.1759 ev

!    total energy              =    -109.83284699 Ry
     Harris-Foulkes estimate   =    -109.83284698 Ry
     estimated scf accuracy    <          7.2E-09 Ry

     total all-electron energy =     -1201.157847 Ry

     The total energy is the sum of the following terms:

     one-electron contribution =     -35.39765723 Ry
     hartree contribution      =      18.89991025 Ry
     xc contribution           =     -11.02384922 Ry
     ewald contribution        =     -29.89633970 Ry
     one-center paw contrib.   =     -52.41067455 Ry
     smearing contrib. (-TS)   =      -0.00423654 Ry

     convergence has been achieved in   4 iterations

     Forces acting on atoms (cartesian axes, Ry/au):

     atom    1 type  1   force =     0.00000000    0.00000000    0.00000000

     Total force =     0.000000     Total SCF correction =     0.000000


     Computing stress (Cartesian axis) and pressure

          total   stress  (Ry/bohr**3)                   (kbar)     P=   -2.49
  -0.00001691  -0.00000000   0.00000000         -2.49     -0.00      0.00
  -0.00000000  -0.00001691  -0.00000000         -0.00     -2.49     -0.00
   0.00000000   0.00000000  -0.00001691          0.00      0.00     -2.49


     Writing output data file K.save/

     init_run     :      0.40s CPU      0.42s WALL (       1 calls)
     electrons    :      2.07s CPU      2.15s WALL (       1 calls)
     forces       :      0.15s CPU      0.15s WALL (       1 calls)
     stress       :      0.35s CPU      0.35s WALL (       1 calls)

     Called by init_run:
     wfcinit      :      0.05s CPU      0.05s WALL (       1 calls)
     potinit      :      0.06s CPU      0.07s WALL (       1 calls)
     hinit0       :      0.22s CPU      0.22s WALL (       1 calls)

     Called by electrons:
     c_bands      :      1.02s CPU      1.06s WALL (       5 calls)
     sum_band     :      0.53s CPU      0.55s WALL (       5 calls)
     v_of_rho     :      0.02s CPU      0.02s WALL (       5 calls)
     newd         :      0.22s CPU      0.24s WALL (       5 calls)
     PAW_pot      :      0.29s CPU      0.30s WALL (       5 calls)
     mix_rho      :      0.04s CPU      0.04s WALL (       5 calls)

     Called by c_bands:
     init_us_2    :      0.03s CPU      0.03s WALL (      39 calls)
     cegterg      :      0.98s CPU      1.02s WALL (      15 calls)

     Called by sum_band:
     sum_band:bec :      0.00s CPU      0.00s WALL (      15 calls)
     addusdens    :      0.17s CPU      0.18s WALL (       5 calls)

     Called by *egterg:
     h_psi        :      0.84s CPU      0.89s WALL (      88 calls)
     s_psi        :      0.01s CPU      0.01s WALL (      88 calls)
     g_psi        :      0.00s CPU      0.00s WALL (      70 calls)
     cdiaghg      :      0.03s CPU      0.03s WALL (      82 calls)

     Called by h_psi:
     h_psi:pot    :      0.84s CPU      0.88s WALL (      88 calls)
     h_psi:calbec :      0.07s CPU      0.07s WALL (      88 calls)
     vloc_psi     :      0.75s CPU      0.79s WALL (      88 calls)
     add_vuspsi   :      0.02s CPU      0.02s WALL (      88 calls)

     General routines
     calbec       :      0.15s CPU      0.15s WALL (     118 calls)
     fft          :      0.07s CPU      0.07s WALL (      30 calls)
     ffts         :      0.01s CPU      0.01s WALL (       5 calls)
     fftw         :      0.89s CPU      0.93s WALL (     995 calls)

     Parallel routines
     fft_scatt_xy :      0.05s CPU      0.06s WALL (    1030 calls)
     fft_scatt_yz :      0.56s CPU      0.58s WALL (    1030 calls)

     PWSCF        :     3.75s CPU         3.89s WALL


   This run was terminated on:   0:50:21   8Apr2024            

=------------------------------------------------------------------------------=
   JOB DONE.
=------------------------------------------------------------------------------=
