
     Program PWSCF v.6.3MaX starts on  8Apr2024 at  1: 3:57 

     This program is part of the open-source Quantum ESPRESSO suite
     for quantum simulation of materials; please cite
         "P. Giannozzi et al., J. Phys.:Condens. Matter 21 395502 (2009);
         "P. Giannozzi et al., J. Phys.:Condens. Matter 29 465901 (2017);
          URL http://www.quantum-espresso.org", 
     in publications or presentations arising from this work. More details at
     http://www.quantum-espresso.org/quote

     Parallel version (MPI), running on     5 processors

     MPI processes distributed on     1 nodes
     R & G space division:  proc/nbgrp/npool/nimage =       5
     Waiting for input...
     Reading input from standard input

     Current dimensions of program PWSCF are:
     Max number of different atomic species (ntypx) = 10
     Max number of k-points (npk) =  40000
     Max angular momentum in pseudopotentials (lmaxx) =  3
               file K.pbe-spn-kjpaw_psl.1.0.0.UPF: wavefunction(s)  3S renormalized

     Subspace diagonalization in iterative solution of the eigenvalue problem:
     a serial algorithm will be used


     Parallelization info
     --------------------
     sticks:   dense  smooth     PW     G-vecs:    dense   smooth      PW
     Min         330     330     94                 8429     8429    1305
     Max         331     331     95                 8430     8430    1307
     Sum        1653    1653    471                42147    42147    6531



     bravais-lattice index     =            3
     lattice parameter (alat)  =       9.8600  a.u.
     unit-cell volume          =     479.2926 (a.u.)^3
     number of atoms/cell      =            1
     number of atomic types    =            1
     number of electrons       =         9.00
     number of Kohn-Sham states=            9
     kinetic-energy cutoff     =      75.0000  Ry
     charge density cutoff     =     300.0000  Ry
     convergence threshold     =      1.0E-08
     mixing beta               =       0.7000
     number of iterations used =            8  plain     mixing
     Exchange-correlation      = SLA PW PBX PBC ( 1  4  3  4 0 0)

     celldm(1)=   9.860000  celldm(2)=   0.000000  celldm(3)=   0.000000
     celldm(4)=   0.000000  celldm(5)=   0.000000  celldm(6)=   0.000000

     crystal axes: (cart. coord. in units of alat)
               a(1) = (   0.500000   0.500000   0.500000 )  
               a(2) = (  -0.500000   0.500000   0.500000 )  
               a(3) = (  -0.500000  -0.500000   0.500000 )  

     reciprocal axes: (cart. coord. in units 2 pi/alat)
               b(1) = (  1.000000  0.000000  1.000000 )  
               b(2) = ( -1.000000  1.000000  0.000000 )  
               b(3) = (  0.000000 -1.000000  1.000000 )  


     PseudoPot. # 1 for K  read from file:
     /home/lorenzo/pseudos/K/K.pbe-spn-kjpaw_psl.1.0.0.UPF
     MD5 check sum: 34cc42130a09071ebe376fd42eb21491
     Pseudo is Projector augmented-wave + core cor, Zval =  9.0
     Generated using "atomic" code by A. Dal Corso v.6.2.2
     Shape of augmentation charge: PSQ
     Using radial grid of 1165 points,  6 beta functions with: 
                l(1) =   0
                l(2) =   0
                l(3) =   1
                l(4) =   1
                l(5) =   2
                l(6) =   2
     Q(r) pseudized with 0 coefficients 


     atomic species   valence    mass     pseudopotential
        K              9.00    39.09830     K ( 1.00)

     48 Sym. Ops., with inversion, found



   Cartesian axes

     site n.     atom                  positions (alat units)
         1           K   tau(   1) = (   0.0000000   0.0000000   0.0000000  )

     number of k points=    16  gaussian smearing, width (Ry)=  0.0100
                       cart. coord. in units 2pi/alat
        k(    1) = (   0.0000000   0.0000000   0.0000000), wk =   0.0092593
        k(    2) = (   0.0000000  -0.1666667   0.1666667), wk =   0.1111111
        k(    3) = (   0.0000000  -0.3333333   0.3333333), wk =   0.1111111
        k(    4) = (   0.0000000   0.5000000  -0.5000000), wk =   0.0555556
        k(    5) = (  -0.1666667  -0.1666667   0.3333333), wk =   0.2222222
        k(    6) = (  -0.1666667   0.6666667  -0.5000000), wk =   0.4444444
        k(    7) = (  -0.3333333   0.6666667  -0.3333333), wk =   0.0740741
        k(    8) = (   0.0000000   0.0000000   0.3333333), wk =   0.0555556
        k(    9) = (   0.0000000  -0.1666667   0.5000000), wk =   0.2222222
        k(   10) = (   0.0000000   0.6666667  -0.3333333), wk =   0.1111111
        k(   11) = (  -0.1666667   0.8333333  -0.3333333), wk =   0.2222222
        k(   12) = (   0.6666667  -0.6666667   0.3333333), wk =   0.0740741
        k(   13) = (   0.5000000  -0.5000000   0.3333333), wk =   0.1111111
        k(   14) = (   0.0000000   0.0000000   0.6666667), wk =   0.0555556
        k(   15) = (   0.0000000   0.8333333  -0.1666667), wk =   0.1111111
        k(   16) = (   0.0000000   0.0000000  -1.0000000), wk =   0.0092593

     Dense  grid:    42147 G-vectors     FFT dimensions: (  48,  48,  48)

     Estimated max dynamical RAM per process >      35.87 MB

     Estimated total dynamical RAM >     179.33 MB

     Check: negative/imaginary core charge=   -0.000002    0.000000

     Initial potential from superposition of free atoms

     starting charge    8.98117, renormalised to    9.00000
     Starting wfcs are    8 randomized atomic wfcs +    1 random wfcs
     Checking if some PAW data can be deallocated... 

     total cpu time spent up to now is        1.4 secs

     Self-consistent Calculation

     iteration #  1     ecut=    75.00 Ry     beta= 0.70
     Davidson diagonalization with overlap
     ethr =  1.00E-02,  avg # of iterations =  6.8

     Threshold (ethr) on eigenvalues was too large:
     Diagonalizing with lowered threshold

     Davidson diagonalization with overlap
     ethr =  1.40E-05,  avg # of iterations =  6.3

     total cpu time spent up to now is        3.6 secs

     total energy              =    -113.00999160 Ry
     Harris-Foulkes estimate   =    -113.01050276 Ry
     estimated scf accuracy    <       0.00124964 Ry

     iteration #  2     ecut=    75.00 Ry     beta= 0.70
     Davidson diagonalization with overlap
     ethr =  1.39E-05,  avg # of iterations =  2.2

     total cpu time spent up to now is        4.4 secs

     total energy              =    -113.01021323 Ry
     Harris-Foulkes estimate   =    -113.01022249 Ry
     estimated scf accuracy    <       0.00010075 Ry

     iteration #  3     ecut=    75.00 Ry     beta= 0.70
     Davidson diagonalization with overlap
     ethr =  1.12E-06,  avg # of iterations =  2.5

     total cpu time spent up to now is        5.4 secs

     total energy              =    -113.01022540 Ry
     Harris-Foulkes estimate   =    -113.01022307 Ry
     estimated scf accuracy    <       0.00000682 Ry

     iteration #  4     ecut=    75.00 Ry     beta= 0.70
     Davidson diagonalization with overlap
     ethr =  7.58E-08,  avg # of iterations =  1.5

     total cpu time spent up to now is        6.2 secs

     total energy              =    -113.01022607 Ry
     Harris-Foulkes estimate   =    -113.01022607 Ry
     estimated scf accuracy    <       0.00000005 Ry

     iteration #  5     ecut=    75.00 Ry     beta= 0.70
     Davidson diagonalization with overlap
     ethr =  5.87E-10,  avg # of iterations =  2.5

     total cpu time spent up to now is        6.9 secs

     End of self-consistent calculation

          k = 0.0000 0.0000 0.0000 (  5281 PWs)   bands (ev):

   -30.1642 -13.6127 -13.6127 -13.6127  -0.2617   6.2634   6.2634   7.1821
     7.1824

          k = 0.0000-0.1667 0.1667 (  5259 PWs)   bands (ev):

   -30.1630 -13.6321 -13.6191 -13.6127   0.0896   5.6327   5.8813   6.5453
     6.9368

          k = 0.0000-0.3333 0.3333 (  5269 PWs)   bands (ev):

   -30.1605 -13.6703 -13.6320 -13.6126   1.0772   4.1197   5.3353   7.0341
     7.2497

          k = 0.0000 0.5000-0.5000 (  5284 PWs)   bands (ev):

   -30.1593 -13.6891 -13.6383 -13.6126   2.3890   2.6485   5.1201   6.8718
     7.9903

          k =-0.1667-0.1667 0.3333 (  5253 PWs)   bands (ev):

   -30.1611 -13.6580 -13.6271 -13.6171   0.7608   4.7935   5.1888   6.8184
     6.9388

          k =-0.1667 0.6667-0.5000 (  5244 PWs)   bands (ev):

   -30.1593 -13.6794 -13.6421 -13.6186   1.9772   3.4679   4.6893   6.6780
     7.3332

          k =-0.3333 0.6667-0.3333 (  5270 PWs)   bands (ev):

   -30.1587 -13.6653 -13.6653 -13.6223   3.1567   3.1567   3.5773   6.5948
     7.3439

          k = 0.0000 0.0000 0.3333 (  5249 PWs)   bands (ev):

   -30.1618 -13.6356 -13.6258 -13.6258   0.4309   5.6996   5.7501   5.7501
     6.6681

          k = 0.0000-0.1667 0.5000 (  5276 PWs)   bands (ev):

   -30.1595 -13.6668 -13.6391 -13.6273   1.3894   4.2594   5.3873   5.8632
     7.2775

          k = 0.0000 0.6667-0.3333 (  5274 PWs)   bands (ev):

   -30.1584 -13.6838 -13.6457 -13.6266   2.7372   2.8019   5.2189   5.7075
     7.2746

          k =-0.1667 0.8333-0.3333 (  5262 PWs)   bands (ev):

   -30.1579 -13.6743 -13.6573 -13.6324   2.5129   3.6518   4.4030   6.2364
     6.7206

          k = 0.6667-0.6667 0.3333 (  5249 PWs)   bands (ev):

   -30.1598 -13.6729 -13.6297 -13.6297   1.6960   4.2247   4.2247   6.4105
     7.5579

          k = 0.5000-0.5000 0.3333 (  5250 PWs)   bands (ev):

   -30.1591 -13.6693 -13.6470 -13.6310   2.9890   3.0441   4.0378   5.7323
     7.6658

          k = 0.0000 0.0000 0.6667 (  5242 PWs)   bands (ev):

   -30.1575 -13.6630 -13.6533 -13.6533   2.2384   4.1498   5.4267   5.4267
     6.0573

          k = 0.0000 0.8333-0.1667 (  5258 PWs)   bands (ev):

   -30.1565 -13.6731 -13.6604 -13.6541   3.2333   3.4574   5.0190   5.4150
     6.2004

          k = 0.0000 0.0000-1.0000 (  5162 PWs)   bands (ev):

   -30.1555 -13.6677 -13.6677 -13.6677   3.5997   5.5107   5.5107   5.5107
     7.6780

     the Fermi energy is     1.9621 ev

!    total energy              =    -113.01022609 Ry
     Harris-Foulkes estimate   =    -113.01022609 Ry
     estimated scf accuracy    <          2.9E-09 Ry

     total all-electron energy =     -1204.248936 Ry

     The total energy is the sum of the following terms:

     one-electron contribution =     -35.40415497 Ry
     hartree contribution      =      18.88109015 Ry
     xc contribution           =     -11.16993545 Ry
     ewald contribution        =     -29.89633970 Ry
     one-center paw contrib.   =     -55.41964058 Ry
     smearing contrib. (-TS)   =      -0.00124554 Ry

     convergence has been achieved in   5 iterations

     Forces acting on atoms (cartesian axes, Ry/au):

     atom    1 type  1   force =     0.00000000    0.00000000    0.00000000

     Total force =     0.000000     Total SCF correction =     0.000000


     Computing stress (Cartesian axis) and pressure

          total   stress  (Ry/bohr**3)                   (kbar)     P=    1.63
   0.00001111   0.00000000  -0.00000000          1.63      0.00     -0.00
   0.00000000   0.00001111   0.00000000          0.00      1.63      0.00
  -0.00000000   0.00000000   0.00001111         -0.00      0.00      1.63


     Writing output data file K.save/

     init_run     :      0.63s CPU      0.67s WALL (       1 calls)
     electrons    :      5.35s CPU      5.54s WALL (       1 calls)
     forces       :      0.14s CPU      0.14s WALL (       1 calls)
     stress       :      0.50s CPU      0.50s WALL (       1 calls)

     Called by init_run:
     wfcinit      :      0.18s CPU      0.19s WALL (       1 calls)
     potinit      :      0.13s CPU      0.15s WALL (       1 calls)
     hinit0       :      0.21s CPU      0.22s WALL (       1 calls)

     Called by electrons:
     c_bands      :      3.55s CPU      3.69s WALL (       6 calls)
     sum_band     :      1.00s CPU      1.04s WALL (       6 calls)
     v_of_rho     :      0.15s CPU      0.15s WALL (       6 calls)
     newd         :      0.24s CPU      0.25s WALL (       6 calls)
     PAW_pot      :      0.54s CPU      0.57s WALL (       6 calls)
     mix_rho      :      0.02s CPU      0.02s WALL (       6 calls)

     Called by c_bands:
     init_us_2    :      0.16s CPU      0.17s WALL (     240 calls)
     cegterg      :      3.37s CPU      3.51s WALL (      96 calls)

     Called by sum_band:
     sum_band:bec :      0.00s CPU      0.00s WALL (      96 calls)
     addusdens    :      0.26s CPU      0.27s WALL (       6 calls)

     Called by *egterg:
     h_psi        :      2.75s CPU      2.89s WALL (     460 calls)
     s_psi        :      0.10s CPU      0.10s WALL (     460 calls)
     g_psi        :      0.01s CPU      0.01s WALL (     348 calls)
     cdiaghg      :      0.11s CPU      0.11s WALL (     428 calls)

     Called by h_psi:
     h_psi:pot    :      2.73s CPU      2.87s WALL (     460 calls)
     h_psi:calbec :      0.18s CPU      0.19s WALL (     460 calls)
     vloc_psi     :      2.44s CPU      2.56s WALL (     460 calls)
     add_vuspsi   :      0.11s CPU      0.11s WALL (     460 calls)

     General routines
     calbec       :      0.29s CPU      0.30s WALL (     636 calls)
     fft          :      0.09s CPU      0.10s WALL (      93 calls)
     ffts         :      0.00s CPU      0.00s WALL (       6 calls)
     fftw         :      2.74s CPU      2.87s WALL (    5950 calls)

     Parallel routines
     fft_scatt_xy :      0.23s CPU      0.24s WALL (    6049 calls)
     fft_scatt_yz :      0.69s CPU      0.72s WALL (    6049 calls)

     PWSCF        :     7.38s CPU         7.69s WALL


   This run was terminated on:   1: 4: 5   8Apr2024            

=------------------------------------------------------------------------------=
   JOB DONE.
=------------------------------------------------------------------------------=
