
     Program PWSCF v.6.3MaX starts on  8Apr2024 at  1:21:14 

     This program is part of the open-source Quantum ESPRESSO suite
     for quantum simulation of materials; please cite
         "P. Giannozzi et al., J. Phys.:Condens. Matter 21 395502 (2009);
         "P. Giannozzi et al., J. Phys.:Condens. Matter 29 465901 (2017);
          URL http://www.quantum-espresso.org", 
     in publications or presentations arising from this work. More details at
     http://www.quantum-espresso.org/quote

     Parallel version (MPI), running on     5 processors

     MPI processes distributed on     1 nodes
     R & G space division:  proc/nbgrp/npool/nimage =       5
     Waiting for input...
     Reading input from standard input

     Current dimensions of program PWSCF are:
     Max number of different atomic species (ntypx) = 10
     Max number of k-points (npk) =  40000
     Max angular momentum in pseudopotentials (lmaxx) =  3
               file K.pbe-spn-kjpaw_psl.1.0.0.UPF: wavefunction(s)  3S renormalized

     Subspace diagonalization in iterative solution of the eigenvalue problem:
     a serial algorithm will be used


     Parallelization info
     --------------------
     sticks:   dense  smooth     PW     G-vecs:    dense   smooth      PW
     Min         369     369    107                10119    10119    1560
     Max         370     370    107                10120    10120    1561
     Sum        1849    1849    535                50597    50597    7803



     bravais-lattice index     =            3
     lattice parameter (alat)  =       9.8600  a.u.
     unit-cell volume          =     479.2926 (a.u.)^3
     number of atoms/cell      =            1
     number of atomic types    =            1
     number of electrons       =         9.00
     number of Kohn-Sham states=            9
     kinetic-energy cutoff     =      85.0000  Ry
     charge density cutoff     =     340.0000  Ry
     convergence threshold     =      1.0E-08
     mixing beta               =       0.7000
     number of iterations used =            8  plain     mixing
     Exchange-correlation      = SLA PW PBX PBC ( 1  4  3  4 0 0)

     celldm(1)=   9.860000  celldm(2)=   0.000000  celldm(3)=   0.000000
     celldm(4)=   0.000000  celldm(5)=   0.000000  celldm(6)=   0.000000

     crystal axes: (cart. coord. in units of alat)
               a(1) = (   0.500000   0.500000   0.500000 )  
               a(2) = (  -0.500000   0.500000   0.500000 )  
               a(3) = (  -0.500000  -0.500000   0.500000 )  

     reciprocal axes: (cart. coord. in units 2 pi/alat)
               b(1) = (  1.000000  0.000000  1.000000 )  
               b(2) = ( -1.000000  1.000000  0.000000 )  
               b(3) = (  0.000000 -1.000000  1.000000 )  


     PseudoPot. # 1 for K  read from file:
     /home/lorenzo/pseudos/K/K.pbe-spn-kjpaw_psl.1.0.0.UPF
     MD5 check sum: 34cc42130a09071ebe376fd42eb21491
     Pseudo is Projector augmented-wave + core cor, Zval =  9.0
     Generated using "atomic" code by A. Dal Corso v.6.2.2
     Shape of augmentation charge: PSQ
     Using radial grid of 1165 points,  6 beta functions with: 
                l(1) =   0
                l(2) =   0
                l(3) =   1
                l(4) =   1
                l(5) =   2
                l(6) =   2
     Q(r) pseudized with 0 coefficients 


     atomic species   valence    mass     pseudopotential
        K              9.00    39.09830     K ( 1.00)

     48 Sym. Ops., with inversion, found



   Cartesian axes

     site n.     atom                  positions (alat units)
         1           K   tau(   1) = (   0.0000000   0.0000000   0.0000000  )

     number of k points=    29  gaussian smearing, width (Ry)=  0.0100
                       cart. coord. in units 2pi/alat
        k(    1) = (   0.0000000   0.0000000   0.0000000), wk =   0.0039062
        k(    2) = (   0.0000000  -0.1250000   0.1250000), wk =   0.0468750
        k(    3) = (   0.0000000  -0.2500000   0.2500000), wk =   0.0468750
        k(    4) = (   0.0000000  -0.3750000   0.3750000), wk =   0.0468750
        k(    5) = (   0.0000000   0.5000000  -0.5000000), wk =   0.0234375
        k(    6) = (  -0.1250000  -0.1250000   0.2500000), wk =   0.0937500
        k(    7) = (  -0.1250000  -0.2500000   0.3750000), wk =   0.1875000
        k(    8) = (  -0.1250000   0.6250000  -0.5000000), wk =   0.1875000
        k(    9) = (  -0.2500000   0.7500000  -0.5000000), wk =   0.0937500
        k(   10) = (  -0.2500000   0.6250000  -0.3750000), wk =   0.0937500
        k(   11) = (   0.0000000   0.0000000   0.2500000), wk =   0.0234375
        k(   12) = (   0.0000000  -0.1250000   0.3750000), wk =   0.0937500
        k(   13) = (   0.0000000  -0.2500000   0.5000000), wk =   0.0937500
        k(   14) = (   0.0000000   0.6250000  -0.3750000), wk =   0.0468750
        k(   15) = (  -0.1250000  -0.1250000   0.5000000), wk =   0.0937500
        k(   16) = (  -0.1250000   0.7500000  -0.3750000), wk =   0.1875000
        k(   17) = (  -0.2500000   0.2500000   0.2500000), wk =   0.0312500
        k(   18) = (  -0.2500000   0.7500000  -0.2500000), wk =   0.0312500
        k(   19) = (   0.6250000  -0.6250000   0.2500000), wk =   0.0937500
        k(   20) = (   0.5000000  -0.5000000   0.2500000), wk =   0.0468750
        k(   21) = (   0.5000000  -0.6250000   0.3750000), wk =   0.0937500
        k(   22) = (   0.0000000   0.0000000   0.5000000), wk =   0.0234375
        k(   23) = (   0.0000000  -0.1250000   0.6250000), wk =   0.0937500
        k(   24) = (   0.0000000   0.7500000  -0.2500000), wk =   0.0468750
        k(   25) = (  -0.1250000   0.8750000  -0.2500000), wk =   0.0937500
        k(   26) = (   0.5000000  -0.5000000   0.5000000), wk =   0.0078125
        k(   27) = (   0.0000000   0.0000000   0.7500000), wk =   0.0234375
        k(   28) = (   0.0000000   0.8750000  -0.1250000), wk =   0.0468750
        k(   29) = (   0.0000000   0.0000000  -1.0000000), wk =   0.0039062

     Dense  grid:    50597 G-vectors     FFT dimensions: (  54,  54,  54)

     Estimated max dynamical RAM per process >      45.34 MB

     Estimated total dynamical RAM >     226.71 MB

     Check: negative/imaginary core charge=   -0.000001    0.000000

     Initial potential from superposition of free atoms

     starting charge    8.98117, renormalised to    9.00000
     Starting wfcs are    8 randomized atomic wfcs +    1 random wfcs
     Checking if some PAW data can be deallocated... 

     total cpu time spent up to now is        1.8 secs

     Self-consistent Calculation

     iteration #  1     ecut=    85.00 Ry     beta= 0.70
     Davidson diagonalization with overlap
     ethr =  1.00E-02,  avg # of iterations =  6.4

     Threshold (ethr) on eigenvalues was too large:
     Diagonalizing with lowered threshold

     Davidson diagonalization with overlap
     ethr =  1.41E-05,  avg # of iterations =  6.3

     total cpu time spent up to now is        8.3 secs

     total energy              =    -113.01076645 Ry
     Harris-Foulkes estimate   =    -113.01128475 Ry
     estimated scf accuracy    <       0.00125595 Ry

     iteration #  2     ecut=    85.00 Ry     beta= 0.70
     Davidson diagonalization with overlap
     ethr =  1.40E-05,  avg # of iterations =  2.1

     total cpu time spent up to now is       10.3 secs

     total energy              =    -113.01098895 Ry
     Harris-Foulkes estimate   =    -113.01099865 Ry
     estimated scf accuracy    <       0.00010140 Ry

     iteration #  3     ecut=    85.00 Ry     beta= 0.70
     Davidson diagonalization with overlap
     ethr =  1.13E-06,  avg # of iterations =  2.1

     total cpu time spent up to now is       12.2 secs

     total energy              =    -113.01100121 Ry
     Harris-Foulkes estimate   =    -113.01099895 Ry
     estimated scf accuracy    <       0.00000680 Ry

     iteration #  4     ecut=    85.00 Ry     beta= 0.70
     Davidson diagonalization with overlap
     ethr =  7.56E-08,  avg # of iterations =  1.6

     total cpu time spent up to now is       13.9 secs

     total energy              =    -113.01100192 Ry
     Harris-Foulkes estimate   =    -113.01100192 Ry
     estimated scf accuracy    <       0.00000005 Ry

     iteration #  5     ecut=    85.00 Ry     beta= 0.70
     Davidson diagonalization with overlap
     ethr =  6.08E-10,  avg # of iterations =  2.6

     total cpu time spent up to now is       15.7 secs

     End of self-consistent calculation

          k = 0.0000 0.0000 0.0000 (  6363 PWs)   bands (ev):

   -30.1654 -13.6136 -13.6136 -13.6136  -0.2617   6.2631   6.2631   7.1816
     7.1818

          k = 0.0000-0.1250 0.1250 (  6375 PWs)   bands (ev):

   -30.1647 -13.6250 -13.6174 -13.6136  -0.0627   5.9300   6.0258   6.4224
     6.9499

          k = 0.0000-0.2500 0.2500 (  6366 PWs)   bands (ev):

   -30.1630 -13.6522 -13.6265 -13.6136   0.5131   4.9034   5.5835   6.8894
     7.0044

          k = 0.0000-0.3750 0.3750 (  6360 PWs)   bands (ev):

   -30.1613 -13.6790 -13.6355 -13.6136   1.4029   3.7220   5.2426   6.9964
     7.3444

          k = 0.0000 0.5000-0.5000 (  6300 PWs)   bands (ev):

   -30.1605 -13.6900 -13.6392 -13.6135   2.3889   2.6485   5.1200   6.8715
     7.9902

          k =-0.1250-0.1250 0.2500 (  6358 PWs)   bands (ev):

   -30.1635 -13.6437 -13.6217 -13.6163   0.3250   5.3420   5.5697   6.6992
     6.7920

          k =-0.1250-0.2500 0.3750 (  6354 PWs)   bands (ev):

   -30.1618 -13.6677 -13.6326 -13.6174   1.0603   4.3476   5.1164   6.8328
     7.1379

          k =-0.1250 0.6250-0.5000 (  6331 PWs)   bands (ev):

   -30.1605 -13.6839 -13.6414 -13.6176   2.0589   3.2153   4.8785   6.6764
     7.5296

          k =-0.2500 0.7500-0.5000 (  6316 PWs)   bands (ev):

   -30.1605 -13.6760 -13.6455 -13.6215   1.9107   3.8317   4.3654   6.7971
     7.0262

          k =-0.2500 0.6250-0.3750 (  6326 PWs)   bands (ev):

   -30.1600 -13.6757 -13.6553 -13.6225   2.9298   2.9595   4.0522   6.5851
     7.3256

          k = 0.0000 0.0000 0.2500 (  6375 PWs)   bands (ev):

   -30.1640 -13.6278 -13.6212 -13.6212   0.1330   5.9163   5.9163   6.1849
     6.4944

          k = 0.0000-0.1250 0.3750 (  6358 PWs)   bands (ev):

   -30.1623 -13.6513 -13.6305 -13.6226   0.6996   4.9631   5.5806   6.1264
     6.9071

          k = 0.0000-0.2500 0.5000 (  6345 PWs)   bands (ev):

   -30.1607 -13.6765 -13.6397 -13.6220   1.5752   3.8226   5.2869   6.1324
     7.4209

          k = 0.0000 0.6250-0.3750 (  6328 PWs)   bands (ev):

   -30.1600 -13.6869 -13.6436 -13.6217   2.5891   2.7350   5.1778   6.0339
     7.4619

          k =-0.1250-0.1250 0.5000 (  6357 PWs)   bands (ev):

   -30.1607 -13.6672 -13.6418 -13.6274   1.4091   4.3381   5.0552   6.1482
     7.0960

          k =-0.1250 0.7500-0.3750 (  6326 PWs)   bands (ev):

   -30.1596 -13.6790 -13.6521 -13.6277   2.3709   3.4341   4.6244   6.2155
     7.0681

          k =-0.2500 0.2500 0.2500 (  6363 PWs)   bands (ev):

   -30.1622 -13.6636 -13.6227 -13.6227   0.8829   4.8167   4.8167   6.8834
     7.3205

          k =-0.2500 0.7500-0.2500 (  6341 PWs)   bands (ev):

   -30.1592 -13.6692 -13.6692 -13.6288   3.2019   3.2019   3.8057   6.7884
     7.3372

          k = 0.6250-0.6250 0.2500 (  6354 PWs)   bands (ev):

   -30.1609 -13.6756 -13.6369 -13.6238   1.7489   3.8778   4.4949   6.5319
     7.4838

          k = 0.5000-0.5000 0.2500 (  6344 PWs)   bands (ev):

   -30.1604 -13.6783 -13.6450 -13.6243   2.7792   2.8385   4.3874   6.2314
     7.6205

          k = 0.5000-0.6250 0.3750 (  6353 PWs)   bands (ev):

   -30.1604 -13.6693 -13.6493 -13.6310   2.6731   3.5269   3.8482   5.8052
     7.6174

          k = 0.0000 0.0000 0.5000 (  6366 PWs)   bands (ev):

   -30.1608 -13.6532 -13.6402 -13.6402   1.2368   4.8179   5.5063   5.5063
     7.0904

          k = 0.0000-0.1250 0.6250 (  6334 PWs)   bands (ev):

   -30.1593 -13.6706 -13.6499 -13.6421   2.0586   4.0228   5.3772   5.4023
     6.6111

          k = 0.0000 0.7500-0.2500 (  6340 PWs)   bands (ev):

   -30.1586 -13.6793 -13.6540 -13.6413   2.9893   3.1111   5.2002   5.3173
     6.7714

          k =-0.1250 0.8750-0.2500 (  6334 PWs)   bands (ev):

   -30.1583 -13.6732 -13.6628 -13.6451   2.8929   3.6189   4.5730   5.9157
     6.3353

          k = 0.5000-0.5000 0.5000 (  6356 PWs)   bands (ev):

   -30.1603 -13.6508 -13.6508 -13.6508   3.4268   3.4268   3.4268   5.1269
     7.7840

          k = 0.0000 0.0000 0.7500 (  6342 PWs)   bands (ev):

   -30.1579 -13.6666 -13.6601 -13.6601   2.7500   3.9103   5.4389   5.4389
     5.7054

          k = 0.0000 0.8750-0.1250 (  6362 PWs)   bands (ev):

   -30.1573 -13.6717 -13.6643 -13.6606   3.3624   3.5523   5.0973   5.4550
     5.9361

          k = 0.0000 0.0000-1.0000 (  6434 PWs)   bands (ev):

   -30.1568 -13.6686 -13.6686 -13.6686   3.5995   5.5107   5.5107   5.5107
     7.6774

     the Fermi energy is     1.9731 ev

!    total energy              =    -113.01100193 Ry
     Harris-Foulkes estimate   =    -113.01100193 Ry
     estimated scf accuracy    <          2.8E-09 Ry

     total all-electron energy =     -1204.249712 Ry

     The total energy is the sum of the following terms:

     one-electron contribution =     -35.40490211 Ry
     hartree contribution      =      18.88049703 Ry
     xc contribution           =     -11.16986243 Ry
     ewald contribution        =     -29.89633970 Ry
     one-center paw contrib.   =     -55.41962911 Ry
     smearing contrib. (-TS)   =      -0.00076561 Ry

     convergence has been achieved in   5 iterations

     Forces acting on atoms (cartesian axes, Ry/au):

     atom    1 type  1   force =     0.00000000    0.00000000    0.00000000

     Total force =     0.000000     Total SCF correction =     0.000000


     Computing stress (Cartesian axis) and pressure

          total   stress  (Ry/bohr**3)                   (kbar)     P=    1.45
   0.00000984   0.00000000  -0.00000000          1.45      0.00     -0.00
   0.00000000   0.00000984   0.00000000          0.00      1.45      0.00
  -0.00000000   0.00000000   0.00000984         -0.00      0.00      1.45


     Writing output data file K.save/

     init_run     :      1.02s CPU      1.08s WALL (       1 calls)
     electrons    :     13.52s CPU     13.93s WALL (       1 calls)
     forces       :      0.23s CPU      0.24s WALL (       1 calls)
     stress       :      0.84s CPU      0.84s WALL (       1 calls)

     Called by init_run:
     wfcinit      :      0.53s CPU      0.55s WALL (       1 calls)
     potinit      :      0.14s CPU      0.15s WALL (       1 calls)
     hinit0       :      0.23s CPU      0.23s WALL (       1 calls)

     Called by electrons:
     c_bands      :     10.54s CPU     10.86s WALL (       6 calls)
     sum_band     :      2.06s CPU      2.14s WALL (       6 calls)
     v_of_rho     :      0.20s CPU      0.20s WALL (       6 calls)
     newd         :      0.27s CPU      0.29s WALL (       6 calls)
     PAW_pot      :      0.58s CPU      0.60s WALL (       6 calls)
     mix_rho      :      0.01s CPU      0.01s WALL (       6 calls)

     Called by c_bands:
     init_us_2    :      0.34s CPU      0.35s WALL (     435 calls)
     cegterg      :     10.13s CPU     10.44s WALL (     174 calls)

     Called by sum_band:
     sum_band:bec :      0.00s CPU      0.00s WALL (     174 calls)
     addusdens    :      0.28s CPU      0.29s WALL (       6 calls)

     Called by *egterg:
     h_psi        :      8.63s CPU      8.95s WALL (     815 calls)
     s_psi        :      0.22s CPU      0.23s WALL (     815 calls)
     g_psi        :      0.02s CPU      0.02s WALL (     612 calls)
     cdiaghg      :      0.21s CPU      0.21s WALL (     757 calls)

     Called by h_psi:
     h_psi:pot    :      8.59s CPU      8.91s WALL (     815 calls)
     h_psi:calbec :      0.49s CPU      0.50s WALL (     815 calls)
     vloc_psi     :      7.85s CPU      8.14s WALL (     815 calls)
     add_vuspsi   :      0.25s CPU      0.26s WALL (     815 calls)

     General routines
     calbec       :      0.78s CPU      0.80s WALL (    1134 calls)
     fft          :      0.13s CPU      0.13s WALL (      93 calls)
     ffts         :      0.01s CPU      0.01s WALL (       6 calls)
     fftw         :      8.48s CPU      8.81s WALL (   10784 calls)

     Parallel routines
     fft_scatt_xy :      0.68s CPU      0.71s WALL (   10883 calls)
     fft_scatt_yz :      2.40s CPU      2.50s WALL (   10883 calls)

     PWSCF        :    16.39s CPU        16.96s WALL


   This run was terminated on:   1:21:31   8Apr2024            

=------------------------------------------------------------------------------=
   JOB DONE.
=------------------------------------------------------------------------------=
