
     Program PWSCF v.6.3MaX starts on  8Apr2024 at  1:10:29 

     This program is part of the open-source Quantum ESPRESSO suite
     for quantum simulation of materials; please cite
         "P. Giannozzi et al., J. Phys.:Condens. Matter 21 395502 (2009);
         "P. Giannozzi et al., J. Phys.:Condens. Matter 29 465901 (2017);
          URL http://www.quantum-espresso.org", 
     in publications or presentations arising from this work. More details at
     http://www.quantum-espresso.org/quote

     Parallel version (MPI), running on     5 processors

     MPI processes distributed on     1 nodes
     R & G space division:  proc/nbgrp/npool/nimage =       5
     Waiting for input...
     Reading input from standard input

     Current dimensions of program PWSCF are:
     Max number of different atomic species (ntypx) = 10
     Max number of k-points (npk) =  40000
     Max angular momentum in pseudopotentials (lmaxx) =  3
               file K.pbe-spn-rrkjus_psl.1.0.0.UPF: wavefunction(s)  3S renormalized

     Subspace diagonalization in iterative solution of the eigenvalue problem:
     a serial algorithm will be used


     Parallelization info
     --------------------
     sticks:   dense  smooth     PW     G-vecs:    dense   smooth      PW
     Min         351     351     99                 9272     9272    1421
     Max         351     351    100                 9273     9273    1422
     Sum        1755    1755    499                46361    46361    7107



     bravais-lattice index     =            3
     lattice parameter (alat)  =       9.8600  a.u.
     unit-cell volume          =     479.2926 (a.u.)^3
     number of atoms/cell      =            1
     number of atomic types    =            1
     number of electrons       =         9.00
     number of Kohn-Sham states=            9
     kinetic-energy cutoff     =      80.0000  Ry
     charge density cutoff     =     320.0000  Ry
     convergence threshold     =      1.0E-08
     mixing beta               =       0.7000
     number of iterations used =            8  plain     mixing
     Exchange-correlation      = PBE ( 1  4  3  4 0 0)

     celldm(1)=   9.860000  celldm(2)=   0.000000  celldm(3)=   0.000000
     celldm(4)=   0.000000  celldm(5)=   0.000000  celldm(6)=   0.000000

     crystal axes: (cart. coord. in units of alat)
               a(1) = (   0.500000   0.500000   0.500000 )  
               a(2) = (  -0.500000   0.500000   0.500000 )  
               a(3) = (  -0.500000  -0.500000   0.500000 )  

     reciprocal axes: (cart. coord. in units 2 pi/alat)
               b(1) = (  1.000000  0.000000  1.000000 )  
               b(2) = ( -1.000000  1.000000  0.000000 )  
               b(3) = (  0.000000 -1.000000  1.000000 )  


     PseudoPot. # 1 for K  read from file:
     /home/lorenzo/pseudos/K/K.pbe-spn-rrkjus_psl.1.0.0.UPF
     MD5 check sum: 897b700350bb708b0563e904352feb48
     Pseudo is Ultrasoft + core correction, Zval =  9.0
     Generated using "atomic" code by A. Dal Corso v.6.2.2
     Using radial grid of 1165 points,  6 beta functions with: 
                l(1) =   0
                l(2) =   0
                l(3) =   1
                l(4) =   1
                l(5) =   2
                l(6) =   2
     Q(r) pseudized with 0 coefficients 


     atomic species   valence    mass     pseudopotential
        K              9.00    39.09830     K ( 1.00)

     48 Sym. Ops., with inversion, found



   Cartesian axes

     site n.     atom                  positions (alat units)
         1           K   tau(   1) = (   0.0000000   0.0000000   0.0000000  )

     number of k points=     8  gaussian smearing, width (Ry)=  0.0100
                       cart. coord. in units 2pi/alat
        k(    1) = (   0.0000000   0.0000000   0.0000000), wk =   0.0312500
        k(    2) = (   0.0000000  -0.2500000   0.2500000), wk =   0.3750000
        k(    3) = (   0.0000000   0.5000000  -0.5000000), wk =   0.1875000
        k(    4) = (  -0.2500000   0.7500000  -0.5000000), wk =   0.7500000
        k(    5) = (   0.0000000   0.0000000   0.5000000), wk =   0.1875000
        k(    6) = (   0.0000000   0.7500000  -0.2500000), wk =   0.3750000
        k(    7) = (   0.5000000  -0.5000000   0.5000000), wk =   0.0625000
        k(    8) = (   0.0000000   0.0000000  -1.0000000), wk =   0.0312500

     Dense  grid:    46361 G-vectors     FFT dimensions: (  50,  50,  50)

     Estimated max dynamical RAM per process >      38.01 MB

     Estimated total dynamical RAM >     190.07 MB

     Initial potential from superposition of free atoms

     starting charge    8.98117, renormalised to    9.00000
     Starting wfcs are    8 randomized atomic wfcs +    1 random wfcs

     total cpu time spent up to now is        1.2 secs

     Self-consistent Calculation

     iteration #  1     ecut=    80.00 Ry     beta= 0.70
     Davidson diagonalization with overlap
     ethr =  1.00E-02,  avg # of iterations =  7.4

     Threshold (ethr) on eigenvalues was too large:
     Diagonalizing with lowered threshold

     Davidson diagonalization with overlap
     ethr =  1.48E-05,  avg # of iterations =  5.2

     total cpu time spent up to now is        2.8 secs

     total energy              =     -58.76976009 Ry
     Harris-Foulkes estimate   =     -58.77026724 Ry
     estimated scf accuracy    <       0.00126809 Ry

     iteration #  2     ecut=    80.00 Ry     beta= 0.70
     Davidson diagonalization with overlap
     ethr =  1.41E-05,  avg # of iterations =  2.1

     total cpu time spent up to now is        3.3 secs

     total energy              =     -58.76999120 Ry
     Harris-Foulkes estimate   =     -58.76999170 Ry
     estimated scf accuracy    <       0.00010229 Ry

     iteration #  3     ecut=    80.00 Ry     beta= 0.70
     Davidson diagonalization with overlap
     ethr =  1.14E-06,  avg # of iterations =  1.8

     total cpu time spent up to now is        3.8 secs

     total energy              =     -58.77000131 Ry
     Harris-Foulkes estimate   =     -58.76999854 Ry
     estimated scf accuracy    <       0.00000693 Ry

     iteration #  4     ecut=    80.00 Ry     beta= 0.70
     Davidson diagonalization with overlap
     ethr =  7.70E-08,  avg # of iterations =  1.5

     total cpu time spent up to now is        4.3 secs

     total energy              =     -58.77000181 Ry
     Harris-Foulkes estimate   =     -58.77000181 Ry
     estimated scf accuracy    <       0.00000005 Ry

     iteration #  5     ecut=    80.00 Ry     beta= 0.70
     Davidson diagonalization with overlap
     ethr =  5.40E-10,  avg # of iterations =  2.2

     total cpu time spent up to now is        4.8 secs

     End of self-consistent calculation

          k = 0.0000 0.0000 0.0000 (  5775 PWs)   bands (ev):

   -30.1636 -13.6123 -13.6123 -13.6123  -0.2620   6.2641   6.2641   7.1819
     7.1822

          k = 0.0000-0.2500 0.2500 (  5766 PWs)   bands (ev):

   -30.1612 -13.6509 -13.6252 -13.6123   0.5128   4.9034   5.5841   6.8904
     7.0051

          k = 0.0000 0.5000-0.5000 (  5788 PWs)   bands (ev):

   -30.1588 -13.6887 -13.6380 -13.6123   2.3888   2.6478   5.1204   6.8721
     7.9891

          k =-0.2500 0.7500-0.5000 (  5816 PWs)   bands (ev):

   -30.1588 -13.6747 -13.6443 -13.6202   1.9103   3.8314   4.3655   6.7979
     7.0269

          k = 0.0000 0.0000 0.5000 (  5762 PWs)   bands (ev):

   -30.1590 -13.6519 -13.6390 -13.6390   1.2364   4.8175   5.5067   5.5067
     7.0910

          k = 0.0000 0.7500-0.2500 (  5796 PWs)   bands (ev):

   -30.1569 -13.6780 -13.6527 -13.6400   2.9887   3.1108   5.2003   5.3176
     6.7718

          k = 0.5000-0.5000 0.5000 (  5828 PWs)   bands (ev):

   -30.1585 -13.6496 -13.6496 -13.6496   3.4265   3.4265   3.4265   5.1277
     7.7851

          k = 0.0000 0.0000-1.0000 (  5858 PWs)   bands (ev):

   -30.1550 -13.6673 -13.6673 -13.6673   3.5988   5.5108   5.5108   5.5108
     7.6781

     the Fermi energy is     1.9204 ev

!    total energy              =     -58.77000182 Ry
     Harris-Foulkes estimate   =     -58.77000183 Ry
     estimated scf accuracy    <          1.2E-09 Ry

     The total energy is the sum of the following terms:

     one-electron contribution =     -36.58277147 Ry
     hartree contribution      =      18.88152035 Ry
     xc contribution           =     -11.17030685 Ry
     ewald contribution        =     -29.89633970 Ry
     smearing contrib. (-TS)   =      -0.00210416 Ry

     convergence has been achieved in   5 iterations

     Forces acting on atoms (cartesian axes, Ry/au):

     atom    1 type  1   force =     0.00000000    0.00000000    0.00000000

     Total force =     0.000000     Total SCF correction =     0.000000


     Computing stress (Cartesian axis) and pressure

          total   stress  (Ry/bohr**3)                   (kbar)     P=    2.28
   0.00001547   0.00000000  -0.00000000          2.28      0.00     -0.00
   0.00000000   0.00001547   0.00000000          0.00      2.28      0.00
  -0.00000000   0.00000000   0.00001547         -0.00      0.00      2.28


     Writing output data file K.save/

     init_run     :      0.51s CPU      0.52s WALL (       1 calls)
     electrons    :      3.45s CPU      3.56s WALL (       1 calls)
     forces       :      0.19s CPU      0.19s WALL (       1 calls)
     stress       :      0.63s CPU      0.63s WALL (       1 calls)

     Called by init_run:
     wfcinit      :      0.12s CPU      0.13s WALL (       1 calls)
     potinit      :      0.04s CPU      0.05s WALL (       1 calls)
     hinit0       :      0.22s CPU      0.23s WALL (       1 calls)

     Called by electrons:
     c_bands      :      2.37s CPU      2.45s WALL (       6 calls)
     sum_band     :      0.71s CPU      0.74s WALL (       6 calls)
     v_of_rho     :      0.16s CPU      0.16s WALL (       6 calls)
     newd         :      0.26s CPU      0.27s WALL (       6 calls)
     mix_rho      :      0.01s CPU      0.01s WALL (       6 calls)

     Called by c_bands:
     init_us_2    :      0.10s CPU      0.10s WALL (     120 calls)
     cegterg      :      2.26s CPU      2.34s WALL (      48 calls)

     Called by sum_band:
     sum_band:bec :      0.00s CPU      0.00s WALL (      48 calls)
     addusdens    :      0.28s CPU      0.29s WALL (       6 calls)

     Called by *egterg:
     h_psi        :      1.91s CPU      1.98s WALL (     218 calls)
     s_psi        :      0.05s CPU      0.05s WALL (     218 calls)
     g_psi        :      0.01s CPU      0.01s WALL (     162 calls)
     cdiaghg      :      0.05s CPU      0.05s WALL (     202 calls)

     Called by h_psi:
     h_psi:pot    :      1.90s CPU      1.97s WALL (     218 calls)
     h_psi:calbec :      0.13s CPU      0.13s WALL (     218 calls)
     vloc_psi     :      1.71s CPU      1.77s WALL (     218 calls)
     add_vuspsi   :      0.06s CPU      0.06s WALL (     218 calls)

     General routines
     calbec       :      0.21s CPU      0.21s WALL (     306 calls)
     fft          :      0.14s CPU      0.15s WALL (      93 calls)
     ffts         :      0.01s CPU      0.01s WALL (       6 calls)
     fftw         :      1.87s CPU      1.95s WALL (    2886 calls)

     Parallel routines
     fft_scatt_xy :      0.14s CPU      0.15s WALL (    2985 calls)
     fft_scatt_yz :      0.61s CPU      0.64s WALL (    2985 calls)

     PWSCF        :     5.49s CPU         5.71s WALL


   This run was terminated on:   1:10:35   8Apr2024            

=------------------------------------------------------------------------------=
   JOB DONE.
=------------------------------------------------------------------------------=
