
     Program PWSCF v.6.3MaX starts on  8Apr2024 at  0:23:10 

     This program is part of the open-source Quantum ESPRESSO suite
     for quantum simulation of materials; please cite
         "P. Giannozzi et al., J. Phys.:Condens. Matter 21 395502 (2009);
         "P. Giannozzi et al., J. Phys.:Condens. Matter 29 465901 (2017);
          URL http://www.quantum-espresso.org", 
     in publications or presentations arising from this work. More details at
     http://www.quantum-espresso.org/quote

     Parallel version (MPI), running on     5 processors

     MPI processes distributed on     1 nodes
     R & G space division:  proc/nbgrp/npool/nimage =       5
     Waiting for input...
     Reading input from standard input

     Current dimensions of program PWSCF are:
     Max number of different atomic species (ntypx) = 10
     Max number of k-points (npk) =  40000
     Max angular momentum in pseudopotentials (lmaxx) =  3
               file K.pbe-spn-rrkjus_psl.1.0.0.UPF: wavefunction(s)  3S renormalized

     Subspace diagonalization in iterative solution of the eigenvalue problem:
     a serial algorithm will be used


     Parallelization info
     --------------------
     sticks:   dense  smooth     PW     G-vecs:    dense   smooth      PW
     Min         153     153     45                 2690     2690     447
     Max         154     154     46                 2691     2691     449
     Sum         769     769    229                13451    13451    2243



     bravais-lattice index     =            3
     lattice parameter (alat)  =       9.8600  a.u.
     unit-cell volume          =     479.2926 (a.u.)^3
     number of atoms/cell      =            1
     number of atomic types    =            1
     number of electrons       =         9.00
     number of Kohn-Sham states=            9
     kinetic-energy cutoff     =      35.0000  Ry
     charge density cutoff     =     140.0000  Ry
     convergence threshold     =      1.0E-08
     mixing beta               =       0.7000
     number of iterations used =            8  plain     mixing
     Exchange-correlation      = PBE ( 1  4  3  4 0 0)

     celldm(1)=   9.860000  celldm(2)=   0.000000  celldm(3)=   0.000000
     celldm(4)=   0.000000  celldm(5)=   0.000000  celldm(6)=   0.000000

     crystal axes: (cart. coord. in units of alat)
               a(1) = (   0.500000   0.500000   0.500000 )  
               a(2) = (  -0.500000   0.500000   0.500000 )  
               a(3) = (  -0.500000  -0.500000   0.500000 )  

     reciprocal axes: (cart. coord. in units 2 pi/alat)
               b(1) = (  1.000000  0.000000  1.000000 )  
               b(2) = ( -1.000000  1.000000  0.000000 )  
               b(3) = (  0.000000 -1.000000  1.000000 )  


     PseudoPot. # 1 for K  read from file:
     /home/lorenzo/pseudos/K/K.pbe-spn-rrkjus_psl.1.0.0.UPF
     MD5 check sum: 897b700350bb708b0563e904352feb48
     Pseudo is Ultrasoft + core correction, Zval =  9.0
     Generated using "atomic" code by A. Dal Corso v.6.2.2
     Using radial grid of 1165 points,  6 beta functions with: 
                l(1) =   0
                l(2) =   0
                l(3) =   1
                l(4) =   1
                l(5) =   2
                l(6) =   2
     Q(r) pseudized with 0 coefficients 


     atomic species   valence    mass     pseudopotential
        K              9.00    39.09830     K ( 1.00)

     48 Sym. Ops., with inversion, found



   Cartesian axes

     site n.     atom                  positions (alat units)
         1           K   tau(   1) = (   0.0000000   0.0000000   0.0000000  )

     number of k points=     8  gaussian smearing, width (Ry)=  0.0100
                       cart. coord. in units 2pi/alat
        k(    1) = (   0.0000000   0.0000000   0.0000000), wk =   0.0312500
        k(    2) = (   0.0000000  -0.2500000   0.2500000), wk =   0.3750000
        k(    3) = (   0.0000000   0.5000000  -0.5000000), wk =   0.1875000
        k(    4) = (  -0.2500000   0.7500000  -0.5000000), wk =   0.7500000
        k(    5) = (   0.0000000   0.0000000   0.5000000), wk =   0.1875000
        k(    6) = (   0.0000000   0.7500000  -0.2500000), wk =   0.3750000
        k(    7) = (   0.5000000  -0.5000000   0.5000000), wk =   0.0625000
        k(    8) = (   0.0000000   0.0000000  -1.0000000), wk =   0.0312500

     Dense  grid:    13451 G-vectors     FFT dimensions: (  36,  36,  36)

     Estimated max dynamical RAM per process >      12.08 MB

     Estimated total dynamical RAM >      60.40 MB

     Check: negative/imaginary core charge=   -0.000007    0.000000

     Initial potential from superposition of free atoms

     starting charge    8.98117, renormalised to    9.00000
     Starting wfcs are    8 randomized atomic wfcs +    1 random wfcs

     total cpu time spent up to now is        1.0 secs

     Self-consistent Calculation

     iteration #  1     ecut=    35.00 Ry     beta= 0.70
     Davidson diagonalization with overlap
     ethr =  1.00E-02,  avg # of iterations =  6.9

     Threshold (ethr) on eigenvalues was too large:
     Diagonalizing with lowered threshold

     Davidson diagonalization with overlap
     ethr =  1.49E-05,  avg # of iterations =  5.9

     total cpu time spent up to now is        1.4 secs

     total energy              =     -58.76782599 Ry
     Harris-Foulkes estimate   =     -58.76831902 Ry
     estimated scf accuracy    <       0.00127197 Ry

     iteration #  2     ecut=    35.00 Ry     beta= 0.70
     Davidson diagonalization with overlap
     ethr =  1.41E-05,  avg # of iterations =  2.1

     total cpu time spent up to now is        1.6 secs

     total energy              =     -58.76804899 Ry
     Harris-Foulkes estimate   =     -58.76804979 Ry
     estimated scf accuracy    <       0.00009992 Ry

     iteration #  3     ecut=    35.00 Ry     beta= 0.70
     Davidson diagonalization with overlap
     ethr =  1.11E-06,  avg # of iterations =  2.5

     total cpu time spent up to now is        1.8 secs

     total energy              =     -58.76805862 Ry
     Harris-Foulkes estimate   =     -58.76805611 Ry
     estimated scf accuracy    <       0.00000661 Ry

     iteration #  4     ecut=    35.00 Ry     beta= 0.70
     Davidson diagonalization with overlap
     ethr =  7.35E-08,  avg # of iterations =  1.5

     total cpu time spent up to now is        1.9 secs

     total energy              =     -58.76805910 Ry
     Harris-Foulkes estimate   =     -58.76805909 Ry
     estimated scf accuracy    <       0.00000005 Ry

     iteration #  5     ecut=    35.00 Ry     beta= 0.70
     Davidson diagonalization with overlap
     ethr =  5.03E-10,  avg # of iterations =  2.5

     total cpu time spent up to now is        2.1 secs

     End of self-consistent calculation

          k = 0.0000 0.0000 0.0000 (  1721 PWs)   bands (ev):

   -30.1583 -13.6094 -13.6094 -13.6094  -0.2617   6.2657   6.2657   6.2657
     7.1837

          k = 0.0000-0.2500 0.2500 (  1669 PWs)   bands (ev):

   -30.1556 -13.6480 -13.6222 -13.6093   0.5132   4.9045   5.5858   6.8922
     7.0073

          k = 0.0000 0.5000-0.5000 (  1674 PWs)   bands (ev):

   -30.1532 -13.6858 -13.6350 -13.6093   2.3890   2.6488   5.1220   6.8733
     7.9898

          k =-0.2500 0.7500-0.5000 (  1671 PWs)   bands (ev):

   -30.1532 -13.6718 -13.6413 -13.6172   1.9109   3.8323   4.3663   6.7979
     7.0289

          k = 0.0000 0.0000 0.5000 (  1681 PWs)   bands (ev):

   -30.1535 -13.6490 -13.6360 -13.6360   1.2369   4.8187   5.5077   5.5077
     7.0921

          k = 0.0000 0.7500-0.2500 (  1684 PWs)   bands (ev):

   -30.1513 -13.6751 -13.6497 -13.6371   2.9897   3.1113   5.2008   5.3186
     6.7732

          k = 0.5000-0.5000 0.5000 (  1664 PWs)   bands (ev):

   -30.1529 -13.6466 -13.6466 -13.6466   3.4274   3.4274   3.4274   5.1262
     7.7882

          k = 0.0000 0.0000-1.0000 (  1686 PWs)   bands (ev):

   -30.1495 -13.6644 -13.6644 -13.6644   3.5999   3.5999   5.5113   5.5113
     5.5113

     the Fermi energy is     1.9209 ev

!    total energy              =     -58.76805910 Ry
     Harris-Foulkes estimate   =     -58.76805910 Ry
     estimated scf accuracy    <          7.7E-10 Ry

     The total energy is the sum of the following terms:

     one-electron contribution =     -36.57923923 Ry
     hartree contribution      =      18.88040004 Ry
     xc contribution           =     -11.17077600 Ry
     ewald contribution        =     -29.89633975 Ry
     smearing contrib. (-TS)   =      -0.00210416 Ry

     convergence has been achieved in   5 iterations

     Forces acting on atoms (cartesian axes, Ry/au):

     atom    1 type  1   force =     0.00000000    0.00000000    0.00000000

     Total force =     0.000000     Total SCF correction =     0.000000


     Computing stress (Cartesian axis) and pressure

          total   stress  (Ry/bohr**3)                   (kbar)     P=    2.14
   0.00001455   0.00000000   0.00000000          2.14      0.00      0.00
   0.00000000   0.00001455  -0.00000000          0.00      2.14     -0.00
   0.00000000  -0.00000000   0.00001455          0.00     -0.00      2.14


     Writing output data file K.save/

     init_run     :      0.21s CPU      0.22s WALL (       1 calls)
     electrons    :      1.05s CPU      1.12s WALL (       1 calls)
     forces       :      0.04s CPU      0.04s WALL (       1 calls)
     stress       :      0.15s CPU      0.15s WALL (       1 calls)

     Called by init_run:
     wfcinit      :      0.04s CPU      0.04s WALL (       1 calls)
     potinit      :      0.01s CPU      0.02s WALL (       1 calls)
     hinit0       :      0.14s CPU      0.14s WALL (       1 calls)

     Called by electrons:
     c_bands      :      0.72s CPU      0.77s WALL (       6 calls)
     sum_band     :      0.20s CPU      0.22s WALL (       6 calls)
     v_of_rho     :      0.06s CPU      0.06s WALL (       6 calls)
     newd         :      0.08s CPU      0.08s WALL (       6 calls)
     mix_rho      :      0.00s CPU      0.00s WALL (       6 calls)

     Called by c_bands:
     init_us_2    :      0.03s CPU      0.03s WALL (     120 calls)
     cegterg      :      0.69s CPU      0.73s WALL (      48 calls)

     Called by sum_band:
     sum_band:bec :      0.00s CPU      0.00s WALL (      48 calls)
     addusdens    :      0.08s CPU      0.08s WALL (       6 calls)

     Called by *egterg:
     h_psi        :      0.57s CPU      0.61s WALL (     227 calls)
     s_psi        :      0.02s CPU      0.02s WALL (     227 calls)
     g_psi        :      0.00s CPU      0.00s WALL (     171 calls)
     cdiaghg      :      0.04s CPU      0.05s WALL (     211 calls)

     Called by h_psi:
     h_psi:pot    :      0.56s CPU      0.61s WALL (     227 calls)
     h_psi:calbec :      0.03s CPU      0.03s WALL (     227 calls)
     vloc_psi     :      0.52s CPU      0.56s WALL (     227 calls)
     add_vuspsi   :      0.02s CPU      0.02s WALL (     227 calls)

     General routines
     calbec       :      0.04s CPU      0.04s WALL (     315 calls)
     fft          :      0.04s CPU      0.04s WALL (      93 calls)
     ffts         :      0.00s CPU      0.00s WALL (       6 calls)
     fftw         :      0.57s CPU      0.61s WALL (    2894 calls)

     Parallel routines
     fft_scatt_xy :      0.05s CPU      0.05s WALL (    2993 calls)
     fft_scatt_yz :      0.18s CPU      0.19s WALL (    2993 calls)

     PWSCF        :     2.21s CPU         2.34s WALL


   This run was terminated on:   0:23:13   8Apr2024            

=------------------------------------------------------------------------------=
   JOB DONE.
=------------------------------------------------------------------------------=
