
     Program PWSCF v.6.3MaX starts on  8Apr2024 at  0:11:28 

     This program is part of the open-source Quantum ESPRESSO suite
     for quantum simulation of materials; please cite
         "P. Giannozzi et al., J. Phys.:Condens. Matter 21 395502 (2009);
         "P. Giannozzi et al., J. Phys.:Condens. Matter 29 465901 (2017);
          URL http://www.quantum-espresso.org", 
     in publications or presentations arising from this work. More details at
     http://www.quantum-espresso.org/quote

     Parallel version (MPI), running on     5 processors

     MPI processes distributed on     1 nodes
     R & G space division:  proc/nbgrp/npool/nimage =       5
     Waiting for input...
     Reading input from standard input

     Current dimensions of program PWSCF are:
     Max number of different atomic species (ntypx) = 10
     Max number of k-points (npk) =  40000
     Max angular momentum in pseudopotentials (lmaxx) =  3
               file K.pbe-spn-rrkjus_psl.1.0.0.UPF: wavefunction(s)  3S renormalized

     Subspace diagonalization in iterative solution of the eigenvalue problem:
     a serial algorithm will be used


     Parallelization info
     --------------------
     sticks:   dense  smooth     PW     G-vecs:    dense   smooth      PW
     Min          43      43     15                  417      417      85
     Max          44      44     16                  420      420      86
     Sum         219     219     77                 2093     2093     429



     bravais-lattice index     =            3
     lattice parameter (alat)  =       9.8600  a.u.
     unit-cell volume          =     479.2926 (a.u.)^3
     number of atoms/cell      =            1
     number of atomic types    =            1
     number of electrons       =         9.00
     number of Kohn-Sham states=            9
     kinetic-energy cutoff     =      10.0000  Ry
     charge density cutoff     =      40.0000  Ry
     convergence threshold     =      1.0E-08
     mixing beta               =       0.7000
     number of iterations used =            8  plain     mixing
     Exchange-correlation      = PBE ( 1  4  3  4 0 0)

     celldm(1)=   9.860000  celldm(2)=   0.000000  celldm(3)=   0.000000
     celldm(4)=   0.000000  celldm(5)=   0.000000  celldm(6)=   0.000000

     crystal axes: (cart. coord. in units of alat)
               a(1) = (   0.500000   0.500000   0.500000 )  
               a(2) = (  -0.500000   0.500000   0.500000 )  
               a(3) = (  -0.500000  -0.500000   0.500000 )  

     reciprocal axes: (cart. coord. in units 2 pi/alat)
               b(1) = (  1.000000  0.000000  1.000000 )  
               b(2) = ( -1.000000  1.000000  0.000000 )  
               b(3) = (  0.000000 -1.000000  1.000000 )  


     PseudoPot. # 1 for K  read from file:
     /home/lorenzo/pseudos/K/K.pbe-spn-rrkjus_psl.1.0.0.UPF
     MD5 check sum: 897b700350bb708b0563e904352feb48
     Pseudo is Ultrasoft + core correction, Zval =  9.0
     Generated using "atomic" code by A. Dal Corso v.6.2.2
     Using radial grid of 1165 points,  6 beta functions with: 
                l(1) =   0
                l(2) =   0
                l(3) =   1
                l(4) =   1
                l(5) =   2
                l(6) =   2
     Q(r) pseudized with 0 coefficients 


     atomic species   valence    mass     pseudopotential
        K              9.00    39.09830     K ( 1.00)

     48 Sym. Ops., with inversion, found



   Cartesian axes

     site n.     atom                  positions (alat units)
         1           K   tau(   1) = (   0.0000000   0.0000000   0.0000000  )

     number of k points=    10  gaussian smearing, width (Ry)=  0.0100
                       cart. coord. in units 2pi/alat
        k(    1) = (   0.0000000   0.0000000   0.0000000), wk =   0.0160000
        k(    2) = (   0.0000000  -0.2000000   0.2000000), wk =   0.1920000
        k(    3) = (   0.0000000  -0.4000000   0.4000000), wk =   0.1920000
        k(    4) = (  -0.2000000  -0.2000000   0.4000000), wk =   0.3840000
        k(    5) = (  -0.2000000   0.6000000  -0.4000000), wk =   0.3840000
        k(    6) = (   0.0000000   0.0000000   0.4000000), wk =   0.0960000
        k(    7) = (   0.0000000  -0.2000000   0.6000000), wk =   0.3840000
        k(    8) = (  -0.2000000   0.8000000  -0.2000000), wk =   0.1280000
        k(    9) = (   0.6000000  -0.6000000   0.4000000), wk =   0.1280000
        k(   10) = (   0.0000000   0.0000000   0.8000000), wk =   0.0960000

     Dense  grid:     2093 G-vectors     FFT dimensions: (  18,  18,  18)

     Estimated max dynamical RAM per process >       2.44 MB

     Estimated total dynamical RAM >      12.20 MB

     Check: negative/imaginary core charge=   -0.001484    0.000000

     Initial potential from superposition of free atoms
     Check: negative starting charge=   -0.000337

     starting charge    8.98117, renormalised to    9.00000

     negative rho (up, down):  3.372E-04 0.000E+00
     Starting wfcs are    8 randomized atomic wfcs +    1 random wfcs

     total cpu time spent up to now is        0.8 secs

     Self-consistent Calculation

     iteration #  1     ecut=    10.00 Ry     beta= 0.70
     Davidson diagonalization with overlap
     ethr =  1.00E-02,  avg # of iterations =  6.9

     total cpu time spent up to now is        0.9 secs

     total energy              =     -57.32371366 Ry
     Harris-Foulkes estimate   =     -57.57385274 Ry
     estimated scf accuracy    <       0.38682039 Ry

     iteration #  2     ecut=    10.00 Ry     beta= 0.70
     Davidson diagonalization with overlap
     ethr =  4.30E-03,  avg # of iterations =  2.0

     total cpu time spent up to now is        0.9 secs

     total energy              =     -57.39069082 Ry
     Harris-Foulkes estimate   =     -57.39310629 Ry
     estimated scf accuracy    <       0.00977786 Ry

     iteration #  3     ecut=    10.00 Ry     beta= 0.70
     Davidson diagonalization with overlap
     ethr =  1.09E-04,  avg # of iterations =  2.6

     total cpu time spent up to now is        0.9 secs

     total energy              =     -57.39095871 Ry
     Harris-Foulkes estimate   =     -57.39110744 Ry
     estimated scf accuracy    <       0.00071910 Ry

     iteration #  4     ecut=    10.00 Ry     beta= 0.70
     Davidson diagonalization with overlap
     ethr =  7.99E-06,  avg # of iterations =  4.0

     total cpu time spent up to now is        1.0 secs

     total energy              =     -57.39097317 Ry
     Harris-Foulkes estimate   =     -57.39097802 Ry
     estimated scf accuracy    <       0.00000234 Ry

     iteration #  5     ecut=    10.00 Ry     beta= 0.70
     Davidson diagonalization with overlap
     ethr =  2.60E-08,  avg # of iterations =  2.1

     total cpu time spent up to now is        1.0 secs

     total energy              =     -57.39097464 Ry
     Harris-Foulkes estimate   =     -57.39097429 Ry
     estimated scf accuracy    <       0.00000022 Ry

     iteration #  6     ecut=    10.00 Ry     beta= 0.70
     Davidson diagonalization with overlap
     ethr =  2.48E-09,  avg # of iterations =  2.1

     total cpu time spent up to now is        1.1 secs

     End of self-consistent calculation

          k = 0.0000 0.0000 0.0000 (   249 PWs)   bands (ev):

   -34.1391 -13.1653 -13.1653 -13.1653  -1.0158   6.7008   6.7008   6.7008
     7.9030

          k = 0.0000-0.2000 0.2000 (   259 PWs)   bands (ev):

   -34.1577 -13.6705 -13.3073 -13.2906  -0.4797   5.2559   5.9337   7.0926
     7.4639

          k = 0.0000-0.4000 0.4000 (   255 PWs)   bands (ev):

   -34.1534 -13.4374 -13.3664 -13.3547   0.9847   3.0661   5.1928   7.2855
     7.4180

          k =-0.2000-0.2000 0.4000 (   254 PWs)   bands (ev):

   -34.1506 -13.5045 -13.3494 -13.1974   0.5283   4.1282   4.6601   6.9472
     7.3643

          k =-0.2000 0.6000-0.4000 (   266 PWs)   bands (ev):

   -34.1738 -13.7299 -13.7248 -13.5061   2.1755   2.3792   4.0906   6.3698
     7.7887

          k = 0.0000 0.0000 0.4000 (   257 PWs)   bands (ev):

   -34.1576 -13.7065 -13.2746 -13.2746   0.0331   5.2172   5.6171   5.6171
     7.4886

          k = 0.0000-0.2000 0.6000 (   255 PWs)   bands (ev):

   -34.1558 -13.5449 -13.3937 -13.3056   1.4530   3.3606   5.2311   5.3418
     7.2134

          k =-0.2000 0.8000-0.2000 (   249 PWs)   bands (ev):

   -34.1469 -13.4838 -13.2124 -13.2124   2.9075   2.9075   3.5018   6.4741
     6.4742

          k = 0.6000-0.6000 0.4000 (   258 PWs)   bands (ev):

   -34.1571 -13.4828 -13.4345 -13.4345   1.8989   3.5140   3.5140   4.9930
     8.8918

          k = 0.0000 0.0000 0.8000 (   245 PWs)   bands (ev):

   -34.1445 -13.3799 -13.1790 -13.1790   2.6011   3.5342   5.1625   5.1625
     5.1819

     the Fermi energy is     1.4060 ev

!    total energy              =     -57.39097479 Ry
     Harris-Foulkes estimate   =     -57.39097474 Ry
     estimated scf accuracy    <          2.6E-09 Ry

     The total energy is the sum of the following terms:

     one-electron contribution =     -33.40908708 Ry
     hartree contribution      =      16.79106064 Ry
     xc contribution           =     -10.87564732 Ry
     ewald contribution        =     -29.89633971 Ry
     smearing contrib. (-TS)   =      -0.00096132 Ry

     convergence has been achieved in   6 iterations

     Forces acting on atoms (cartesian axes, Ry/au):

     atom    1 type  1   force =     0.00000000    0.00000000    0.00000000

     Total force =     0.000000     Total SCF correction =     0.000000


     Computing stress (Cartesian axis) and pressure

          total   stress  (Ry/bohr**3)                   (kbar)     P= -782.01
  -0.00531602  -0.00000000   0.00000000       -782.01     -0.00      0.00
  -0.00000000  -0.00531602  -0.00000000         -0.00   -782.01     -0.00
   0.00000000  -0.00000000  -0.00531602          0.00     -0.00   -782.01


     Writing output data file K.save/

     init_run     :      0.08s CPU      0.08s WALL (       1 calls)
     electrons    :      0.27s CPU      0.31s WALL (       1 calls)
     forces       :      0.01s CPU      0.01s WALL (       1 calls)
     stress       :      0.03s CPU      0.03s WALL (       1 calls)

     Called by init_run:
     wfcinit      :      0.01s CPU      0.01s WALL (       1 calls)
     potinit      :      0.00s CPU      0.00s WALL (       1 calls)
     hinit0       :      0.06s CPU      0.06s WALL (       1 calls)

     Called by electrons:
     c_bands      :      0.21s CPU      0.23s WALL (       6 calls)
     sum_band     :      0.04s CPU      0.04s WALL (       6 calls)
     v_of_rho     :      0.01s CPU      0.01s WALL (       7 calls)
     newd         :      0.01s CPU      0.01s WALL (       7 calls)
     mix_rho      :      0.00s CPU      0.00s WALL (       6 calls)

     Called by c_bands:
     init_us_2    :      0.01s CPU      0.01s WALL (     150 calls)
     cegterg      :      0.20s CPU      0.22s WALL (      60 calls)

     Called by sum_band:
     sum_band:bec :      0.00s CPU      0.00s WALL (      60 calls)
     addusdens    :      0.01s CPU      0.01s WALL (       6 calls)

     Called by *egterg:
     h_psi        :      0.13s CPU      0.15s WALL (     267 calls)
     s_psi        :      0.00s CPU      0.00s WALL (     267 calls)
     g_psi        :      0.00s CPU      0.00s WALL (     197 calls)
     cdiaghg      :      0.04s CPU      0.05s WALL (     257 calls)

     Called by h_psi:
     h_psi:pot    :      0.13s CPU      0.15s WALL (     267 calls)
     h_psi:calbec :      0.01s CPU      0.01s WALL (     267 calls)
     vloc_psi     :      0.12s CPU      0.13s WALL (     267 calls)
     add_vuspsi   :      0.00s CPU      0.00s WALL (     267 calls)

     General routines
     calbec       :      0.01s CPU      0.01s WALL (     377 calls)
     fft          :      0.01s CPU      0.01s WALL (     103 calls)
     ffts         :      0.00s CPU      0.00s WALL (       6 calls)
     fftw         :      0.12s CPU      0.14s WALL (    3642 calls)

     Parallel routines
     fft_scatt_xy :      0.01s CPU      0.01s WALL (    3751 calls)
     fft_scatt_yz :      0.04s CPU      0.05s WALL (    3751 calls)

     PWSCF        :     1.09s CPU         1.17s WALL


   This run was terminated on:   0:11:29   8Apr2024            

=------------------------------------------------------------------------------=
   JOB DONE.
=------------------------------------------------------------------------------=
