
     Program PWSCF v.6.3MaX starts on  8Apr2024 at  0:15:43 

     This program is part of the open-source Quantum ESPRESSO suite
     for quantum simulation of materials; please cite
         "P. Giannozzi et al., J. Phys.:Condens. Matter 21 395502 (2009);
         "P. Giannozzi et al., J. Phys.:Condens. Matter 29 465901 (2017);
          URL http://www.quantum-espresso.org", 
     in publications or presentations arising from this work. More details at
     http://www.quantum-espresso.org/quote

     Parallel version (MPI), running on     5 processors

     MPI processes distributed on     1 nodes
     R & G space division:  proc/nbgrp/npool/nimage =       5
     Waiting for input...
     Reading input from standard input

     Current dimensions of program PWSCF are:
     Max number of different atomic species (ntypx) = 10
     Max number of k-points (npk) =  40000
     Max angular momentum in pseudopotentials (lmaxx) =  3
               file K.pz-spn-rrkjus_psl.1.0.0.UPF: wavefunction(s)  3S renormalized

     Subspace diagonalization in iterative solution of the eigenvalue problem:
     a serial algorithm will be used


     Parallelization info
     --------------------
     sticks:   dense  smooth     PW     G-vecs:    dense   smooth      PW
     Min          87      87     27                 1155     1155     212
     Max          88      88     28                 1155     1155     213
     Sum         437     437    139                 5775     5775    1061



     bravais-lattice index     =            3
     lattice parameter (alat)  =       9.8600  a.u.
     unit-cell volume          =     479.2926 (a.u.)^3
     number of atoms/cell      =            1
     number of atomic types    =            1
     number of electrons       =         9.00
     number of Kohn-Sham states=            9
     kinetic-energy cutoff     =      20.0000  Ry
     charge density cutoff     =      80.0000  Ry
     convergence threshold     =      1.0E-08
     mixing beta               =       0.7000
     number of iterations used =            8  plain     mixing
     Exchange-correlation      = LDA ( 1  1  0  0 0 0)

     celldm(1)=   9.860000  celldm(2)=   0.000000  celldm(3)=   0.000000
     celldm(4)=   0.000000  celldm(5)=   0.000000  celldm(6)=   0.000000

     crystal axes: (cart. coord. in units of alat)
               a(1) = (   0.500000   0.500000   0.500000 )  
               a(2) = (  -0.500000   0.500000   0.500000 )  
               a(3) = (  -0.500000  -0.500000   0.500000 )  

     reciprocal axes: (cart. coord. in units 2 pi/alat)
               b(1) = (  1.000000  0.000000  1.000000 )  
               b(2) = ( -1.000000  1.000000  0.000000 )  
               b(3) = (  0.000000 -1.000000  1.000000 )  


     PseudoPot. # 1 for K  read from file:
     /home/lorenzo/pseudos/K/K.pz-spn-rrkjus_psl.1.0.0.UPF
     MD5 check sum: af434a66a3b91719abff201b8f79bb09
     Pseudo is Ultrasoft + core correction, Zval =  9.0
     Generated using "atomic" code by A. Dal Corso v.6.2.2
     Using radial grid of 1165 points,  6 beta functions with: 
                l(1) =   0
                l(2) =   0
                l(3) =   1
                l(4) =   1
                l(5) =   2
                l(6) =   2
     Q(r) pseudized with 0 coefficients 


     atomic species   valence    mass     pseudopotential
        K              9.00    39.09830     K ( 1.00)

     48 Sym. Ops., with inversion, found



   Cartesian axes

     site n.     atom                  positions (alat units)
         1           K   tau(   1) = (   0.0000000   0.0000000   0.0000000  )

     number of k points=    16  gaussian smearing, width (Ry)=  0.0100
                       cart. coord. in units 2pi/alat
        k(    1) = (   0.0000000   0.0000000   0.0000000), wk =   0.0092593
        k(    2) = (   0.0000000  -0.1666667   0.1666667), wk =   0.1111111
        k(    3) = (   0.0000000  -0.3333333   0.3333333), wk =   0.1111111
        k(    4) = (   0.0000000   0.5000000  -0.5000000), wk =   0.0555556
        k(    5) = (  -0.1666667  -0.1666667   0.3333333), wk =   0.2222222
        k(    6) = (  -0.1666667   0.6666667  -0.5000000), wk =   0.4444444
        k(    7) = (  -0.3333333   0.6666667  -0.3333333), wk =   0.0740741
        k(    8) = (   0.0000000   0.0000000   0.3333333), wk =   0.0555556
        k(    9) = (   0.0000000  -0.1666667   0.5000000), wk =   0.2222222
        k(   10) = (   0.0000000   0.6666667  -0.3333333), wk =   0.1111111
        k(   11) = (  -0.1666667   0.8333333  -0.3333333), wk =   0.2222222
        k(   12) = (   0.6666667  -0.6666667   0.3333333), wk =   0.0740741
        k(   13) = (   0.5000000  -0.5000000   0.3333333), wk =   0.1111111
        k(   14) = (   0.0000000   0.0000000   0.6666667), wk =   0.0555556
        k(   15) = (   0.0000000   0.8333333  -0.1666667), wk =   0.1111111
        k(   16) = (   0.0000000   0.0000000  -1.0000000), wk =   0.0092593

     Dense  grid:     5775 G-vectors     FFT dimensions: (  25,  25,  25)

     Estimated max dynamical RAM per process >       5.74 MB

     Estimated total dynamical RAM >      28.70 MB

     Check: negative/imaginary core charge=   -0.000042    0.000000

     Initial potential from superposition of free atoms

     starting charge    8.98437, renormalised to    9.00000
     Starting wfcs are    8 randomized atomic wfcs +    1 random wfcs

     total cpu time spent up to now is        1.3 secs

     Self-consistent Calculation

     iteration #  1     ecut=    20.00 Ry     beta= 0.70
     Davidson diagonalization with overlap
     ethr =  1.00E-02,  avg # of iterations =  7.5

     Threshold (ethr) on eigenvalues was too large:
     Diagonalizing with lowered threshold

     Davidson diagonalization with overlap
     ethr =  6.35E-05,  avg # of iterations =  4.7

     total cpu time spent up to now is        1.7 secs

     total energy              =     -58.65009877 Ry
     Harris-Foulkes estimate   =     -58.65372836 Ry
     estimated scf accuracy    <       0.00592163 Ry

     iteration #  2     ecut=    20.00 Ry     beta= 0.70
     Davidson diagonalization with overlap
     ethr =  6.58E-05,  avg # of iterations =  2.0

     total cpu time spent up to now is        1.8 secs

     total energy              =     -58.65134889 Ry
     Harris-Foulkes estimate   =     -58.65145670 Ry
     estimated scf accuracy    <       0.00041648 Ry

     iteration #  3     ecut=    20.00 Ry     beta= 0.70
     Davidson diagonalization with overlap
     ethr =  4.63E-06,  avg # of iterations =  2.4

     total cpu time spent up to now is        2.0 secs

     total energy              =     -58.65138728 Ry
     Harris-Foulkes estimate   =     -58.65138593 Ry
     estimated scf accuracy    <       0.00002531 Ry

     iteration #  4     ecut=    20.00 Ry     beta= 0.70
     Davidson diagonalization with overlap
     ethr =  2.81E-07,  avg # of iterations =  1.4

     total cpu time spent up to now is        2.1 secs

     total energy              =     -58.65138820 Ry
     Harris-Foulkes estimate   =     -58.65138819 Ry
     estimated scf accuracy    <       0.00000003 Ry

     iteration #  5     ecut=    20.00 Ry     beta= 0.70
     Davidson diagonalization with overlap
     ethr =  2.87E-10,  avg # of iterations =  2.9

     total cpu time spent up to now is        2.2 secs

     End of self-consistent calculation

          k = 0.0000 0.0000 0.0000 (   683 PWs)   bands (ev):

   -30.3251 -13.6672 -13.6672 -13.6672  -0.4813   6.1640   6.1640   6.1640
     7.1479

          k = 0.0000-0.1667 0.1667 (   708 PWs)   bands (ev):

   -30.3239 -13.7378 -13.6940 -13.6853  -0.1264   5.4890   5.7602   6.4106
     6.8670

          k = 0.0000-0.3333 0.3333 (   714 PWs)   bands (ev):

   -30.3214 -13.7799 -13.7121 -13.6924   0.8699   3.9582   5.1930   6.9317
     7.2130

          k = 0.0000 0.5000-0.5000 (   726 PWs)   bands (ev):

   -30.3202 -13.8228 -13.7375 -13.6962   2.1579   2.5025   4.9656   6.7194
     7.8523

          k =-0.1667-0.1667 0.3333 (   721 PWs)   bands (ev):

   -30.3220 -13.7649 -13.7227 -13.7117   0.5513   4.6452   5.0293   6.7166
     6.7721

          k =-0.1667 0.6667-0.5000 (   727 PWs)   bands (ev):

   -30.3202 -13.7961 -13.7446 -13.7210   1.7783   3.3030   4.5205   6.4747
     7.1866

          k =-0.3333 0.6667-0.3333 (   727 PWs)   bands (ev):

   -30.3195 -13.7769 -13.7769 -13.7278   3.0085   3.0085   3.3278   6.3234
     7.2467

          k = 0.0000 0.0000 0.3333 (   707 PWs)   bands (ev):

   -30.3227 -13.7187 -13.7096 -13.7096   0.2196   5.5952   5.5952   5.5968
     6.5545

          k = 0.0000-0.1667 0.5000 (   722 PWs)   bands (ev):

   -30.3204 -13.7814 -13.7306 -13.7259   1.1875   4.1061   5.2221   5.7081
     7.2558

          k = 0.0000 0.6667-0.3333 (   732 PWs)   bands (ev):

   -30.3192 -13.8075 -13.7496 -13.7411   2.5193   2.6562   5.0509   5.5281
     7.1444

          k =-0.1667 0.8333-0.3333 (   733 PWs)   bands (ev):

   -30.3187 -13.7964 -13.7686 -13.7450   2.3308   3.5057   4.1826   6.0745
     6.5505

          k = 0.6667-0.6667 0.3333 (   736 PWs)   bands (ev):

   -30.3207 -13.8110 -13.7374 -13.7374   1.4949   4.0662   4.0662   6.0848
     7.4849

          k = 0.5000-0.5000 0.3333 (   724 PWs)   bands (ev):

   -30.3200 -13.7860 -13.7573 -13.7175   2.8403   2.8444   3.8848   5.3908
     7.6000

          k = 0.0000 0.0000 0.6667 (   735 PWs)   bands (ev):

   -30.3183 -13.8085 -13.7586 -13.7586   2.0518   4.0243   5.2340   5.2340
     5.8341

          k = 0.0000 0.8333-0.1667 (   724 PWs)   bands (ev):

   -30.3172 -13.7794 -13.7661 -13.7599   3.0941   3.2993   4.7953   5.2227
     6.0176

          k = 0.0000 0.0000-1.0000 (   736 PWs)   bands (ev):

   -30.3163 -13.7874 -13.7874 -13.7874   3.4684   5.3011   5.3011   5.3011
     7.2287

     the Fermi energy is     1.7632 ev

!    total energy              =     -58.65138823 Ry
     Harris-Foulkes estimate   =     -58.65138823 Ry
     estimated scf accuracy    <          2.0E-09 Ry

     The total energy is the sum of the following terms:

     one-electron contribution =     -36.48554632 Ry
     hartree contribution      =      18.71938639 Ry
     xc contribution           =     -10.98764407 Ry
     ewald contribution        =     -29.89633972 Ry
     smearing contrib. (-TS)   =      -0.00124452 Ry

     convergence has been achieved in   5 iterations

     Forces acting on atoms (cartesian axes, Ry/au):

     atom    1 type  1   force =     0.00000000    0.00000000    0.00000000

     Total force =     0.000000     Total SCF correction =     0.000000


     Computing stress (Cartesian axis) and pressure

          total   stress  (Ry/bohr**3)                   (kbar)     P= -119.46
  -0.00081205  -0.00000000   0.00000000       -119.46     -0.00      0.00
  -0.00000000  -0.00081205  -0.00000000         -0.00   -119.46     -0.00
   0.00000000  -0.00000000  -0.00081205          0.00     -0.00   -119.46


     Writing output data file K.save/

     init_run     :      0.20s CPU      0.20s WALL (       1 calls)
     electrons    :      0.89s CPU      0.94s WALL (       1 calls)
     forces       :      0.02s CPU      0.02s WALL (       1 calls)
     stress       :      0.07s CPU      0.08s WALL (       1 calls)

     Called by init_run:
     wfcinit      :      0.05s CPU      0.06s WALL (       1 calls)
     potinit      :      0.00s CPU      0.00s WALL (       1 calls)
     hinit0       :      0.13s CPU      0.13s WALL (       1 calls)

     Called by electrons:
     c_bands      :      0.70s CPU      0.74s WALL (       6 calls)
     sum_band     :      0.15s CPU      0.16s WALL (       6 calls)
     v_of_rho     :      0.00s CPU      0.00s WALL (       6 calls)
     newd         :      0.04s CPU      0.04s WALL (       6 calls)
     mix_rho      :      0.00s CPU      0.00s WALL (       6 calls)

     Called by c_bands:
     init_us_2    :      0.03s CPU      0.03s WALL (     240 calls)
     cegterg      :      0.67s CPU      0.71s WALL (      96 calls)

     Called by sum_band:
     sum_band:bec :      0.00s CPU      0.00s WALL (      96 calls)
     addusdens    :      0.03s CPU      0.04s WALL (       6 calls)

     Called by *egterg:
     h_psi        :      0.51s CPU      0.54s WALL (     446 calls)
     s_psi        :      0.02s CPU      0.02s WALL (     446 calls)
     g_psi        :      0.00s CPU      0.00s WALL (     334 calls)
     cdiaghg      :      0.09s CPU      0.09s WALL (     414 calls)

     Called by h_psi:
     h_psi:pot    :      0.51s CPU      0.54s WALL (     446 calls)
     h_psi:calbec :      0.03s CPU      0.03s WALL (     446 calls)
     vloc_psi     :      0.46s CPU      0.49s WALL (     446 calls)
     add_vuspsi   :      0.02s CPU      0.02s WALL (     446 calls)

     General routines
     calbec       :      0.04s CPU      0.04s WALL (     622 calls)
     fft          :      0.01s CPU      0.01s WALL (      34 calls)
     ffts         :      0.00s CPU      0.00s WALL (       6 calls)
     fftw         :      0.51s CPU      0.54s WALL (    5870 calls)

     Parallel routines
     fft_scatt_xy :      0.04s CPU      0.04s WALL (    5910 calls)
     fft_scatt_yz :      0.13s CPU      0.14s WALL (    5910 calls)

     PWSCF        :     2.25s CPU         2.35s WALL


   This run was terminated on:   0:15:45   8Apr2024            

=------------------------------------------------------------------------------=
   JOB DONE.
=------------------------------------------------------------------------------=
