
     Program PWSCF v.6.3MaX starts on  8Apr2024 at  1:36:55 

     This program is part of the open-source Quantum ESPRESSO suite
     for quantum simulation of materials; please cite
         "P. Giannozzi et al., J. Phys.:Condens. Matter 21 395502 (2009);
         "P. Giannozzi et al., J. Phys.:Condens. Matter 29 465901 (2017);
          URL http://www.quantum-espresso.org", 
     in publications or presentations arising from this work. More details at
     http://www.quantum-espresso.org/quote

     Parallel version (MPI), running on     5 processors

     MPI processes distributed on     1 nodes
     R & G space division:  proc/nbgrp/npool/nimage =       5
     Waiting for input...
     Reading input from standard input

     Current dimensions of program PWSCF are:
     Max number of different atomic species (ntypx) = 10
     Max number of k-points (npk) =  40000
     Max angular momentum in pseudopotentials (lmaxx) =  3
               file K.pbe-spn-rrkjus_psl.1.0.0.UPF: wavefunction(s)  3S renormalized

     Subspace diagonalization in iterative solution of the eigenvalue problem:
     a serial algorithm will be used


     Parallelization info
     --------------------
     sticks:   dense  smooth     PW     G-vecs:    dense   smooth      PW
     Min         417     417    117                12009    12009    1789
     Max         417     417    118                12010    12010    1790
     Sum        2085    2085    587                60047    60047    8949



     bravais-lattice index     =            3
     lattice parameter (alat)  =       9.8600  a.u.
     unit-cell volume          =     479.2926 (a.u.)^3
     number of atoms/cell      =            1
     number of atomic types    =            1
     number of electrons       =         9.00
     number of Kohn-Sham states=            9
     kinetic-energy cutoff     =      95.0000  Ry
     charge density cutoff     =     380.0000  Ry
     convergence threshold     =      1.0E-08
     mixing beta               =       0.7000
     number of iterations used =            8  plain     mixing
     Exchange-correlation      = PBE ( 1  4  3  4 0 0)

     celldm(1)=   9.860000  celldm(2)=   0.000000  celldm(3)=   0.000000
     celldm(4)=   0.000000  celldm(5)=   0.000000  celldm(6)=   0.000000

     crystal axes: (cart. coord. in units of alat)
               a(1) = (   0.500000   0.500000   0.500000 )  
               a(2) = (  -0.500000   0.500000   0.500000 )  
               a(3) = (  -0.500000  -0.500000   0.500000 )  

     reciprocal axes: (cart. coord. in units 2 pi/alat)
               b(1) = (  1.000000  0.000000  1.000000 )  
               b(2) = ( -1.000000  1.000000  0.000000 )  
               b(3) = (  0.000000 -1.000000  1.000000 )  


     PseudoPot. # 1 for K  read from file:
     /home/lorenzo/pseudos/K/K.pbe-spn-rrkjus_psl.1.0.0.UPF
     MD5 check sum: 897b700350bb708b0563e904352feb48
     Pseudo is Ultrasoft + core correction, Zval =  9.0
     Generated using "atomic" code by A. Dal Corso v.6.2.2
     Using radial grid of 1165 points,  6 beta functions with: 
                l(1) =   0
                l(2) =   0
                l(3) =   1
                l(4) =   1
                l(5) =   2
                l(6) =   2
     Q(r) pseudized with 0 coefficients 


     atomic species   valence    mass     pseudopotential
        K              9.00    39.09830     K ( 1.00)

     48 Sym. Ops., with inversion, found



   Cartesian axes

     site n.     atom                  positions (alat units)
         1           K   tau(   1) = (   0.0000000   0.0000000   0.0000000  )

     number of k points=     3  gaussian smearing, width (Ry)=  0.0100
                       cart. coord. in units 2pi/alat
        k(    1) = (   0.0000000   0.0000000   0.0000000), wk =   0.2500000
        k(    2) = (   0.0000000   0.5000000  -0.5000000), wk =   1.5000000
        k(    3) = (   0.0000000   0.0000000  -1.0000000), wk =   0.2500000

     Dense  grid:    60047 G-vectors     FFT dimensions: (  54,  54,  54)

     Estimated max dynamical RAM per process >      47.72 MB

     Estimated total dynamical RAM >     238.60 MB

     Check: negative/imaginary core charge=   -0.000001    0.000000

     Initial potential from superposition of free atoms

     starting charge    8.98117, renormalised to    9.00000
     Starting wfcs are    8 randomized atomic wfcs +    1 random wfcs

     total cpu time spent up to now is        1.6 secs

     Self-consistent Calculation

     iteration #  1     ecut=    95.00 Ry     beta= 0.70
     Davidson diagonalization with overlap
     ethr =  1.00E-02,  avg # of iterations =  7.7

     Threshold (ethr) on eigenvalues was too large:
     Diagonalizing with lowered threshold

     Davidson diagonalization with overlap
     ethr =  6.00E-06,  avg # of iterations =  6.0

     total cpu time spent up to now is        2.4 secs

     total energy              =     -58.73290780 Ry
     Harris-Foulkes estimate   =     -58.73331065 Ry
     estimated scf accuracy    <       0.00055884 Ry

     iteration #  2     ecut=    95.00 Ry     beta= 0.70
     Davidson diagonalization with overlap
     ethr =  6.21E-06,  avg # of iterations =  2.0

     total cpu time spent up to now is        2.7 secs

     total energy              =     -58.73305724 Ry
     Harris-Foulkes estimate   =     -58.73307054 Ry
     estimated scf accuracy    <       0.00003006 Ry

     iteration #  3     ecut=    95.00 Ry     beta= 0.70
     Davidson diagonalization with overlap
     ethr =  3.34E-07,  avg # of iterations =  2.0

     total cpu time spent up to now is        3.0 secs

     total energy              =     -58.73306297 Ry
     Harris-Foulkes estimate   =     -58.73306224 Ry
     estimated scf accuracy    <       0.00000066 Ry

     iteration #  4     ecut=    95.00 Ry     beta= 0.70
     Davidson diagonalization with overlap
     ethr =  7.37E-09,  avg # of iterations =  2.0

     total cpu time spent up to now is        3.4 secs

     End of self-consistent calculation

          k = 0.0000 0.0000 0.0000 (  7419 PWs)   bands (ev):

   -30.0457 -13.4993 -13.4993 -13.4993  -0.2205   6.3079   6.3079   7.2567
     7.2568

          k = 0.0000 0.5000-0.5000 (  7518 PWs)   bands (ev):

   -30.0407 -13.5770 -13.5254 -13.4992   2.4286   2.6989   5.1618   6.9282
     8.0527

          k = 0.0000 0.0000-1.0000 (  7520 PWs)   bands (ev):

   -30.0369 -13.5552 -13.5552 -13.5552   3.6621   5.5405   5.5406   5.5406
     7.7141

     the Fermi energy is     2.4280 ev

!    total energy              =     -58.73306310 Ry
     Harris-Foulkes estimate   =     -58.73306309 Ry
     estimated scf accuracy    <          4.7E-09 Ry

     The total energy is the sum of the following terms:

     one-electron contribution =     -36.61177266 Ry
     hartree contribution      =      18.95319971 Ry
     xc contribution           =     -11.17383860 Ry
     ewald contribution        =     -29.89633970 Ry
     smearing contrib. (-TS)   =      -0.00431185 Ry

     convergence has been achieved in   4 iterations

     Forces acting on atoms (cartesian axes, Ry/au):

     atom    1 type  1   force =     0.00000000    0.00000000    0.00000000

     Total force =     0.000000     Total SCF correction =     0.000000


     Computing stress (Cartesian axis) and pressure

          total   stress  (Ry/bohr**3)                   (kbar)     P=    3.01
   0.00002045   0.00000000  -0.00000000          3.01      0.00     -0.00
   0.00000000   0.00002045   0.00000000          0.00      3.01      0.00
  -0.00000000   0.00000000   0.00002045         -0.00      0.00      3.01


     Writing output data file K.save/

     init_run     :      0.48s CPU      0.50s WALL (       1 calls)
     electrons    :      1.74s CPU      1.80s WALL (       1 calls)
     forces       :      0.15s CPU      0.15s WALL (       1 calls)
     stress       :      0.51s CPU      0.52s WALL (       1 calls)

     Called by init_run:
     wfcinit      :      0.05s CPU      0.05s WALL (       1 calls)
     potinit      :      0.04s CPU      0.05s WALL (       1 calls)
     hinit0       :      0.24s CPU      0.24s WALL (       1 calls)

     Called by electrons:
     c_bands      :      0.89s CPU      0.93s WALL (       5 calls)
     sum_band     :      0.47s CPU      0.49s WALL (       5 calls)
     v_of_rho     :      0.17s CPU      0.17s WALL (       5 calls)
     newd         :      0.27s CPU      0.28s WALL (       5 calls)
     mix_rho      :      0.01s CPU      0.01s WALL (       5 calls)

     Called by c_bands:
     init_us_2    :      0.04s CPU      0.04s WALL (      39 calls)
     cegterg      :      0.85s CPU      0.88s WALL (      15 calls)

     Called by sum_band:
     sum_band:bec :      0.00s CPU      0.00s WALL (      15 calls)
     addusdens    :      0.28s CPU      0.29s WALL (       5 calls)

     Called by *egterg:
     h_psi        :      0.71s CPU      0.74s WALL (      77 calls)
     s_psi        :      0.02s CPU      0.02s WALL (      77 calls)
     g_psi        :      0.00s CPU      0.00s WALL (      59 calls)
     cdiaghg      :      0.02s CPU      0.02s WALL (      71 calls)

     Called by h_psi:
     h_psi:pot    :      0.71s CPU      0.74s WALL (      77 calls)
     h_psi:calbec :      0.04s CPU      0.04s WALL (      77 calls)
     vloc_psi     :      0.64s CPU      0.67s WALL (      77 calls)
     add_vuspsi   :      0.02s CPU      0.03s WALL (      77 calls)

     General routines
     calbec       :      0.07s CPU      0.07s WALL (     107 calls)
     fft          :      0.11s CPU      0.12s WALL (      82 calls)
     ffts         :      0.00s CPU      0.01s WALL (       5 calls)
     fftw         :      0.71s CPU      0.73s WALL (     967 calls)

     Parallel routines
     fft_scatt_xy :      0.07s CPU      0.07s WALL (    1054 calls)
     fft_scatt_yz :      0.19s CPU      0.20s WALL (    1054 calls)

     PWSCF        :     3.95s CPU         4.09s WALL


   This run was terminated on:   1:36:59   8Apr2024            

=------------------------------------------------------------------------------=
   JOB DONE.
=------------------------------------------------------------------------------=
