
     Program PWSCF v.6.3MaX starts on  8Apr2024 at  0:12:44 

     This program is part of the open-source Quantum ESPRESSO suite
     for quantum simulation of materials; please cite
         "P. Giannozzi et al., J. Phys.:Condens. Matter 21 395502 (2009);
         "P. Giannozzi et al., J. Phys.:Condens. Matter 29 465901 (2017);
          URL http://www.quantum-espresso.org", 
     in publications or presentations arising from this work. More details at
     http://www.quantum-espresso.org/quote

     Parallel version (MPI), running on     5 processors

     MPI processes distributed on     1 nodes
     R & G space division:  proc/nbgrp/npool/nimage =       5
     Waiting for input...
     Reading input from standard input

     Current dimensions of program PWSCF are:
     Max number of different atomic species (ntypx) = 10
     Max number of k-points (npk) =  40000
     Max angular momentum in pseudopotentials (lmaxx) =  3
               file K.pz-spn-rrkjus_psl.1.0.0.UPF: wavefunction(s)  3S renormalized

     Subspace diagonalization in iterative solution of the eigenvalue problem:
     a serial algorithm will be used


     Parallelization info
     --------------------
     sticks:   dense  smooth     PW     G-vecs:    dense   smooth      PW
     Min          66      66     20                  756      756     136
     Max          67      67     21                  757      757     137
     Sum         333     333    103                 3781     3781     683



     bravais-lattice index     =            3
     lattice parameter (alat)  =       9.8600  a.u.
     unit-cell volume          =     479.2926 (a.u.)^3
     number of atoms/cell      =            1
     number of atomic types    =            1
     number of electrons       =         9.00
     number of Kohn-Sham states=            9
     kinetic-energy cutoff     =      15.0000  Ry
     charge density cutoff     =      60.0000  Ry
     convergence threshold     =      1.0E-08
     mixing beta               =       0.7000
     number of iterations used =            8  plain     mixing
     Exchange-correlation      = LDA ( 1  1  0  0 0 0)

     celldm(1)=   9.860000  celldm(2)=   0.000000  celldm(3)=   0.000000
     celldm(4)=   0.000000  celldm(5)=   0.000000  celldm(6)=   0.000000

     crystal axes: (cart. coord. in units of alat)
               a(1) = (   0.500000   0.500000   0.500000 )  
               a(2) = (  -0.500000   0.500000   0.500000 )  
               a(3) = (  -0.500000  -0.500000   0.500000 )  

     reciprocal axes: (cart. coord. in units 2 pi/alat)
               b(1) = (  1.000000  0.000000  1.000000 )  
               b(2) = ( -1.000000  1.000000  0.000000 )  
               b(3) = (  0.000000 -1.000000  1.000000 )  


     PseudoPot. # 1 for K  read from file:
     /home/lorenzo/pseudos/K/K.pz-spn-rrkjus_psl.1.0.0.UPF
     MD5 check sum: af434a66a3b91719abff201b8f79bb09
     Pseudo is Ultrasoft + core correction, Zval =  9.0
     Generated using "atomic" code by A. Dal Corso v.6.2.2
     Using radial grid of 1165 points,  6 beta functions with: 
                l(1) =   0
                l(2) =   0
                l(3) =   1
                l(4) =   1
                l(5) =   2
                l(6) =   2
     Q(r) pseudized with 0 coefficients 


     atomic species   valence    mass     pseudopotential
        K              9.00    39.09830     K ( 1.00)

     48 Sym. Ops., with inversion, found



   Cartesian axes

     site n.     atom                  positions (alat units)
         1           K   tau(   1) = (   0.0000000   0.0000000   0.0000000  )

     number of k points=    56  gaussian smearing, width (Ry)=  0.0100
                       cart. coord. in units 2pi/alat
        k(    1) = (   0.0000000   0.0000000   0.0000000), wk =   0.0015026
        k(    2) = (   0.0000000  -0.0909091   0.0909091), wk =   0.0180316
        k(    3) = (   0.0000000  -0.1818182   0.1818182), wk =   0.0180316
        k(    4) = (   0.0000000  -0.2727273   0.2727273), wk =   0.0180316
        k(    5) = (   0.0000000  -0.3636364   0.3636364), wk =   0.0180316
        k(    6) = (   0.0000000  -0.4545455   0.4545455), wk =   0.0180316
        k(    7) = (  -0.0909091  -0.0909091   0.1818182), wk =   0.0360631
        k(    8) = (  -0.0909091  -0.1818182   0.2727273), wk =   0.0721262
        k(    9) = (  -0.0909091  -0.2727273   0.3636364), wk =   0.0721262
        k(   10) = (  -0.0909091  -0.3636364   0.4545455), wk =   0.0721262
        k(   11) = (  -0.0909091   0.5454545  -0.4545455), wk =   0.0360631
        k(   12) = (  -0.1818182  -0.1818182   0.3636364), wk =   0.0360631
        k(   13) = (  -0.1818182  -0.2727273   0.4545455), wk =   0.0721262
        k(   14) = (  -0.1818182   0.6363636  -0.4545455), wk =   0.0721262
        k(   15) = (  -0.2727273   0.7272727  -0.4545455), wk =   0.0360631
        k(   16) = (  -0.2727273   0.6363636  -0.3636364), wk =   0.0360631
        k(   17) = (   0.0000000   0.0000000   0.1818182), wk =   0.0090158
        k(   18) = (   0.0000000  -0.0909091   0.2727273), wk =   0.0360631
        k(   19) = (   0.0000000  -0.1818182   0.3636364), wk =   0.0360631
        k(   20) = (   0.0000000  -0.2727273   0.4545455), wk =   0.0360631
        k(   21) = (   0.0000000  -0.3636364   0.5454545), wk =   0.0360631
        k(   22) = (  -0.0909091  -0.0909091   0.3636364), wk =   0.0360631
        k(   23) = (  -0.0909091  -0.1818182   0.4545455), wk =   0.0721262
        k(   24) = (  -0.0909091  -0.2727273   0.5454545), wk =   0.0721262
        k(   25) = (  -0.0909091   0.6363636  -0.3636364), wk =   0.0360631
        k(   26) = (  -0.1818182   0.1818182   0.1818182), wk =   0.0120210
        k(   27) = (  -0.1818182  -0.1818182   0.5454545), wk =   0.0360631
        k(   28) = (  -0.1818182   0.7272727  -0.3636364), wk =   0.0721262
        k(   29) = (  -0.2727273   0.2727273   0.1818182), wk =   0.0360631
        k(   30) = (  -0.2727273   0.7272727  -0.2727273), wk =   0.0120210
        k(   31) = (  -0.3636364   0.3636364   0.1818182), wk =   0.0360631
        k(   32) = (  -0.3636364   0.2727273   0.2727273), wk =   0.0360631
        k(   33) = (   0.5454545  -0.5454545   0.1818182), wk =   0.0360631
        k(   34) = (   0.5454545  -0.6363636   0.2727273), wk =   0.0721262
        k(   35) = (   0.4545455  -0.5454545   0.2727273), wk =   0.0360631
        k(   36) = (   0.4545455  -0.6363636   0.3636364), wk =   0.0360631
        k(   37) = (   0.0000000   0.0000000   0.3636364), wk =   0.0090158
        k(   38) = (   0.0000000  -0.0909091   0.4545455), wk =   0.0360631
        k(   39) = (   0.0000000  -0.1818182   0.5454545), wk =   0.0360631
        k(   40) = (   0.0000000  -0.2727273   0.6363636), wk =   0.0360631
        k(   41) = (  -0.0909091  -0.0909091   0.5454545), wk =   0.0360631
        k(   42) = (  -0.0909091  -0.1818182   0.6363636), wk =   0.0721262
        k(   43) = (  -0.0909091   0.7272727  -0.2727273), wk =   0.0360631
        k(   44) = (  -0.1818182   0.8181818  -0.2727273), wk =   0.0360631
        k(   45) = (   0.6363636  -0.6363636   0.3636364), wk =   0.0120210
        k(   46) = (   0.5454545  -0.5454545   0.3636364), wk =   0.0360631
        k(   47) = (   0.4545455  -0.5454545   0.4545455), wk =   0.0120210
        k(   48) = (   0.0000000   0.0000000   0.5454545), wk =   0.0090158
        k(   49) = (   0.0000000  -0.0909091   0.6363636), wk =   0.0360631
        k(   50) = (   0.0000000  -0.1818182   0.7272727), wk =   0.0360631
        k(   51) = (  -0.0909091  -0.0909091   0.7272727), wk =   0.0360631
        k(   52) = (  -0.0909091   0.8181818  -0.1818182), wk =   0.0360631
        k(   53) = (   0.0000000   0.0000000   0.7272727), wk =   0.0090158
        k(   54) = (   0.0000000  -0.0909091   0.8181818), wk =   0.0360631
        k(   55) = (  -0.0909091   0.9090909  -0.0909091), wk =   0.0120210
        k(   56) = (   0.0000000   0.0000000   0.9090909), wk =   0.0090158

     Dense  grid:     3781 G-vectors     FFT dimensions: (  24,  24,  24)

     Estimated max dynamical RAM per process >       4.57 MB

     Estimated total dynamical RAM >      22.86 MB

     Check: negative/imaginary core charge=   -0.000370    0.000000

     Initial potential from superposition of free atoms

     starting charge    8.98437, renormalised to    9.00000
     Starting wfcs are    8 randomized atomic wfcs +    1 random wfcs

     total cpu time spent up to now is        1.0 secs

     Self-consistent Calculation

     iteration #  1     ecut=    15.00 Ry     beta= 0.70
     Davidson diagonalization with overlap
     ethr =  1.00E-02,  avg # of iterations =  6.6

     Threshold (ethr) on eigenvalues was too large:
     Diagonalizing with lowered threshold

     Davidson diagonalization with overlap
     ethr =  4.86E-04,  avg # of iterations =  2.0

     total cpu time spent up to now is        1.8 secs

     total energy              =     -58.34359663 Ry
     Harris-Foulkes estimate   =     -58.37340262 Ry
     estimated scf accuracy    <       0.04475076 Ry

     iteration #  2     ecut=    15.00 Ry     beta= 0.70
     Davidson diagonalization with overlap
     ethr =  4.97E-04,  avg # of iterations =  2.1

     total cpu time spent up to now is        2.1 secs

     total energy              =     -58.35244894 Ry
     Harris-Foulkes estimate   =     -58.35317301 Ry
     estimated scf accuracy    <       0.00221125 Ry

     iteration #  3     ecut=    15.00 Ry     beta= 0.70
     Davidson diagonalization with overlap
     ethr =  2.46E-05,  avg # of iterations =  4.9

     total cpu time spent up to now is        2.5 secs

     total energy              =     -58.35262437 Ry
     Harris-Foulkes estimate   =     -58.35263918 Ry
     estimated scf accuracy    <       0.00013585 Ry

     iteration #  4     ecut=    15.00 Ry     beta= 0.70
     Davidson diagonalization with overlap
     ethr =  1.51E-06,  avg # of iterations =  2.8

     total cpu time spent up to now is        3.0 secs

     total energy              =     -58.35262639 Ry
     Harris-Foulkes estimate   =     -58.35262646 Ry
     estimated scf accuracy    <       0.00000019 Ry

     iteration #  5     ecut=    15.00 Ry     beta= 0.70
     Davidson diagonalization with overlap
     ethr =  2.06E-09,  avg # of iterations =  2.7

     total cpu time spent up to now is        3.5 secs

     total energy              =     -58.35262654 Ry
     Harris-Foulkes estimate   =     -58.35262654 Ry
     estimated scf accuracy    <       0.00000001 Ry

     iteration #  6     ecut=    15.00 Ry     beta= 0.70
     Davidson diagonalization with overlap
     ethr =  1.26E-10,  avg # of iterations =  2.0

     total cpu time spent up to now is        3.8 secs

     End of self-consistent calculation

          k = 0.0000 0.0000 0.0000 (   459 PWs)   bands (ev):

   -31.1122 -13.5373 -13.5373 -13.5373  -0.4273   6.5008   6.5008   6.5008
     7.6255

          k = 0.0000-0.0909 0.0909 (   463 PWs)   bands (ev):

   -31.1119 -13.6011 -13.5480 -13.5312  -0.3189   6.2982   6.3410   6.5912
     7.3926

          k = 0.0000-0.1818 0.1818 (   469 PWs)   bands (ev):

   -31.1111 -13.6371 -13.5905 -13.5870  -0.0001   5.6302   5.9955   6.8091
     7.2817

          k = 0.0000-0.2727 0.2727 (   469 PWs)   bands (ev):

   -31.1100 -13.6569 -13.6411 -13.5652   0.5114   4.7423   5.6467   7.2632
     7.4114

          k = 0.0000-0.3636 0.3636 (   474 PWs)   bands (ev):

   -31.1090 -13.7104 -13.6816 -13.6002   1.1823   3.8185   5.3822   7.2175
     7.5637

          k = 0.0000-0.4545 0.4545 (   472 PWs)   bands (ev):

   -31.1083 -13.7125 -13.7016 -13.5597   1.9642   2.9226   5.2527   7.0509
     7.8361

          k =-0.0909-0.0909 0.1818 (   469 PWs)   bands (ev):

   -31.1114 -13.6560 -13.5750 -13.5718  -0.1055   5.9051   6.0231   6.7225
     7.1647

          k =-0.0909-0.1818 0.2727 (   472 PWs)   bands (ev):

   -31.1105 -13.6616 -13.6354 -13.5984   0.3104   5.1720   5.6294   7.0186
     7.1130

          k =-0.0909-0.2727 0.3636 (   469 PWs)   bands (ev):

   -31.1093 -13.6905 -13.6389 -13.5660   0.9029   4.3105   5.3292   7.0672
     7.4274

          k =-0.0909-0.3636 0.4545 (   470 PWs)   bands (ev):

   -31.1084 -13.7199 -13.6563 -13.5663   1.6391   3.4101   5.1318   6.8952
     7.7567

          k =-0.0909 0.5455-0.4545 (   471 PWs)   bands (ev):

   -31.1081 -13.6992 -13.6696 -13.5938   2.3295   2.6738   5.0587   6.7871
     8.0583

          k =-0.1818-0.1818 0.3636 (   471 PWs)   bands (ev):

   -31.1094 -13.6962 -13.6157 -13.6035   0.8100   4.6606   5.0969   7.1005
     7.1470

          k =-0.1818-0.2727 0.4545 (   472 PWs)   bands (ev):

   -31.1086 -13.7050 -13.6507 -13.6189   1.4708   3.9543   4.7389   6.8418
     7.3456

          k =-0.1818 0.6364-0.4545 (   472 PWs)   bands (ev):

   -31.1080 -13.7026 -13.6600 -13.6317   2.2505   3.1247   4.5761   6.5940
     7.6274

          k =-0.2727 0.7273-0.4545 (   474 PWs)   bands (ev):

   -31.1081 -13.7129 -13.6728 -13.6496   2.1806   3.6359   4.0608   6.5947
     7.4158

          k =-0.2727 0.6364-0.3636 (   473 PWs)   bands (ev):

   -31.1078 -13.7086 -13.6797 -13.6391   2.9663   2.9783   3.8189   6.4949
     7.6173

          k = 0.0000 0.0000 0.1818 (   462 PWs)   bands (ev):

   -31.1115 -13.6179 -13.5299 -13.5299  -0.2115   6.2405   6.2405   6.6461
     6.8604

          k = 0.0000-0.0909 0.2727 (   473 PWs)   bands (ev):

   -31.1110 -13.6950 -13.6089 -13.5904   0.1039   5.6532   5.9384   6.5883
     6.8450

          k = 0.0000-0.1818 0.3636 (   468 PWs)   bands (ev):

   -31.1097 -13.6578 -13.6201 -13.5865   0.6129   4.7864   5.6359   6.5948
     7.2848

          k = 0.0000-0.2727 0.4545 (   468 PWs)   bands (ev):

   -31.1086 -13.6921 -13.6116 -13.5977   1.2805   3.8801   5.4012   6.5359
     7.8132

          k = 0.0000-0.3636 0.5455 (   470 PWs)   bands (ev):

   -31.1080 -13.7198 -13.6223 -13.6080   2.0587   2.9913   5.2716   6.4079
     7.9471

          k =-0.0909-0.0909 0.3636 (   464 PWs)   bands (ev):

   -31.1097 -13.6351 -13.5857 -13.5707   0.5145   5.1514   5.5910   6.4463
     7.1351

          k =-0.0909-0.1818 0.4545 (   467 PWs)   bands (ev):

   -31.1087 -13.6812 -13.6049 -13.5946   1.0985   4.3890   5.2310   6.4874
     7.3790

          k =-0.0909-0.2727 0.5455 (   469 PWs)   bands (ev):

   -31.1079 -13.7134 -13.6397 -13.5877   1.8242   3.5351   5.0121   6.3799
     7.5468

          k =-0.0909 0.6364-0.3636 (   471 PWs)   bands (ev):

   -31.1076 -13.7279 -13.6511 -13.6026   2.5489   2.7640   4.9250   6.2985
     7.7623

          k =-0.1818 0.1818 0.1818 (   471 PWs)   bands (ev):

   -31.1107 -13.6433 -13.6433 -13.5818   0.2091   5.4687   5.4687   6.9310
     7.4914

          k =-0.1818-0.1818 0.5455 (   470 PWs)   bands (ev):

   -31.1079 -13.7177 -13.6646 -13.5825   1.7425   3.9700   4.5823   6.6940
     7.1053

          k =-0.1818 0.7273-0.3636 (   468 PWs)   bands (ev):

   -31.1074 -13.7073 -13.6568 -13.5855   2.5062   3.3137   4.2216   6.7067
     7.2882

          k =-0.2727 0.2727 0.1818 (   476 PWs)   bands (ev):

   -31.1098 -13.6819 -13.6712 -13.6373   0.7113   4.7236   5.1056   6.9648
     7.5765

          k =-0.2727 0.7273-0.2727 (   472 PWs)   bands (ev):

   -31.1073 -13.7129 -13.7129 -13.5964   3.1773   3.1773   3.5391   7.1967
     7.2023

          k =-0.3636 0.3636 0.1818 (   478 PWs)   bands (ev):

   -31.1089 -13.7353 -13.6655 -13.6588   1.3753   3.9120   4.8652   6.7327
     7.7758

          k =-0.3636 0.2727 0.2727 (   473 PWs)   bands (ev):

   -31.1089 -13.7072 -13.6492 -13.6205   1.2891   4.3132   4.5906   6.5512
     7.7157

          k = 0.5455-0.5455 0.1818 (   478 PWs)   bands (ev):

   -31.1084 -13.7190 -13.6928 -13.6669   2.1559   3.0565   4.7384   6.4901
     7.9544

          k = 0.5455-0.6364 0.2727 (   475 PWs)   bands (ev):

   -31.1084 -13.7181 -13.6698 -13.6468   2.0088   3.6350   4.3257   6.1142
     7.8727

          k = 0.4545-0.5455 0.2727 (   472 PWs)   bands (ev):

   -31.1080 -13.6853 -13.6703 -13.6394   2.7645   2.8823   4.2521   5.9444
     7.9847

          k = 0.4545-0.6364 0.3636 (   475 PWs)   bands (ev):

   -31.1081 -13.7056 -13.6829 -13.6620   2.7550   3.4175   3.6943   5.7370
     7.9865

          k = 0.0000 0.0000 0.3636 (   470 PWs)   bands (ev):

   -31.1100 -13.6530 -13.6131 -13.6131   0.4135   5.6765   5.8155   5.8155
     7.0031

          k = 0.0000-0.0909 0.4545 (   460 PWs)   bands (ev):

   -31.1087 -13.6253 -13.5799 -13.5532   0.9117   4.8821   5.6229   5.8791
     7.4030

          k = 0.0000-0.1818 0.5455 (   468 PWs)   bands (ev):

   -31.1079 -13.7036 -13.6096 -13.6071   1.5634   4.0342   5.4298   5.8020
     7.3205

          k = 0.0000-0.2727 0.6364 (   468 PWs)   bands (ev):

   -31.1072 -13.6861 -13.6401 -13.6136   2.3325   3.1843   5.3212   5.6378
     7.4343

          k =-0.0909-0.0909 0.5455 (   466 PWs)   bands (ev):

   -31.1078 -13.6707 -13.6200 -13.6003   1.4759   4.4026   5.1795   5.9617
     7.0326

          k =-0.0909-0.1818 0.6364 (   469 PWs)   bands (ev):

   -31.1071 -13.6990 -13.6553 -13.6137   2.1747   3.7417   4.7880   6.0234
     6.9563

          k =-0.0909 0.7273-0.2727 (   467 PWs)   bands (ev):

   -31.1068 -13.7084 -13.6571 -13.5805   2.9515   2.9585   4.6592   5.9936
     7.1311

          k =-0.1818 0.8182-0.2727 (   466 PWs)   bands (ev):

   -31.1066 -13.6915 -13.6806 -13.5688   2.8794   3.4797   4.0570   6.4566
     6.7860

          k = 0.6364-0.6364 0.3636 (   474 PWs)   bands (ev):

   -31.1084 -13.7212 -13.6502 -13.6502   1.9282   4.0741   4.0741   5.8081
     8.0986

          k = 0.5455-0.5455 0.3636 (   476 PWs)   bands (ev):

   -31.1082 -13.6996 -13.6907 -13.6777   2.6777   3.4353   3.9578   5.3169
     8.1366

          k = 0.4545-0.5455 0.4545 (   469 PWs)   bands (ev):

   -31.1080 -13.6552 -13.6552 -13.6507   3.3122   3.3122   3.5619   4.9622
     8.2745

          k = 0.0000 0.0000 0.5455 (   466 PWs)   bands (ev):

   -31.1078 -13.6773 -13.6043 -13.6043   1.3844   4.7162   5.5404   5.5404
     6.8113

          k = 0.0000-0.0909 0.6364 (   465 PWs)   bands (ev):

   -31.1068 -13.6767 -13.6234 -13.6040   2.0053   4.1727   5.3852   5.4550
     6.4792

          k = 0.0000-0.1818 0.7273 (   467 PWs)   bands (ev):

   -31.1063 -13.7114 -13.6564 -13.5940   2.7203   3.4813   5.1108   5.3918
     6.6826

          k =-0.0909-0.0909 0.7273 (   464 PWs)   bands (ev):

   -31.1061 -13.6778 -13.6749 -13.5742   2.6460   3.8358   4.7905   5.7567
     6.2768

          k =-0.0909 0.8182-0.1818 (   468 PWs)   bands (ev):

   -31.1060 -13.7160 -13.7038 -13.5871   3.2270   3.4007   4.4969   5.8432
     6.3598

          k = 0.0000 0.0000 0.7273 (   466 PWs)   bands (ev):

   -31.1060 -13.6626 -13.6626 -13.6337   2.5617   4.0424   5.4365   5.4365
     5.7307

          k = 0.0000-0.0909 0.8182 (   472 PWs)   bands (ev):

   -31.1056 -13.7316 -13.7112 -13.6399   3.1498   3.7087   5.0374   5.4133
     5.9212

          k =-0.0909 0.9091-0.0909 (   478 PWs)   bands (ev):

   -31.1056 -13.7391 -13.7391 -13.7196   3.5319   3.5319   4.8426   5.7011
     5.7011

          k = 0.0000 0.0000 0.9091 (   474 PWs)   bands (ev):

   -31.1052 -13.7378 -13.6991 -13.6991   3.5153   3.7041   5.3797   5.4281
     5.4281

     the Fermi energy is     1.8652 ev

!    total energy              =     -58.35262654 Ry
     Harris-Foulkes estimate   =     -58.35262654 Ry
     estimated scf accuracy    <          3.1E-11 Ry

     The total energy is the sum of the following terms:

     one-electron contribution =     -35.88827412 Ry
     hartree contribution      =      18.34127605 Ry
     xc contribution           =     -10.90886854 Ry
     ewald contribution        =     -29.89633977 Ry
     smearing contrib. (-TS)   =      -0.00042015 Ry

     convergence has been achieved in   6 iterations

     Forces acting on atoms (cartesian axes, Ry/au):

     atom    1 type  1   force =     0.00000000    0.00000000    0.00000000

     Total force =     0.000000     Total SCF correction =     0.000000


     Computing stress (Cartesian axis) and pressure

          total   stress  (Ry/bohr**3)                   (kbar)     P= -330.50
  -0.00224669   0.00000000  -0.00000000       -330.50      0.00     -0.00
   0.00000000  -0.00224669   0.00000000          0.00   -330.50      0.00
  -0.00000000   0.00000000  -0.00224669         -0.00      0.00   -330.50


     Writing output data file K.save/

     init_run     :      0.18s CPU      0.19s WALL (       1 calls)
     electrons    :      2.70s CPU      2.90s WALL (       1 calls)
     forces       :      0.03s CPU      0.03s WALL (       1 calls)
     stress       :      0.11s CPU      0.11s WALL (       1 calls)

     Called by init_run:
     wfcinit      :      0.09s CPU      0.10s WALL (       1 calls)
     potinit      :      0.00s CPU      0.00s WALL (       1 calls)
     hinit0       :      0.08s CPU      0.08s WALL (       1 calls)

     Called by electrons:
     c_bands      :      2.29s CPU      2.46s WALL (       7 calls)
     sum_band     :      0.36s CPU      0.39s WALL (       7 calls)
     v_of_rho     :      0.00s CPU      0.00s WALL (       7 calls)
     newd         :      0.03s CPU      0.03s WALL (       7 calls)
     mix_rho      :      0.00s CPU      0.00s WALL (       7 calls)

     Called by c_bands:
     init_us_2    :      0.06s CPU      0.06s WALL (     952 calls)
     cegterg      :      2.20s CPU      2.36s WALL (     392 calls)

     Called by sum_band:
     sum_band:bec :      0.00s CPU      0.00s WALL (     392 calls)
     addusdens    :      0.03s CPU      0.03s WALL (       7 calls)

     Called by *egterg:
     h_psi        :      1.61s CPU      1.73s WALL (    1747 calls)
     s_psi        :      0.05s CPU      0.05s WALL (    1747 calls)
     g_psi        :      0.01s CPU      0.01s WALL (    1299 calls)
     cdiaghg      :      0.34s CPU      0.36s WALL (    1635 calls)

     Called by h_psi:
     h_psi:pot    :      1.60s CPU      1.72s WALL (    1747 calls)
     h_psi:calbec :      0.08s CPU      0.09s WALL (    1747 calls)
     vloc_psi     :      1.46s CPU      1.57s WALL (    1747 calls)
     add_vuspsi   :      0.05s CPU      0.05s WALL (    1747 calls)

     General routines
     calbec       :      0.14s CPU      0.15s WALL (    2419 calls)
     fft          :      0.01s CPU      0.01s WALL (      38 calls)
     ffts         :      0.00s CPU      0.00s WALL (       7 calls)
     fftw         :      1.60s CPU      1.71s WALL (   23230 calls)

     Parallel routines
     fft_scatt_xy :      0.15s CPU      0.16s WALL (   23275 calls)
     fft_scatt_yz :      0.43s CPU      0.46s WALL (   23275 calls)

     PWSCF        :     3.82s CPU         4.12s WALL


   This run was terminated on:   0:12:48   8Apr2024            

=------------------------------------------------------------------------------=
   JOB DONE.
=------------------------------------------------------------------------------=
