
     Program PWSCF v.6.3MaX starts on  8Apr2024 at  0:19:36 

     This program is part of the open-source Quantum ESPRESSO suite
     for quantum simulation of materials; please cite
         "P. Giannozzi et al., J. Phys.:Condens. Matter 21 395502 (2009);
         "P. Giannozzi et al., J. Phys.:Condens. Matter 29 465901 (2017);
          URL http://www.quantum-espresso.org", 
     in publications or presentations arising from this work. More details at
     http://www.quantum-espresso.org/quote

     Parallel version (MPI), running on     5 processors

     MPI processes distributed on     1 nodes
     R & G space division:  proc/nbgrp/npool/nimage =       5
     Waiting for input...
     Reading input from standard input

     Current dimensions of program PWSCF are:
     Max number of different atomic species (ntypx) = 10
     Max number of k-points (npk) =  40000
     Max angular momentum in pseudopotentials (lmaxx) =  3
               file K.pz-spn-rrkjus_psl.1.0.0.UPF: wavefunction(s)  3S renormalized

     Subspace diagonalization in iterative solution of the eigenvalue problem:
     a serial algorithm will be used


     Parallelization info
     --------------------
     sticks:   dense  smooth     PW     G-vecs:    dense   smooth      PW
     Min         131     131     41                 2128     2128     373
     Max         132     132     41                 2129     2129     373
     Sum         657     657    205                10641    10641    1865



     bravais-lattice index     =            3
     lattice parameter (alat)  =       9.8600  a.u.
     unit-cell volume          =     479.2926 (a.u.)^3
     number of atoms/cell      =            1
     number of atomic types    =            1
     number of electrons       =         9.00
     number of Kohn-Sham states=            9
     kinetic-energy cutoff     =      30.0000  Ry
     charge density cutoff     =     120.0000  Ry
     convergence threshold     =      1.0E-08
     mixing beta               =       0.7000
     number of iterations used =            8  plain     mixing
     Exchange-correlation      = LDA ( 1  1  0  0 0 0)

     celldm(1)=   9.860000  celldm(2)=   0.000000  celldm(3)=   0.000000
     celldm(4)=   0.000000  celldm(5)=   0.000000  celldm(6)=   0.000000

     crystal axes: (cart. coord. in units of alat)
               a(1) = (   0.500000   0.500000   0.500000 )  
               a(2) = (  -0.500000   0.500000   0.500000 )  
               a(3) = (  -0.500000  -0.500000   0.500000 )  

     reciprocal axes: (cart. coord. in units 2 pi/alat)
               b(1) = (  1.000000  0.000000  1.000000 )  
               b(2) = ( -1.000000  1.000000  0.000000 )  
               b(3) = (  0.000000 -1.000000  1.000000 )  


     PseudoPot. # 1 for K  read from file:
     /home/lorenzo/pseudos/K/K.pz-spn-rrkjus_psl.1.0.0.UPF
     MD5 check sum: af434a66a3b91719abff201b8f79bb09
     Pseudo is Ultrasoft + core correction, Zval =  9.0
     Generated using "atomic" code by A. Dal Corso v.6.2.2
     Using radial grid of 1165 points,  6 beta functions with: 
                l(1) =   0
                l(2) =   0
                l(3) =   1
                l(4) =   1
                l(5) =   2
                l(6) =   2
     Q(r) pseudized with 0 coefficients 


     atomic species   valence    mass     pseudopotential
        K              9.00    39.09830     K ( 1.00)

     48 Sym. Ops., with inversion, found



   Cartesian axes

     site n.     atom                  positions (alat units)
         1           K   tau(   1) = (   0.0000000   0.0000000   0.0000000  )

     number of k points=    56  gaussian smearing, width (Ry)=  0.0100
                       cart. coord. in units 2pi/alat
        k(    1) = (   0.0000000   0.0000000   0.0000000), wk =   0.0015026
        k(    2) = (   0.0000000  -0.0909091   0.0909091), wk =   0.0180316
        k(    3) = (   0.0000000  -0.1818182   0.1818182), wk =   0.0180316
        k(    4) = (   0.0000000  -0.2727273   0.2727273), wk =   0.0180316
        k(    5) = (   0.0000000  -0.3636364   0.3636364), wk =   0.0180316
        k(    6) = (   0.0000000  -0.4545455   0.4545455), wk =   0.0180316
        k(    7) = (  -0.0909091  -0.0909091   0.1818182), wk =   0.0360631
        k(    8) = (  -0.0909091  -0.1818182   0.2727273), wk =   0.0721262
        k(    9) = (  -0.0909091  -0.2727273   0.3636364), wk =   0.0721262
        k(   10) = (  -0.0909091  -0.3636364   0.4545455), wk =   0.0721262
        k(   11) = (  -0.0909091   0.5454545  -0.4545455), wk =   0.0360631
        k(   12) = (  -0.1818182  -0.1818182   0.3636364), wk =   0.0360631
        k(   13) = (  -0.1818182  -0.2727273   0.4545455), wk =   0.0721262
        k(   14) = (  -0.1818182   0.6363636  -0.4545455), wk =   0.0721262
        k(   15) = (  -0.2727273   0.7272727  -0.4545455), wk =   0.0360631
        k(   16) = (  -0.2727273   0.6363636  -0.3636364), wk =   0.0360631
        k(   17) = (   0.0000000   0.0000000   0.1818182), wk =   0.0090158
        k(   18) = (   0.0000000  -0.0909091   0.2727273), wk =   0.0360631
        k(   19) = (   0.0000000  -0.1818182   0.3636364), wk =   0.0360631
        k(   20) = (   0.0000000  -0.2727273   0.4545455), wk =   0.0360631
        k(   21) = (   0.0000000  -0.3636364   0.5454545), wk =   0.0360631
        k(   22) = (  -0.0909091  -0.0909091   0.3636364), wk =   0.0360631
        k(   23) = (  -0.0909091  -0.1818182   0.4545455), wk =   0.0721262
        k(   24) = (  -0.0909091  -0.2727273   0.5454545), wk =   0.0721262
        k(   25) = (  -0.0909091   0.6363636  -0.3636364), wk =   0.0360631
        k(   26) = (  -0.1818182   0.1818182   0.1818182), wk =   0.0120210
        k(   27) = (  -0.1818182  -0.1818182   0.5454545), wk =   0.0360631
        k(   28) = (  -0.1818182   0.7272727  -0.3636364), wk =   0.0721262
        k(   29) = (  -0.2727273   0.2727273   0.1818182), wk =   0.0360631
        k(   30) = (  -0.2727273   0.7272727  -0.2727273), wk =   0.0120210
        k(   31) = (  -0.3636364   0.3636364   0.1818182), wk =   0.0360631
        k(   32) = (  -0.3636364   0.2727273   0.2727273), wk =   0.0360631
        k(   33) = (   0.5454545  -0.5454545   0.1818182), wk =   0.0360631
        k(   34) = (   0.5454545  -0.6363636   0.2727273), wk =   0.0721262
        k(   35) = (   0.4545455  -0.5454545   0.2727273), wk =   0.0360631
        k(   36) = (   0.4545455  -0.6363636   0.3636364), wk =   0.0360631
        k(   37) = (   0.0000000   0.0000000   0.3636364), wk =   0.0090158
        k(   38) = (   0.0000000  -0.0909091   0.4545455), wk =   0.0360631
        k(   39) = (   0.0000000  -0.1818182   0.5454545), wk =   0.0360631
        k(   40) = (   0.0000000  -0.2727273   0.6363636), wk =   0.0360631
        k(   41) = (  -0.0909091  -0.0909091   0.5454545), wk =   0.0360631
        k(   42) = (  -0.0909091  -0.1818182   0.6363636), wk =   0.0721262
        k(   43) = (  -0.0909091   0.7272727  -0.2727273), wk =   0.0360631
        k(   44) = (  -0.1818182   0.8181818  -0.2727273), wk =   0.0360631
        k(   45) = (   0.6363636  -0.6363636   0.3636364), wk =   0.0120210
        k(   46) = (   0.5454545  -0.5454545   0.3636364), wk =   0.0360631
        k(   47) = (   0.4545455  -0.5454545   0.4545455), wk =   0.0120210
        k(   48) = (   0.0000000   0.0000000   0.5454545), wk =   0.0090158
        k(   49) = (   0.0000000  -0.0909091   0.6363636), wk =   0.0360631
        k(   50) = (   0.0000000  -0.1818182   0.7272727), wk =   0.0360631
        k(   51) = (  -0.0909091  -0.0909091   0.7272727), wk =   0.0360631
        k(   52) = (  -0.0909091   0.8181818  -0.1818182), wk =   0.0360631
        k(   53) = (   0.0000000   0.0000000   0.7272727), wk =   0.0090158
        k(   54) = (   0.0000000  -0.0909091   0.8181818), wk =   0.0360631
        k(   55) = (  -0.0909091   0.9090909  -0.0909091), wk =   0.0120210
        k(   56) = (   0.0000000   0.0000000   0.9090909), wk =   0.0090158

     Dense  grid:    10641 G-vectors     FFT dimensions: (  30,  30,  30)

     Estimated max dynamical RAM per process >      11.32 MB

     Estimated total dynamical RAM >      56.61 MB

     Check: negative/imaginary core charge=   -0.000030    0.000000

     Initial potential from superposition of free atoms

     starting charge    8.98437, renormalised to    9.00000
     Starting wfcs are    8 randomized atomic wfcs +    1 random wfcs

     total cpu time spent up to now is        1.1 secs

     Self-consistent Calculation

     iteration #  1     ecut=    30.00 Ry     beta= 0.70
     Davidson diagonalization with overlap
     ethr =  1.00E-02,  avg # of iterations =  6.3

     Threshold (ethr) on eigenvalues was too large:
     Diagonalizing with lowered threshold

     Davidson diagonalization with overlap
     ethr =  1.28E-05,  avg # of iterations =  6.4

     total cpu time spent up to now is        3.0 secs

     total energy              =     -58.73976319 Ry
     Harris-Foulkes estimate   =     -58.74035300 Ry
     estimated scf accuracy    <       0.00115360 Ry

     iteration #  2     ecut=    30.00 Ry     beta= 0.70
     Davidson diagonalization with overlap
     ethr =  1.28E-05,  avg # of iterations =  2.1

     total cpu time spent up to now is        3.7 secs

     total energy              =     -58.73997264 Ry
     Harris-Foulkes estimate   =     -58.73999031 Ry
     estimated scf accuracy    <       0.00009157 Ry

     iteration #  3     ecut=    30.00 Ry     beta= 0.70
     Davidson diagonalization with overlap
     ethr =  1.02E-06,  avg # of iterations =  1.7

     total cpu time spent up to now is        4.2 secs

     total energy              =     -58.73998179 Ry
     Harris-Foulkes estimate   =     -58.73998093 Ry
     estimated scf accuracy    <       0.00000579 Ry

     iteration #  4     ecut=    30.00 Ry     beta= 0.70
     Davidson diagonalization with overlap
     ethr =  6.43E-08,  avg # of iterations =  1.5

     total cpu time spent up to now is        4.8 secs

     total energy              =     -58.73998228 Ry
     Harris-Foulkes estimate   =     -58.73998228 Ry
     estimated scf accuracy    <       0.00000003 Ry

     iteration #  5     ecut=    30.00 Ry     beta= 0.70
     Davidson diagonalization with overlap
     ethr =  3.51E-10,  avg # of iterations =  2.6

     total cpu time spent up to now is        5.3 secs

     End of self-consistent calculation

          k = 0.0000 0.0000 0.0000 (  1289 PWs)   bands (ev):

   -30.0975 -13.7333 -13.7333 -13.7333  -0.4762   5.9456   5.9456   5.9456
     6.8949

          k = 0.0000-0.0909 0.0909 (  1350 PWs)   bands (ev):

   -30.0973 -13.7418 -13.7373 -13.7352  -0.3699   5.7982   5.8153   6.0264
     6.7227

          k = 0.0000-0.1818 0.1818 (  1342 PWs)   bands (ev):

   -30.0962 -13.7589 -13.7431 -13.7350  -0.0570   5.2460   5.5276   6.2785
     6.6460

          k = 0.0000-0.2727 0.2727 (  1338 PWs)   bands (ev):

   -30.0947 -13.7812 -13.7504 -13.7351   0.4444   4.4620   5.2214   6.6892
     6.7152

          k = 0.0000-0.3636 0.3636 (  1330 PWs)   bands (ev):

   -30.0933 -13.8007 -13.7576 -13.7350   1.1033   3.6228   4.9845   6.6912
     7.0477

          k = 0.0000-0.4545 0.4545 (  1338 PWs)   bands (ev):

   -30.0926 -13.8128 -13.7619 -13.7353   1.8638   2.7804   4.8579   6.5669
     7.3010

          k =-0.0909-0.0909 0.1818 (  1345 PWs)   bands (ev):

   -30.0965 -13.7536 -13.7397 -13.7367  -0.1602   5.4863   5.5664   6.1868
     6.5514

          k =-0.0909-0.1818 0.2727 (  1335 PWs)   bands (ev):

   -30.0952 -13.7724 -13.7462 -13.7371   0.2474   4.8490   5.2327   6.4824
     6.5387

          k =-0.0909-0.2727 0.3636 (  1334 PWs)   bands (ev):

   -30.0938 -13.7922 -13.7547 -13.7374   0.8292   4.0662   4.9556   6.5665
     6.8961

          k =-0.0909-0.3636 0.4545 (  1328 PWs)   bands (ev):

   -30.0927 -13.8067 -13.7613 -13.7374   1.5469   3.2389   4.7763   6.4722
     7.2036

          k =-0.0909 0.5455-0.4545 (  1332 PWs)   bands (ev):

   -30.0924 -13.8124 -13.7638 -13.7375   2.2274   2.5244   4.7144   6.3842
     7.3551

          k =-0.1818-0.1818 0.3636 (  1339 PWs)   bands (ev):

   -30.0940 -13.7875 -13.7532 -13.7404   0.7366   4.3745   4.7893   6.5489
     6.6802

          k =-0.1818-0.2727 0.4545 (  1325 PWs)   bands (ev):

   -30.0928 -13.7990 -13.7624 -13.7414   1.3822   3.7321   4.4651   6.4957
     6.8140

          k =-0.1818 0.6364-0.4545 (  1325 PWs)   bands (ev):

   -30.0922 -13.8053 -13.7691 -13.7419   2.1373   2.9632   4.3096   6.2846
     7.0958

          k =-0.2727 0.7273-0.4545 (  1321 PWs)   bands (ev):

   -30.0921 -13.7995 -13.7739 -13.7438   2.0690   3.4238   3.8760   6.3554
     6.8064

          k =-0.2727 0.6364-0.3636 (  1329 PWs)   bands (ev):

   -30.0919 -13.7968 -13.7816 -13.7448   2.8122   2.8312   3.6425   6.2529
     6.9892

          k = 0.0000 0.0000 0.1818 (  1345 PWs)   bands (ev):

   -30.0969 -13.7435 -13.7394 -13.7394  -0.2644   5.7486   5.7486   6.0654
     6.3165

          k = 0.0000-0.0909 0.2727 (  1337 PWs)   bands (ev):

   -30.0958 -13.7587 -13.7452 -13.7402   0.0459   5.2807   5.5107   6.0920
     6.2905

          k = 0.0000-0.1818 0.3636 (  1337 PWs)   bands (ev):

   -30.0943 -13.7802 -13.7529 -13.7401   0.5431   4.5012   5.2318   6.1330
     6.6906

          k = 0.0000-0.2727 0.4545 (  1331 PWs)   bands (ev):

   -30.0930 -13.7997 -13.7600 -13.7395   1.1971   3.6751   5.0114   6.1401
     7.1925

          k = 0.0000-0.3636 0.5455 (  1323 PWs)   bands (ev):

   -30.0922 -13.8109 -13.7639 -13.7393   1.9566   2.8404   4.8929   6.0562
     7.2357

          k =-0.0909-0.0909 0.3636 (  1338 PWs)   bands (ev):

   -30.0945 -13.7734 -13.7517 -13.7440   0.4465   4.8159   5.2118   5.9621
     6.5478

          k =-0.0909-0.1818 0.4545 (  1337 PWs)   bands (ev):

   -30.0932 -13.7907 -13.7604 -13.7447   1.0185   4.1290   4.9085   6.0250
     6.8650

          k =-0.0909-0.2727 0.5455 (  1330 PWs)   bands (ev):

   -30.0921 -13.8040 -13.7671 -13.7447   1.7257   3.3509   4.7081   5.9783
     6.9828

          k =-0.0909 0.6364-0.3636 (  1326 PWs)   bands (ev):

   -30.0917 -13.8090 -13.7695 -13.7444   2.4404   2.6133   4.6365   5.9116
     7.1092

          k =-0.1818 0.1818 0.1818 (  1337 PWs)   bands (ev):

   -30.0955 -13.7699 -13.7398 -13.7398   0.1470   5.1017   5.1017   6.4098
     6.8453

          k =-0.1818-0.1818 0.5455 (  1334 PWs)   bands (ev):

   -30.0921 -13.7986 -13.7708 -13.7469   1.6459   3.7335   4.3621   6.2033
     6.6516

          k =-0.1818 0.7273-0.3636 (  1327 PWs)   bands (ev):

   -30.0915 -13.8015 -13.7791 -13.7473   2.3808   3.1382   4.0237   6.2370
     6.7778

          k =-0.2727 0.2727 0.1818 (  1340 PWs)   bands (ev):

   -30.0943 -13.7868 -13.7484 -13.7405   0.6407   4.4469   4.7788   6.6112
     6.9039

          k =-0.2727 0.7273-0.2727 (  1325 PWs)   bands (ev):

   -30.0912 -13.7924 -13.7924 -13.7476   3.0008   3.0008   3.4340   6.6597
     6.8173

          k =-0.3636 0.3636 0.1818 (  1327 PWs)   bands (ev):

   -30.0931 -13.7996 -13.7579 -13.7408   1.2917   3.7004   4.5542   6.5204
     7.1059

          k =-0.3636 0.2727 0.2727 (  1333 PWs)   bands (ev):

   -30.0933 -13.7963 -13.7548 -13.7450   1.2052   4.0437   4.3164   6.4106
     7.0210

          k = 0.5455-0.5455 0.1818 (  1324 PWs)   bands (ev):

   -30.0924 -13.8066 -13.7646 -13.7408   2.0501   2.9017   4.4397   6.2888
     7.3282

          k = 0.5455-0.6364 0.2727 (  1326 PWs)   bands (ev):

   -30.0925 -13.7996 -13.7652 -13.7467   1.9046   3.4336   4.0719   6.0069
     7.1519

          k = 0.4545-0.5455 0.2727 (  1326 PWs)   bands (ev):

   -30.0922 -13.7996 -13.7707 -13.7471   2.6412   2.7180   4.0011   5.8294
     7.2535

          k = 0.4545-0.6364 0.3636 (  1329 PWs)   bands (ev):

   -30.0922 -13.7925 -13.7771 -13.7500   2.6126   3.2178   3.5285   5.6350
     7.2366

          k = 0.0000 0.0000 0.3636 (  1341 PWs)   bands (ev):

   -30.0947 -13.7622 -13.7513 -13.7513   0.3484   5.3034   5.4133   5.4133
     6.4196

          k = 0.0000-0.0909 0.4545 (  1342 PWs)   bands (ev):

   -30.0934 -13.7788 -13.7592 -13.7536   0.8328   4.5727   5.2402   5.4947
     6.7449

          k = 0.0000-0.1818 0.5455 (  1332 PWs)   bands (ev):

   -30.0921 -13.7961 -13.7662 -13.7528   1.4695   3.8105   5.0769   5.4852
     6.8104

          k = 0.0000-0.2727 0.6364 (  1318 PWs)   bands (ev):

   -30.0913 -13.8063 -13.7703 -13.7517   2.2148   3.0208   4.9840   5.3586
     6.8665

          k =-0.0909-0.0909 0.5455 (  1331 PWs)   bands (ev):

   -30.0921 -13.7895 -13.7680 -13.7571   1.3828   4.1263   4.9013   5.5748
     6.6058

          k =-0.0909-0.1818 0.6364 (  1322 PWs)   bands (ev):

   -30.0911 -13.7993 -13.7759 -13.7569   2.0596   3.5302   4.5625   5.6560
     6.5018

          k =-0.0909 0.7273-0.2727 (  1324 PWs)   bands (ev):

   -30.0907 -13.8032 -13.7790 -13.7568   2.7887   2.8239   4.4363   5.6298
     6.6343

          k =-0.1818 0.8182-0.2727 (  1327 PWs)   bands (ev):

   -30.0905 -13.7978 -13.7874 -13.7578   2.7269   3.2757   3.9188   6.0425
     6.3479

          k = 0.6364-0.6364 0.3636 (  1325 PWs)   bands (ev):

   -30.0926 -13.7973 -13.7562 -13.7562   1.8249   3.8259   3.8259   5.7675
     7.3078

          k = 0.5455-0.5455 0.3636 (  1323 PWs)   bands (ev):

   -30.0923 -13.7919 -13.7688 -13.7571   2.5396   3.2457   3.7184   5.2809
     7.3648

          k = 0.4545-0.5455 0.4545 (  1322 PWs)   bands (ev):

   -30.0922 -13.7787 -13.7787 -13.7627   3.1161   3.1161   3.3735   4.9440
     7.4338

          k = 0.0000 0.0000 0.5455 (  1329 PWs)   bands (ev):

   -30.0921 -13.7799 -13.7670 -13.7670   1.2938   4.4052   5.2077   5.2077
     6.4780

          k = 0.0000-0.0909 0.6364 (  1331 PWs)   bands (ev):

   -30.0909 -13.7917 -13.7746 -13.7693   1.8932   3.9085   5.1211   5.1464
     6.1351

          k = 0.0000-0.1818 0.7273 (  1332 PWs)   bands (ev):

   -30.0902 -13.8007 -13.7790 -13.7686   2.5788   3.2903   4.8864   5.1009
     6.2935

          k =-0.0909-0.0909 0.7273 (  1329 PWs)   bands (ev):

   -30.0900 -13.7961 -13.7833 -13.7717   2.5005   3.5925   4.6045   5.4651
     5.9515

          k =-0.0909 0.8182-0.1818 (  1328 PWs)   bands (ev):

   -30.0897 -13.7973 -13.7878 -13.7719   3.0378   3.2103   4.3402   5.5594
     6.0387

          k = 0.0000 0.0000 0.7273 (  1332 PWs)   bands (ev):

   -30.0898 -13.7902 -13.7821 -13.7821   2.4208   3.7707   5.1905   5.1905
     5.4978

          k = 0.0000-0.0909 0.8182 (  1317 PWs)   bands (ev):

   -30.0891 -13.7949 -13.7864 -13.7828   2.9685   3.4717   4.8708   5.2073
     5.6863

          k =-0.0909 0.9091-0.0909 (  1307 PWs)   bands (ev):

   -30.0888 -13.7925 -13.7925 -13.7837   3.3084   3.3084   4.7192   5.5036
     5.5036

          k = 0.0000 0.0000 0.9091 (  1308 PWs)   bands (ev):

   -30.0885 -13.7918 -13.7909 -13.7909   3.2876   3.4461   5.2346   5.2681
     5.2682

     the Fermi energy is     1.7644 ev

!    total energy              =     -58.73998229 Ry
     Harris-Foulkes estimate   =     -58.73998229 Ry
     estimated scf accuracy    <          1.2E-09 Ry

     The total energy is the sum of the following terms:

     one-electron contribution =     -36.65015189 Ry
     hartree contribution      =      18.82325321 Ry
     xc contribution           =     -11.01630454 Ry
     ewald contribution        =     -29.89633973 Ry
     smearing contrib. (-TS)   =      -0.00043935 Ry

     convergence has been achieved in   5 iterations

     Forces acting on atoms (cartesian axes, Ry/au):

     atom    1 type  1   force =     0.00000000    0.00000000    0.00000000

     Total force =     0.000000     Total SCF correction =     0.000000


     Computing stress (Cartesian axis) and pressure

          total   stress  (Ry/bohr**3)                   (kbar)     P=   -8.99
  -0.00006112   0.00000000  -0.00000000         -8.99      0.00     -0.00
   0.00000000  -0.00006112   0.00000000          0.00     -8.99      0.00
  -0.00000000   0.00000000  -0.00006112         -0.00      0.00     -8.99


     Writing output data file K.save/

     init_run     :      0.32s CPU      0.34s WALL (       1 calls)
     electrons    :      4.09s CPU      4.27s WALL (       1 calls)
     forces       :      0.09s CPU      0.09s WALL (       1 calls)
     stress       :      0.32s CPU      0.32s WALL (       1 calls)

     Called by init_run:
     wfcinit      :      0.18s CPU      0.19s WALL (       1 calls)
     potinit      :      0.00s CPU      0.01s WALL (       1 calls)
     hinit0       :      0.12s CPU      0.12s WALL (       1 calls)

     Called by electrons:
     c_bands      :      3.45s CPU      3.60s WALL (       6 calls)
     sum_band     :      0.58s CPU      0.60s WALL (       6 calls)
     v_of_rho     :      0.01s CPU      0.01s WALL (       6 calls)
     newd         :      0.06s CPU      0.07s WALL (       6 calls)
     mix_rho      :      0.00s CPU      0.00s WALL (       6 calls)

     Called by c_bands:
     init_us_2    :      0.13s CPU      0.14s WALL (     840 calls)
     cegterg      :      3.28s CPU      3.43s WALL (     336 calls)

     Called by sum_band:
     sum_band:bec :      0.00s CPU      0.00s WALL (     336 calls)
     addusdens    :      0.06s CPU      0.06s WALL (       6 calls)

     Called by *egterg:
     h_psi        :      2.55s CPU      2.66s WALL (    1544 calls)
     s_psi        :      0.09s CPU      0.09s WALL (    1544 calls)
     g_psi        :      0.01s CPU      0.01s WALL (    1152 calls)
     cdiaghg      :      0.31s CPU      0.33s WALL (    1432 calls)

     Called by h_psi:
     h_psi:pot    :      2.53s CPU      2.65s WALL (    1544 calls)
     h_psi:calbec :      0.14s CPU      0.14s WALL (    1544 calls)
     vloc_psi     :      2.30s CPU      2.40s WALL (    1544 calls)
     add_vuspsi   :      0.09s CPU      0.09s WALL (    1544 calls)

     General routines
     calbec       :      0.24s CPU      0.24s WALL (    2160 calls)
     fft          :      0.01s CPU      0.01s WALL (      34 calls)
     ffts         :      0.00s CPU      0.00s WALL (       6 calls)
     fftw         :      2.53s CPU      2.64s WALL (   20656 calls)

     Parallel routines
     fft_scatt_xy :      0.21s CPU      0.22s WALL (   20696 calls)
     fft_scatt_yz :      0.68s CPU      0.70s WALL (   20696 calls)

     PWSCF        :     5.59s CPU         5.85s WALL


   This run was terminated on:   0:19:42   8Apr2024            

=------------------------------------------------------------------------------=
   JOB DONE.
=------------------------------------------------------------------------------=
