
     Program PWSCF v.6.3MaX starts on  8Apr2024 at  0:57:34 

     This program is part of the open-source Quantum ESPRESSO suite
     for quantum simulation of materials; please cite
         "P. Giannozzi et al., J. Phys.:Condens. Matter 21 395502 (2009);
         "P. Giannozzi et al., J. Phys.:Condens. Matter 29 465901 (2017);
          URL http://www.quantum-espresso.org", 
     in publications or presentations arising from this work. More details at
     http://www.quantum-espresso.org/quote

     Parallel version (MPI), running on     5 processors

     MPI processes distributed on     1 nodes
     R & G space division:  proc/nbgrp/npool/nimage =       5
     Waiting for input...
     Reading input from standard input

     Current dimensions of program PWSCF are:
     Max number of different atomic species (ntypx) = 10
     Max number of k-points (npk) =  40000
     Max angular momentum in pseudopotentials (lmaxx) =  3
               file K.pz-spn-kjpaw_psl.1.0.0.UPF: wavefunction(s)  3S renormalized

     Subspace diagonalization in iterative solution of the eigenvalue problem:
     a serial algorithm will be used


     Parallelization info
     --------------------
     sticks:   dense  smooth     PW     G-vecs:    dense   smooth      PW
     Min         307     307     89                 7577     7577    1179
     Max         307     307     91                 7578     7578    1179
     Sum        1535    1535    449                37887    37887    5895



     bravais-lattice index     =            3
     lattice parameter (alat)  =       9.8600  a.u.
     unit-cell volume          =     479.2926 (a.u.)^3
     number of atoms/cell      =            1
     number of atomic types    =            1
     number of electrons       =         9.00
     number of Kohn-Sham states=            9
     kinetic-energy cutoff     =      70.0000  Ry
     charge density cutoff     =     280.0000  Ry
     convergence threshold     =      1.0E-08
     mixing beta               =       0.7000
     number of iterations used =            8  plain     mixing
     Exchange-correlation      = SLA PZ NOGX NOGC ( 1  1  0  0 0 0)

     celldm(1)=   9.860000  celldm(2)=   0.000000  celldm(3)=   0.000000
     celldm(4)=   0.000000  celldm(5)=   0.000000  celldm(6)=   0.000000

     crystal axes: (cart. coord. in units of alat)
               a(1) = (   0.500000   0.500000   0.500000 )  
               a(2) = (  -0.500000   0.500000   0.500000 )  
               a(3) = (  -0.500000  -0.500000   0.500000 )  

     reciprocal axes: (cart. coord. in units 2 pi/alat)
               b(1) = (  1.000000  0.000000  1.000000 )  
               b(2) = ( -1.000000  1.000000  0.000000 )  
               b(3) = (  0.000000 -1.000000  1.000000 )  


     PseudoPot. # 1 for K  read from file:
     /home/lorenzo/pseudos/K/K.pz-spn-kjpaw_psl.1.0.0.UPF
     MD5 check sum: 59b94f4c1a6681f21e103574f2c5fc67
     Pseudo is Projector augmented-wave + core cor, Zval =  9.0
     Generated using "atomic" code by A. Dal Corso v.6.2.2
     Shape of augmentation charge: PSQ
     Using radial grid of 1165 points,  6 beta functions with: 
                l(1) =   0
                l(2) =   0
                l(3) =   1
                l(4) =   1
                l(5) =   2
                l(6) =   2
     Q(r) pseudized with 0 coefficients 


     atomic species   valence    mass     pseudopotential
        K              9.00    39.09830     K ( 1.00)

     48 Sym. Ops., with inversion, found



   Cartesian axes

     site n.     atom                  positions (alat units)
         1           K   tau(   1) = (   0.0000000   0.0000000   0.0000000  )

     number of k points=    16  gaussian smearing, width (Ry)=  0.0100
                       cart. coord. in units 2pi/alat
        k(    1) = (   0.0000000   0.0000000   0.0000000), wk =   0.0092593
        k(    2) = (   0.0000000  -0.1666667   0.1666667), wk =   0.1111111
        k(    3) = (   0.0000000  -0.3333333   0.3333333), wk =   0.1111111
        k(    4) = (   0.0000000   0.5000000  -0.5000000), wk =   0.0555556
        k(    5) = (  -0.1666667  -0.1666667   0.3333333), wk =   0.2222222
        k(    6) = (  -0.1666667   0.6666667  -0.5000000), wk =   0.4444444
        k(    7) = (  -0.3333333   0.6666667  -0.3333333), wk =   0.0740741
        k(    8) = (   0.0000000   0.0000000   0.3333333), wk =   0.0555556
        k(    9) = (   0.0000000  -0.1666667   0.5000000), wk =   0.2222222
        k(   10) = (   0.0000000   0.6666667  -0.3333333), wk =   0.1111111
        k(   11) = (  -0.1666667   0.8333333  -0.3333333), wk =   0.2222222
        k(   12) = (   0.6666667  -0.6666667   0.3333333), wk =   0.0740741
        k(   13) = (   0.5000000  -0.5000000   0.3333333), wk =   0.1111111
        k(   14) = (   0.0000000   0.0000000   0.6666667), wk =   0.0555556
        k(   15) = (   0.0000000   0.8333333  -0.1666667), wk =   0.1111111
        k(   16) = (   0.0000000   0.0000000  -1.0000000), wk =   0.0092593

     Dense  grid:    37887 G-vectors     FFT dimensions: (  45,  45,  45)

     Estimated max dynamical RAM per process >      32.22 MB

     Estimated total dynamical RAM >     161.12 MB

     Check: negative/imaginary core charge=   -0.000003    0.000000

     Initial potential from superposition of free atoms

     starting charge    8.98437, renormalised to    9.00000
     Starting wfcs are    8 randomized atomic wfcs +    1 random wfcs
     Checking if some PAW data can be deallocated... 

     total cpu time spent up to now is        1.3 secs

     Self-consistent Calculation

     iteration #  1     ecut=    70.00 Ry     beta= 0.70
     Davidson diagonalization with overlap
     ethr =  1.00E-02,  avg # of iterations =  6.6

     Threshold (ethr) on eigenvalues was too large:
     Diagonalizing with lowered threshold

     Davidson diagonalization with overlap
     ethr =  1.22E-05,  avg # of iterations =  6.3

     total cpu time spent up to now is        3.2 secs

     total energy              =    -109.87064671 Ry
     Harris-Foulkes estimate   =    -109.87119416 Ry
     estimated scf accuracy    <       0.00109640 Ry

     iteration #  2     ecut=    70.00 Ry     beta= 0.70
     Davidson diagonalization with overlap
     ethr =  1.22E-05,  avg # of iterations =  2.1

     total cpu time spent up to now is        3.9 secs

     total energy              =    -109.87083181 Ry
     Harris-Foulkes estimate   =    -109.87085665 Ry
     estimated scf accuracy    <       0.00008871 Ry

     iteration #  3     ecut=    70.00 Ry     beta= 0.70
     Davidson diagonalization with overlap
     ethr =  9.86E-07,  avg # of iterations =  2.4

     total cpu time spent up to now is        4.6 secs

     total energy              =    -109.87084312 Ry
     Harris-Foulkes estimate   =    -109.87084284 Ry
     estimated scf accuracy    <       0.00000592 Ry

     iteration #  4     ecut=    70.00 Ry     beta= 0.70
     Davidson diagonalization with overlap
     ethr =  6.57E-08,  avg # of iterations =  1.4

     total cpu time spent up to now is        5.2 secs

     total energy              =    -109.87084382 Ry
     Harris-Foulkes estimate   =    -109.87084381 Ry
     estimated scf accuracy    <       0.00000004 Ry

     iteration #  5     ecut=    70.00 Ry     beta= 0.70
     Davidson diagonalization with overlap
     ethr =  4.51E-10,  avg # of iterations =  2.4

     total cpu time spent up to now is        5.8 secs

     End of self-consistent calculation

          k = 0.0000 0.0000 0.0000 (  4753 PWs)   bands (ev):

   -30.0972 -13.7357 -13.7357 -13.7357  -0.4766   5.9289   5.9289   5.9289
     6.8754

          k = 0.0000-0.1667 0.1667 (  4743 PWs)   bands (ev):

   -30.0959 -13.7560 -13.7424 -13.7357  -0.1232   5.3545   5.5695   6.2125
     6.6289

          k = 0.0000-0.3333 0.3333 (  4762 PWs)   bands (ev):

   -30.0934 -13.7958 -13.7559 -13.7357   0.8680   3.9019   5.0444   6.7056
     7.0230

          k = 0.0000 0.5000-0.5000 (  4738 PWs)   bands (ev):

   -30.0920 -13.8155 -13.7625 -13.7356   2.1433   2.4885   4.8352   6.5325
     7.3582

          k =-0.1667-0.1667 0.3333 (  4744 PWs)   bands (ev):

   -30.0940 -13.7830 -13.7508 -13.7403   0.5513   4.5551   4.9191   6.5131
     6.6125

          k =-0.1667 0.6667-0.5000 (  4734 PWs)   bands (ev):

   -30.0920 -13.8053 -13.7665 -13.7419   1.7704   3.2644   4.4359   6.3535
     7.0068

          k =-0.3333 0.6667-0.3333 (  4724 PWs)   bands (ev):

   -30.0914 -13.7906 -13.7906 -13.7457   2.9759   2.9759   3.3018   6.2471
     7.0175

          k = 0.0000 0.0000 0.3333 (  4741 PWs)   bands (ev):

   -30.0947 -13.7596 -13.7494 -13.7494   0.2202   5.4561   5.4561   5.4650
     6.3317

          k = 0.0000-0.1667 0.5000 (  4729 PWs)   bands (ev):

   -30.0923 -13.7922 -13.7633 -13.7510   1.1837   4.0437   5.1097   5.5969
     6.9423

          k = 0.0000 0.6667-0.3333 (  4730 PWs)   bands (ev):

   -30.0910 -13.8099 -13.7702 -13.7502   2.4997   2.6359   4.9459   5.4359
     6.9574

          k =-0.1667 0.8333-0.3333 (  4735 PWs)   bands (ev):

   -30.0905 -13.8001 -13.7823 -13.7563   2.3154   3.4574   4.1424   5.9586
     6.4091

          k = 0.6667-0.6667 0.3333 (  4750 PWs)   bands (ev):

   -30.0926 -13.7985 -13.7535 -13.7535   1.4907   4.0002   4.0003   6.0846
     7.2191

          k = 0.5000-0.5000 0.3333 (  4748 PWs)   bands (ev):

   -30.0918 -13.7948 -13.7716 -13.7549   2.8135   2.8191   3.8181   5.3876
     7.3202

          k = 0.0000 0.0000 0.6667 (  4753 PWs)   bands (ev):

   -30.0901 -13.7882 -13.7782 -13.7782   2.0409   3.9448   5.1733   5.1733
     5.7571

          k = 0.0000 0.8333-0.1667 (  4720 PWs)   bands (ev):

   -30.0890 -13.7988 -13.7856 -13.7790   3.0505   3.2525   4.7480   5.1707
     5.9418

          k = 0.0000 0.0000-1.0000 (  4706 PWs)   bands (ev):

   -30.0880 -13.7932 -13.7932 -13.7932   3.4014   5.2834   5.2834   5.2834
     7.2562

     the Fermi energy is     1.7553 ev

!    total energy              =    -109.87084383 Ry
     Harris-Foulkes estimate   =    -109.87084384 Ry
     estimated scf accuracy    <          3.8E-09 Ry

     total all-electron energy =     -1201.195844 Ry

     The total energy is the sum of the following terms:

     one-electron contribution =     -35.36902395 Ry
     hartree contribution      =      18.82649978 Ry
     xc contribution           =     -11.01696485 Ry
     ewald contribution        =     -29.89633970 Ry
     one-center paw contrib.   =     -52.41376992 Ry
     smearing contrib. (-TS)   =      -0.00124521 Ry

     convergence has been achieved in   5 iterations

     Forces acting on atoms (cartesian axes, Ry/au):

     atom    1 type  1   force =     0.00000000    0.00000000    0.00000000

     Total force =     0.000000     Total SCF correction =     0.000000


     Computing stress (Cartesian axis) and pressure

          total   stress  (Ry/bohr**3)                   (kbar)     P=   -3.65
  -0.00002484  -0.00000000   0.00000000         -3.65     -0.00      0.00
  -0.00000000  -0.00002484  -0.00000000         -0.00     -3.65     -0.00
   0.00000000  -0.00000000  -0.00002484          0.00     -0.00     -3.65


     Writing output data file K.save/

     init_run     :      0.51s CPU      0.54s WALL (       1 calls)
     electrons    :      4.42s CPU      4.58s WALL (       1 calls)
     forces       :      0.12s CPU      0.12s WALL (       1 calls)
     stress       :      0.44s CPU      0.45s WALL (       1 calls)

     Called by init_run:
     wfcinit      :      0.18s CPU      0.19s WALL (       1 calls)
     potinit      :      0.05s CPU      0.05s WALL (       1 calls)
     hinit0       :      0.20s CPU      0.20s WALL (       1 calls)

     Called by electrons:
     c_bands      :      3.24s CPU      3.37s WALL (       6 calls)
     sum_band     :      0.77s CPU      0.79s WALL (       6 calls)
     v_of_rho     :      0.02s CPU      0.02s WALL (       6 calls)
     newd         :      0.23s CPU      0.24s WALL (       6 calls)
     PAW_pot      :      0.23s CPU      0.23s WALL (       6 calls)
     mix_rho      :      0.01s CPU      0.01s WALL (       6 calls)

     Called by c_bands:
     init_us_2    :      0.14s CPU      0.14s WALL (     240 calls)
     cegterg      :      3.07s CPU      3.20s WALL (      96 calls)

     Called by sum_band:
     sum_band:bec :      0.00s CPU      0.00s WALL (      96 calls)
     addusdens    :      0.20s CPU      0.21s WALL (       6 calls)

     Called by *egterg:
     h_psi        :      2.52s CPU      2.64s WALL (     453 calls)
     s_psi        :      0.09s CPU      0.09s WALL (     453 calls)
     g_psi        :      0.01s CPU      0.01s WALL (     341 calls)
     cdiaghg      :      0.10s CPU      0.11s WALL (     421 calls)

     Called by h_psi:
     h_psi:pot    :      2.50s CPU      2.63s WALL (     453 calls)
     h_psi:calbec :      0.16s CPU      0.16s WALL (     453 calls)
     vloc_psi     :      2.24s CPU      2.36s WALL (     453 calls)
     add_vuspsi   :      0.10s CPU      0.10s WALL (     453 calls)

     General routines
     calbec       :      0.26s CPU      0.27s WALL (     629 calls)
     fft          :      0.04s CPU      0.04s WALL (      34 calls)
     ffts         :      0.00s CPU      0.00s WALL (       6 calls)
     fftw         :      2.48s CPU      2.59s WALL (    6032 calls)

     Parallel routines
     fft_scatt_xy :      0.19s CPU      0.20s WALL (    6072 calls)
     fft_scatt_yz :      0.60s CPU      0.64s WALL (    6072 calls)

     PWSCF        :     6.24s CPU         6.47s WALL


   This run was terminated on:   0:57:41   8Apr2024            

=------------------------------------------------------------------------------=
   JOB DONE.
=------------------------------------------------------------------------------=
