
     Program PWSCF v.6.3MaX starts on  8Apr2024 at  0:14: 4 

     This program is part of the open-source Quantum ESPRESSO suite
     for quantum simulation of materials; please cite
         "P. Giannozzi et al., J. Phys.:Condens. Matter 21 395502 (2009);
         "P. Giannozzi et al., J. Phys.:Condens. Matter 29 465901 (2017);
          URL http://www.quantum-espresso.org", 
     in publications or presentations arising from this work. More details at
     http://www.quantum-espresso.org/quote

     Parallel version (MPI), running on     5 processors

     MPI processes distributed on     1 nodes
     R & G space division:  proc/nbgrp/npool/nimage =       5
     Waiting for input...
     Reading input from standard input

     Current dimensions of program PWSCF are:
     Max number of different atomic species (ntypx) = 10
     Max number of k-points (npk) =  40000
     Max angular momentum in pseudopotentials (lmaxx) =  3
               file K.pbe-spn-kjpaw_psl.1.0.0.UPF: wavefunction(s)  3S renormalized

     Subspace diagonalization in iterative solution of the eigenvalue problem:
     a serial algorithm will be used


     Parallelization info
     --------------------
     sticks:   dense  smooth     PW     G-vecs:    dense   smooth      PW
     Min          66      66     20                  756      756     136
     Max          67      67     21                  757      757     137
     Sum         333     333    103                 3781     3781     683



     bravais-lattice index     =            3
     lattice parameter (alat)  =       9.8600  a.u.
     unit-cell volume          =     479.2926 (a.u.)^3
     number of atoms/cell      =            1
     number of atomic types    =            1
     number of electrons       =         9.00
     number of Kohn-Sham states=            9
     kinetic-energy cutoff     =      15.0000  Ry
     charge density cutoff     =      60.0000  Ry
     convergence threshold     =      1.0E-08
     mixing beta               =       0.7000
     number of iterations used =            8  plain     mixing
     Exchange-correlation      = SLA PW PBX PBC ( 1  4  3  4 0 0)

     celldm(1)=   9.860000  celldm(2)=   0.000000  celldm(3)=   0.000000
     celldm(4)=   0.000000  celldm(5)=   0.000000  celldm(6)=   0.000000

     crystal axes: (cart. coord. in units of alat)
               a(1) = (   0.500000   0.500000   0.500000 )  
               a(2) = (  -0.500000   0.500000   0.500000 )  
               a(3) = (  -0.500000  -0.500000   0.500000 )  

     reciprocal axes: (cart. coord. in units 2 pi/alat)
               b(1) = (  1.000000  0.000000  1.000000 )  
               b(2) = ( -1.000000  1.000000  0.000000 )  
               b(3) = (  0.000000 -1.000000  1.000000 )  


     PseudoPot. # 1 for K  read from file:
     /home/lorenzo/pseudos/K/K.pbe-spn-kjpaw_psl.1.0.0.UPF
     MD5 check sum: 34cc42130a09071ebe376fd42eb21491
     Pseudo is Projector augmented-wave + core cor, Zval =  9.0
     Generated using "atomic" code by A. Dal Corso v.6.2.2
     Shape of augmentation charge: PSQ
     Using radial grid of 1165 points,  6 beta functions with: 
                l(1) =   0
                l(2) =   0
                l(3) =   1
                l(4) =   1
                l(5) =   2
                l(6) =   2
     Q(r) pseudized with 0 coefficients 


     atomic species   valence    mass     pseudopotential
        K              9.00    39.09830     K ( 1.00)

     48 Sym. Ops., with inversion, found



   Cartesian axes

     site n.     atom                  positions (alat units)
         1           K   tau(   1) = (   0.0000000   0.0000000   0.0000000  )

     number of k points=    35  gaussian smearing, width (Ry)=  0.0100
                       cart. coord. in units 2pi/alat
        k(    1) = (   0.0000000   0.0000000   0.0000000), wk =   0.0027435
        k(    2) = (   0.0000000  -0.1111111   0.1111111), wk =   0.0329218
        k(    3) = (   0.0000000  -0.2222222   0.2222222), wk =   0.0329218
        k(    4) = (   0.0000000  -0.3333333   0.3333333), wk =   0.0329218
        k(    5) = (   0.0000000  -0.4444444   0.4444444), wk =   0.0329218
        k(    6) = (  -0.1111111  -0.1111111   0.2222222), wk =   0.0658436
        k(    7) = (  -0.1111111  -0.2222222   0.3333333), wk =   0.1316872
        k(    8) = (  -0.1111111  -0.3333333   0.4444444), wk =   0.1316872
        k(    9) = (  -0.1111111   0.5555556  -0.4444444), wk =   0.0658436
        k(   10) = (  -0.2222222  -0.2222222   0.4444444), wk =   0.0658436
        k(   11) = (  -0.2222222   0.6666667  -0.4444444), wk =   0.1316872
        k(   12) = (  -0.3333333   0.6666667  -0.3333333), wk =   0.0219479
        k(   13) = (   0.0000000   0.0000000   0.2222222), wk =   0.0164609
        k(   14) = (   0.0000000  -0.1111111   0.3333333), wk =   0.0658436
        k(   15) = (   0.0000000  -0.2222222   0.4444444), wk =   0.0658436
        k(   16) = (   0.0000000  -0.3333333   0.5555556), wk =   0.0658436
        k(   17) = (  -0.1111111  -0.1111111   0.4444444), wk =   0.0658436
        k(   18) = (  -0.1111111  -0.2222222   0.5555556), wk =   0.1316872
        k(   19) = (  -0.1111111   0.6666667  -0.3333333), wk =   0.0658436
        k(   20) = (  -0.2222222   0.2222222   0.2222222), wk =   0.0219479
        k(   21) = (  -0.2222222   0.7777778  -0.3333333), wk =   0.0658436
        k(   22) = (  -0.3333333   0.3333333   0.2222222), wk =   0.0658436
        k(   23) = (   0.5555556  -0.5555556   0.2222222), wk =   0.0658436
        k(   24) = (   0.5555556  -0.6666667   0.3333333), wk =   0.0658436
        k(   25) = (   0.4444444  -0.5555556   0.3333333), wk =   0.0658436
        k(   26) = (   0.0000000   0.0000000   0.4444444), wk =   0.0164609
        k(   27) = (   0.0000000  -0.1111111   0.5555556), wk =   0.0658436
        k(   28) = (   0.0000000  -0.2222222   0.6666667), wk =   0.0658436
        k(   29) = (  -0.1111111  -0.1111111   0.6666667), wk =   0.0658436
        k(   30) = (  -0.1111111   0.7777778  -0.2222222), wk =   0.0658436
        k(   31) = (   0.5555556  -0.5555556   0.4444444), wk =   0.0219479
        k(   32) = (   0.0000000   0.0000000   0.6666667), wk =   0.0164609
        k(   33) = (   0.0000000  -0.1111111   0.7777778), wk =   0.0658436
        k(   34) = (  -0.1111111   0.8888889  -0.1111111), wk =   0.0219479
        k(   35) = (   0.0000000   0.0000000   0.8888889), wk =   0.0164609

     Dense  grid:     3781 G-vectors     FFT dimensions: (  24,  24,  24)

     Estimated max dynamical RAM per process >       4.30 MB

     Estimated total dynamical RAM >      21.51 MB

     Check: negative/imaginary core charge=   -0.000363    0.000000

     Initial potential from superposition of free atoms

     starting charge    8.98117, renormalised to    9.00000
     Starting wfcs are    8 randomized atomic wfcs +    1 random wfcs
     Checking if some PAW data can be deallocated... 

     total cpu time spent up to now is        1.0 secs

     Self-consistent Calculation

     iteration #  1     ecut=    15.00 Ry     beta= 0.70
     Davidson diagonalization with overlap
     ethr =  1.00E-02,  avg # of iterations =  6.6

     Threshold (ethr) on eigenvalues was too large:
     Diagonalizing with lowered threshold

     Davidson diagonalization with overlap
     ethr =  5.00E-04,  avg # of iterations =  1.8

     total cpu time spent up to now is        1.7 secs

     total energy              =    -112.65646769 Ry
     Harris-Foulkes estimate   =    -112.69109455 Ry
     estimated scf accuracy    <       0.04622855 Ry

     iteration #  2     ecut=    15.00 Ry     beta= 0.70
     Davidson diagonalization with overlap
     ethr =  5.14E-04,  avg # of iterations =  2.1

     total cpu time spent up to now is        2.0 secs

     total energy              =    -112.66800530 Ry
     Harris-Foulkes estimate   =    -112.66865578 Ry
     estimated scf accuracy    <       0.00280376 Ry

     iteration #  3     ecut=    15.00 Ry     beta= 0.70
     Davidson diagonalization with overlap
     ethr =  3.12E-05,  avg # of iterations =  4.0

     total cpu time spent up to now is        2.4 secs

     total energy              =    -112.66826320 Ry
     Harris-Foulkes estimate   =    -112.66823596 Ry
     estimated scf accuracy    <       0.00016430 Ry

     iteration #  4     ecut=    15.00 Ry     beta= 0.70
     Davidson diagonalization with overlap
     ethr =  1.83E-06,  avg # of iterations =  3.9

     total cpu time spent up to now is        2.8 secs

     total energy              =    -112.66826724 Ry
     Harris-Foulkes estimate   =    -112.66826738 Ry
     estimated scf accuracy    <       0.00000030 Ry

     iteration #  5     ecut=    15.00 Ry     beta= 0.70
     Davidson diagonalization with overlap
     ethr =  3.39E-09,  avg # of iterations =  2.4

     total cpu time spent up to now is        3.1 secs

     total energy              =    -112.66826746 Ry
     Harris-Foulkes estimate   =    -112.66826747 Ry
     estimated scf accuracy    <       0.00000002 Ry

     iteration #  6     ecut=    15.00 Ry     beta= 0.70
     Davidson diagonalization with overlap
     ethr =  1.76E-10,  avg # of iterations =  2.0

     total cpu time spent up to now is        3.4 secs

     End of self-consistent calculation

          k = 0.0000 0.0000 0.0000 (   459 PWs)   bands (ev):

   -31.2972 -13.4726 -13.4726 -13.4726  -0.5464   6.6483   6.6483   6.6483
     7.7166

          k = 0.0000-0.1111 0.1111 (   471 PWs)   bands (ev):

   -31.2967 -13.5848 -13.5275 -13.5146  -0.3859   6.2598   6.3847   6.7490
     7.3904

          k = 0.0000-0.2222 0.2222 (   467 PWs)   bands (ev):

   -31.2954 -13.5670 -13.5450 -13.4998   0.0830   5.2116   5.9116   7.1356
     7.4435

          k = 0.0000-0.3333 0.3333 (   474 PWs)   bands (ev):

   -31.2941 -13.6385 -13.6188 -13.5331   0.8187   4.0281   5.5049   7.3797
     7.4870

          k = 0.0000-0.4444 0.4444 (   472 PWs)   bands (ev):

   -31.2931 -13.6495 -13.6402 -13.4946   1.7627   2.8787   5.2978   7.1700
     7.7003

          k =-0.1111-0.1111 0.2222 (   463 PWs)   bands (ev):

   -31.2958 -13.5358 -13.5119 -13.4826  -0.0704   5.6485   5.8957   6.9937
     7.1995

          k =-0.1111-0.2222 0.3333 (   469 PWs)   bands (ev):

   -31.2945 -13.6052 -13.5617 -13.5168   0.5340   4.6328   5.3824   7.1307
     7.3234

          k =-0.1111-0.3333 0.4444 (   471 PWs)   bands (ev):

   -31.2933 -13.6533 -13.5974 -13.5150   1.3778   3.5149   5.0738   6.9281
     7.6777

          k =-0.1111 0.5556-0.4444 (   465 PWs)   bands (ev):

   -31.2928 -13.6217 -13.5490 -13.5053   2.2969   2.5141   4.9791   6.7775
     7.9726

          k =-0.2222-0.2222 0.4444 (   469 PWs)   bands (ev):

   -31.2934 -13.6279 -13.5539 -13.5475   1.2477   4.0668   4.6135   6.9451
     7.3452

          k =-0.2222 0.6667-0.4444 (   474 PWs)   bands (ev):

   -31.2927 -13.6503 -13.6142 -13.5811   2.1668   3.1824   4.2164   6.6239
     7.6179

          k =-0.3333 0.6667-0.3333 (   475 PWs)   bands (ev):

   -31.2925 -13.6367 -13.6367 -13.5989   3.0044   3.0044   3.3821   6.5329
     7.8193

          k = 0.0000 0.0000 0.2222 (   470 PWs)   bands (ev):

   -31.2962 -13.5888 -13.5196 -13.5196  -0.2273   6.2077   6.2077   6.5566
     6.8453

          k = 0.0000-0.1111 0.3333 (   467 PWs)   bands (ev):

   -31.2950 -13.5950 -13.5289 -13.5107   0.2356   5.2629   5.8381   6.4264
     7.1972

          k = 0.0000-0.2222 0.4444 (   472 PWs)   bands (ev):

   -31.2937 -13.6384 -13.5692 -13.5629   0.9638   4.1084   5.4876   6.3765
     7.7371

          k = 0.0000-0.3333 0.5556 (   472 PWs)   bands (ev):

   -31.2927 -13.6576 -13.5787 -13.5595   1.8971   2.9853   5.2982   6.2237
     7.9955

          k =-0.1111-0.1111 0.4444 (   466 PWs)   bands (ev):

   -31.2937 -13.5962 -13.5455 -13.5230   0.8260   4.6103   5.2748   6.3718
     7.4441

          k =-0.1111-0.2222 0.5556 (   469 PWs)   bands (ev):

   -31.2926 -13.6413 -13.5787 -13.5350   1.6489   3.6814   4.8193   6.4001
     7.4114

          k =-0.1111 0.6667-0.3333 (   465 PWs)   bands (ev):

   -31.2922 -13.6407 -13.5719 -13.4925   2.6127   2.6615   4.6742   6.3313
     7.6917

          k =-0.2222 0.2222 0.2222 (   471 PWs)   bands (ev):

   -31.2948 -13.5758 -13.5666 -13.5666   0.3868   5.0962   5.0962   6.9970
     7.7496

          k =-0.2222 0.7778-0.3333 (   469 PWs)   bands (ev):

   -31.2920 -13.6460 -13.6282 -13.5079   2.5196   3.3299   3.8757   6.8730
     7.1590

          k =-0.3333 0.3333 0.2222 (   478 PWs)   bands (ev):

   -31.2937 -13.6674 -13.6020 -13.5963   1.1068   4.1307   4.7072   6.6355
     7.9337

          k = 0.5556-0.5556 0.2222 (   476 PWs)   bands (ev):

   -31.2930 -13.6512 -13.6129 -13.5949   2.0365   3.0887   4.5242   6.2633
     8.1342

          k = 0.5556-0.6667 0.3333 (   479 PWs)   bands (ev):

   -31.2931 -13.6795 -13.6312 -13.6049   1.9178   3.7020   4.0411   5.9122
     8.1208

          k = 0.4444-0.5556 0.3333 (   476 PWs)   bands (ev):

   -31.2928 -13.6527 -13.6154 -13.6072   2.8460   2.8982   3.8306   5.6292
     8.2441

          k = 0.0000 0.0000 0.4444 (   470 PWs)   bands (ev):

   -31.2939 -13.6002 -13.5591 -13.5591   0.6822   5.1376   5.6544   5.6544
     7.4311

          k = 0.0000-0.1111 0.5556 (   466 PWs)   bands (ev):

   -31.2926 -13.6273 -13.5463 -13.5251   1.3846   4.2763   5.4618   5.5830
     7.0312

          k = 0.0000-0.2222 0.6667 (   466 PWs)   bands (ev):

   -31.2917 -13.6300 -13.5660 -13.5324   2.2795   3.2754   5.3336   5.3454
     7.1290

          k =-0.1111-0.1111 0.6667 (   471 PWs)   bands (ev):

   -31.2916 -13.6298 -13.6178 -13.5737   2.1534   3.7953   4.6849   5.8994
     6.6145

          k =-0.1111 0.7778-0.2222 (   465 PWs)   bands (ev):

   -31.2912 -13.6393 -13.6036 -13.5025   2.9584   3.1312   4.3289   6.0145
     6.6956

          k = 0.5556-0.5556 0.4444 (   471 PWs)   bands (ev):

   -31.2928 -13.6043 -13.5986 -13.5986   2.7596   3.5300   3.5300   5.0170
     8.5065

          k = 0.0000 0.0000 0.6667 (   458 PWs)   bands (ev):

   -31.2913 -13.5433 -13.5433 -13.5225   2.0270   4.1397   5.3909   5.3909
     6.0330

          k = 0.0000-0.1111 0.7778 (   470 PWs)   bands (ev):

   -31.2907 -13.6561 -13.6347 -13.5574   2.8029   3.6029   4.9824   5.3215
     6.0828

          k =-0.1111 0.8889-0.1111 (   472 PWs)   bands (ev):

   -31.2903 -13.6658 -13.6658 -13.5703   3.3611   3.3611   4.5922   5.7446
     5.7446

          k = 0.0000 0.0000 0.8889 (   474 PWs)   bands (ev):

   -31.2899 -13.6751 -13.6348 -13.6348   3.3233   3.6187   5.3034   5.3079
     5.3079

     the Fermi energy is     1.7258 ev

!    total energy              =    -112.66826747 Ry
     Harris-Foulkes estimate   =    -112.66826747 Ry
     estimated scf accuracy    <          3.8E-11 Ry

     total all-electron energy =     -1203.906978 Ry

     The total energy is the sum of the following terms:

     one-electron contribution =     -34.77726897 Ry
     hartree contribution      =      18.42195099 Ry
     xc contribution           =     -11.13696166 Ry
     ewald contribution        =     -29.89633977 Ry
     one-center paw contrib.   =     -55.27922620 Ry
     smearing contrib. (-TS)   =      -0.00042185 Ry

     convergence has been achieved in   6 iterations

     Forces acting on atoms (cartesian axes, Ry/au):

     atom    1 type  1   force =     0.00000000    0.00000000    0.00000000

     Total force =     0.000000     Total SCF correction =     0.000000


     Computing stress (Cartesian axis) and pressure

          total   stress  (Ry/bohr**3)                   (kbar)     P= -293.10
  -0.00199243  -0.00000000   0.00000000       -293.10     -0.00      0.00
  -0.00000000  -0.00199243  -0.00000000         -0.00   -293.10     -0.00
   0.00000000  -0.00000000  -0.00199243          0.00     -0.00   -293.10


     Writing output data file K.save/

     init_run     :      0.27s CPU      0.29s WALL (       1 calls)
     electrons    :      2.18s CPU      2.39s WALL (       1 calls)
     forces       :      0.03s CPU      0.03s WALL (       1 calls)
     stress       :      0.08s CPU      0.08s WALL (       1 calls)

     Called by init_run:
     wfcinit      :      0.07s CPU      0.08s WALL (       1 calls)
     potinit      :      0.09s CPU      0.11s WALL (       1 calls)
     hinit0       :      0.08s CPU      0.08s WALL (       1 calls)

     Called by electrons:
     c_bands      :      1.31s CPU      1.40s WALL (       7 calls)
     sum_band     :      0.23s CPU      0.25s WALL (       7 calls)
     v_of_rho     :      0.02s CPU      0.02s WALL (       7 calls)
     newd         :      0.03s CPU      0.03s WALL (       7 calls)
     PAW_pot      :      0.68s CPU      0.79s WALL (       7 calls)
     mix_rho      :      0.00s CPU      0.00s WALL (       7 calls)

     Called by c_bands:
     init_us_2    :      0.04s CPU      0.04s WALL (     595 calls)
     cegterg      :      1.25s CPU      1.34s WALL (     245 calls)

     Called by sum_band:
     sum_band:bec :      0.00s CPU      0.00s WALL (     245 calls)
     addusdens    :      0.02s CPU      0.02s WALL (       7 calls)

     Called by *egterg:
     h_psi        :      0.93s CPU      1.00s WALL (    1080 calls)
     s_psi        :      0.03s CPU      0.03s WALL (    1080 calls)
     g_psi        :      0.00s CPU      0.00s WALL (     800 calls)
     cdiaghg      :      0.20s CPU      0.21s WALL (    1010 calls)

     Called by h_psi:
     h_psi:pot    :      0.92s CPU      0.99s WALL (    1080 calls)
     h_psi:calbec :      0.06s CPU      0.06s WALL (    1080 calls)
     vloc_psi     :      0.83s CPU      0.89s WALL (    1080 calls)
     add_vuspsi   :      0.03s CPU      0.03s WALL (    1080 calls)

     General routines
     calbec       :      0.09s CPU      0.10s WALL (    1500 calls)
     fft          :      0.02s CPU      0.02s WALL (     104 calls)
     ffts         :      0.00s CPU      0.00s WALL (       7 calls)
     fftw         :      0.92s CPU      0.99s WALL (   14519 calls)

     Parallel routines
     fft_scatt_xy :      0.08s CPU      0.09s WALL (   14630 calls)
     fft_scatt_yz :      0.31s CPU      0.32s WALL (   14630 calls)

     PWSCF        :     3.31s CPU         3.60s WALL


   This run was terminated on:   0:14: 7   8Apr2024            

=------------------------------------------------------------------------------=
   JOB DONE.
=------------------------------------------------------------------------------=
