
     Program PWSCF v.6.3MaX starts on  8Apr2024 at  0:25:55 

     This program is part of the open-source Quantum ESPRESSO suite
     for quantum simulation of materials; please cite
         "P. Giannozzi et al., J. Phys.:Condens. Matter 21 395502 (2009);
         "P. Giannozzi et al., J. Phys.:Condens. Matter 29 465901 (2017);
          URL http://www.quantum-espresso.org", 
     in publications or presentations arising from this work. More details at
     http://www.quantum-espresso.org/quote

     Parallel version (MPI), running on     5 processors

     MPI processes distributed on     1 nodes
     R & G space division:  proc/nbgrp/npool/nimage =       5
     Waiting for input...
     Reading input from standard input

     Current dimensions of program PWSCF are:
     Max number of different atomic species (ntypx) = 10
     Max number of k-points (npk) =  40000
     Max angular momentum in pseudopotentials (lmaxx) =  3
               file K.pz-spn-rrkjus_psl.1.0.0.UPF: wavefunction(s)  3S renormalized

     Subspace diagonalization in iterative solution of the eigenvalue problem:
     a serial algorithm will be used


     Parallelization info
     --------------------
     sticks:   dense  smooth     PW     G-vecs:    dense   smooth      PW
     Min         175     175     53                 3283     3283     546
     Max         175     175     53                 3283     3283     547
     Sum         875     875    265                16415    16415    2731



     bravais-lattice index     =            3
     lattice parameter (alat)  =       9.8600  a.u.
     unit-cell volume          =     479.2926 (a.u.)^3
     number of atoms/cell      =            1
     number of atomic types    =            1
     number of electrons       =         9.00
     number of Kohn-Sham states=            9
     kinetic-energy cutoff     =      40.0000  Ry
     charge density cutoff     =     160.0000  Ry
     convergence threshold     =      1.0E-08
     mixing beta               =       0.7000
     number of iterations used =            8  plain     mixing
     Exchange-correlation      = LDA ( 1  1  0  0 0 0)

     celldm(1)=   9.860000  celldm(2)=   0.000000  celldm(3)=   0.000000
     celldm(4)=   0.000000  celldm(5)=   0.000000  celldm(6)=   0.000000

     crystal axes: (cart. coord. in units of alat)
               a(1) = (   0.500000   0.500000   0.500000 )  
               a(2) = (  -0.500000   0.500000   0.500000 )  
               a(3) = (  -0.500000  -0.500000   0.500000 )  

     reciprocal axes: (cart. coord. in units 2 pi/alat)
               b(1) = (  1.000000  0.000000  1.000000 )  
               b(2) = ( -1.000000  1.000000  0.000000 )  
               b(3) = (  0.000000 -1.000000  1.000000 )  


     PseudoPot. # 1 for K  read from file:
     /home/lorenzo/pseudos/K/K.pz-spn-rrkjus_psl.1.0.0.UPF
     MD5 check sum: af434a66a3b91719abff201b8f79bb09
     Pseudo is Ultrasoft + core correction, Zval =  9.0
     Generated using "atomic" code by A. Dal Corso v.6.2.2
     Using radial grid of 1165 points,  6 beta functions with: 
                l(1) =   0
                l(2) =   0
                l(3) =   1
                l(4) =   1
                l(5) =   2
                l(6) =   2
     Q(r) pseudized with 0 coefficients 


     atomic species   valence    mass     pseudopotential
        K              9.00    39.09830     K ( 1.00)

     48 Sym. Ops., with inversion, found



   Cartesian axes

     site n.     atom                  positions (alat units)
         1           K   tau(   1) = (   0.0000000   0.0000000   0.0000000  )

     number of k points=    56  gaussian smearing, width (Ry)=  0.0100
                       cart. coord. in units 2pi/alat
        k(    1) = (   0.0000000   0.0000000   0.0000000), wk =   0.0015026
        k(    2) = (   0.0000000  -0.0909091   0.0909091), wk =   0.0180316
        k(    3) = (   0.0000000  -0.1818182   0.1818182), wk =   0.0180316
        k(    4) = (   0.0000000  -0.2727273   0.2727273), wk =   0.0180316
        k(    5) = (   0.0000000  -0.3636364   0.3636364), wk =   0.0180316
        k(    6) = (   0.0000000  -0.4545455   0.4545455), wk =   0.0180316
        k(    7) = (  -0.0909091  -0.0909091   0.1818182), wk =   0.0360631
        k(    8) = (  -0.0909091  -0.1818182   0.2727273), wk =   0.0721262
        k(    9) = (  -0.0909091  -0.2727273   0.3636364), wk =   0.0721262
        k(   10) = (  -0.0909091  -0.3636364   0.4545455), wk =   0.0721262
        k(   11) = (  -0.0909091   0.5454545  -0.4545455), wk =   0.0360631
        k(   12) = (  -0.1818182  -0.1818182   0.3636364), wk =   0.0360631
        k(   13) = (  -0.1818182  -0.2727273   0.4545455), wk =   0.0721262
        k(   14) = (  -0.1818182   0.6363636  -0.4545455), wk =   0.0721262
        k(   15) = (  -0.2727273   0.7272727  -0.4545455), wk =   0.0360631
        k(   16) = (  -0.2727273   0.6363636  -0.3636364), wk =   0.0360631
        k(   17) = (   0.0000000   0.0000000   0.1818182), wk =   0.0090158
        k(   18) = (   0.0000000  -0.0909091   0.2727273), wk =   0.0360631
        k(   19) = (   0.0000000  -0.1818182   0.3636364), wk =   0.0360631
        k(   20) = (   0.0000000  -0.2727273   0.4545455), wk =   0.0360631
        k(   21) = (   0.0000000  -0.3636364   0.5454545), wk =   0.0360631
        k(   22) = (  -0.0909091  -0.0909091   0.3636364), wk =   0.0360631
        k(   23) = (  -0.0909091  -0.1818182   0.4545455), wk =   0.0721262
        k(   24) = (  -0.0909091  -0.2727273   0.5454545), wk =   0.0721262
        k(   25) = (  -0.0909091   0.6363636  -0.3636364), wk =   0.0360631
        k(   26) = (  -0.1818182   0.1818182   0.1818182), wk =   0.0120210
        k(   27) = (  -0.1818182  -0.1818182   0.5454545), wk =   0.0360631
        k(   28) = (  -0.1818182   0.7272727  -0.3636364), wk =   0.0721262
        k(   29) = (  -0.2727273   0.2727273   0.1818182), wk =   0.0360631
        k(   30) = (  -0.2727273   0.7272727  -0.2727273), wk =   0.0120210
        k(   31) = (  -0.3636364   0.3636364   0.1818182), wk =   0.0360631
        k(   32) = (  -0.3636364   0.2727273   0.2727273), wk =   0.0360631
        k(   33) = (   0.5454545  -0.5454545   0.1818182), wk =   0.0360631
        k(   34) = (   0.5454545  -0.6363636   0.2727273), wk =   0.0721262
        k(   35) = (   0.4545455  -0.5454545   0.2727273), wk =   0.0360631
        k(   36) = (   0.4545455  -0.6363636   0.3636364), wk =   0.0360631
        k(   37) = (   0.0000000   0.0000000   0.3636364), wk =   0.0090158
        k(   38) = (   0.0000000  -0.0909091   0.4545455), wk =   0.0360631
        k(   39) = (   0.0000000  -0.1818182   0.5454545), wk =   0.0360631
        k(   40) = (   0.0000000  -0.2727273   0.6363636), wk =   0.0360631
        k(   41) = (  -0.0909091  -0.0909091   0.5454545), wk =   0.0360631
        k(   42) = (  -0.0909091  -0.1818182   0.6363636), wk =   0.0721262
        k(   43) = (  -0.0909091   0.7272727  -0.2727273), wk =   0.0360631
        k(   44) = (  -0.1818182   0.8181818  -0.2727273), wk =   0.0360631
        k(   45) = (   0.6363636  -0.6363636   0.3636364), wk =   0.0120210
        k(   46) = (   0.5454545  -0.5454545   0.3636364), wk =   0.0360631
        k(   47) = (   0.4545455  -0.5454545   0.4545455), wk =   0.0120210
        k(   48) = (   0.0000000   0.0000000   0.5454545), wk =   0.0090158
        k(   49) = (   0.0000000  -0.0909091   0.6363636), wk =   0.0360631
        k(   50) = (   0.0000000  -0.1818182   0.7272727), wk =   0.0360631
        k(   51) = (  -0.0909091  -0.0909091   0.7272727), wk =   0.0360631
        k(   52) = (  -0.0909091   0.8181818  -0.1818182), wk =   0.0360631
        k(   53) = (   0.0000000   0.0000000   0.7272727), wk =   0.0090158
        k(   54) = (   0.0000000  -0.0909091   0.8181818), wk =   0.0360631
        k(   55) = (  -0.0909091   0.9090909  -0.0909091), wk =   0.0120210
        k(   56) = (   0.0000000   0.0000000   0.9090909), wk =   0.0090158

     Dense  grid:    16415 G-vectors     FFT dimensions: (  36,  36,  36)

     Estimated max dynamical RAM per process >      17.05 MB

     Estimated total dynamical RAM >      85.26 MB

     Check: negative/imaginary core charge=   -0.000011    0.000000

     Initial potential from superposition of free atoms

     starting charge    8.98437, renormalised to    9.00000
     Starting wfcs are    8 randomized atomic wfcs +    1 random wfcs

     total cpu time spent up to now is        1.2 secs

     Self-consistent Calculation

     iteration #  1     ecut=    40.00 Ry     beta= 0.70
     Davidson diagonalization with overlap
     ethr =  1.00E-02,  avg # of iterations =  6.4

     Threshold (ethr) on eigenvalues was too large:
     Diagonalizing with lowered threshold

     Davidson diagonalization with overlap
     ethr =  1.26E-05,  avg # of iterations =  6.4

     total cpu time spent up to now is        4.2 secs

     total energy              =     -58.74163393 Ry
     Harris-Foulkes estimate   =     -58.74219840 Ry
     estimated scf accuracy    <       0.00113279 Ry

     iteration #  2     ecut=    40.00 Ry     beta= 0.70
     Davidson diagonalization with overlap
     ethr =  1.26E-05,  avg # of iterations =  2.2

     total cpu time spent up to now is        5.3 secs

     total energy              =     -58.74183025 Ry
     Harris-Foulkes estimate   =     -58.74184755 Ry
     estimated scf accuracy    <       0.00008870 Ry

     iteration #  3     ecut=    40.00 Ry     beta= 0.70
     Davidson diagonalization with overlap
     ethr =  9.86E-07,  avg # of iterations =  2.0

     total cpu time spent up to now is        6.2 secs

     total energy              =     -58.74183913 Ry
     Harris-Foulkes estimate   =     -58.74183838 Ry
     estimated scf accuracy    <       0.00000563 Ry

     iteration #  4     ecut=    40.00 Ry     beta= 0.70
     Davidson diagonalization with overlap
     ethr =  6.25E-08,  avg # of iterations =  1.5

     total cpu time spent up to now is        7.0 secs

     total energy              =     -58.74183967 Ry
     Harris-Foulkes estimate   =     -58.74183966 Ry
     estimated scf accuracy    <       0.00000003 Ry

     iteration #  5     ecut=    40.00 Ry     beta= 0.70
     Davidson diagonalization with overlap
     ethr =  3.80E-10,  avg # of iterations =  2.4

     total cpu time spent up to now is        7.9 secs

     End of self-consistent calculation

          k = 0.0000 0.0000 0.0000 (  2093 PWs)   bands (ev):

   -30.0960 -13.7345 -13.7345 -13.7345  -0.4764   5.9299   5.9299   5.9299
     6.8759

          k = 0.0000-0.0909 0.0909 (  2048 PWs)   bands (ev):

   -30.0954 -13.7409 -13.7366 -13.7345  -0.3701   5.7883   5.8046   6.0149
     6.7106

          k = 0.0000-0.1818 0.1818 (  2048 PWs)   bands (ev):

   -30.0943 -13.7581 -13.7423 -13.7345  -0.0572   5.2392   5.5180   6.2667
     6.6336

          k = 0.0000-0.2727 0.2727 (  2046 PWs)   bands (ev):

   -30.0929 -13.7804 -13.7498 -13.7344   0.4441   4.4580   5.2131   6.6758
     6.7020

          k = 0.0000-0.3636 0.3636 (  2048 PWs)   bands (ev):

   -30.0915 -13.8007 -13.7567 -13.7344   1.1027   3.6201   4.9775   6.6794
     7.0331

          k = 0.0000-0.4545 0.4545 (  2044 PWs)   bands (ev):

   -30.0907 -13.8127 -13.7608 -13.7344   1.8628   2.7791   4.8519   6.5565
     7.2844

          k =-0.0909-0.0909 0.1818 (  2057 PWs)   bands (ev):

   -30.0947 -13.7528 -13.7389 -13.7361  -0.1604   5.4780   5.5574   6.1755
     6.5398

          k =-0.0909-0.1818 0.2727 (  2053 PWs)   bands (ev):

   -30.0934 -13.7717 -13.7458 -13.7367   0.2471   4.8434   5.2247   6.4705
     6.5258

          k =-0.0909-0.2727 0.3636 (  2056 PWs)   bands (ev):

   -30.0920 -13.7916 -13.7541 -13.7368   0.8288   4.0627   4.9488   6.5550
     6.8839

          k =-0.0909-0.3636 0.4545 (  2042 PWs)   bands (ev):

   -30.0909 -13.8066 -13.7606 -13.7369   1.5462   3.2369   4.7700   6.4627
     7.1889

          k =-0.0909 0.5455-0.4545 (  2054 PWs)   bands (ev):

   -30.0906 -13.8121 -13.7631 -13.7369   2.2261   2.5235   4.7083   6.3756
     7.3352

          k =-0.1818-0.1818 0.3636 (  2050 PWs)   bands (ev):

   -30.0922 -13.7869 -13.7524 -13.7398   0.7362   4.3701   4.7838   6.5370
     6.6709

          k =-0.1818-0.2727 0.4545 (  2054 PWs)   bands (ev):

   -30.0911 -13.7989 -13.7619 -13.7411   1.3816   3.7289   4.4603   6.4867
     6.8027

          k =-0.1818 0.6364-0.4545 (  2058 PWs)   bands (ev):

   -30.0904 -13.8052 -13.7687 -13.7415   2.1361   2.9615   4.3053   6.2770
     7.0825

          k =-0.2727 0.7273-0.4545 (  2052 PWs)   bands (ev):

   -30.0903 -13.7995 -13.7737 -13.7435   2.0679   3.4209   3.8730   6.3498
     6.7919

          k =-0.2727 0.6364-0.3636 (  2046 PWs)   bands (ev):

   -30.0901 -13.7967 -13.7812 -13.7441   2.8107   2.8294   3.6398   6.2476
     6.9753

          k = 0.0000 0.0000 0.1818 (  2058 PWs)   bands (ev):

   -30.0951 -13.7428 -13.7388 -13.7388  -0.2646   5.7388   5.7388   6.0529
     6.3071

          k = 0.0000-0.0909 0.2727 (  2044 PWs)   bands (ev):

   -30.0939 -13.7582 -13.7446 -13.7397   0.0456   5.2732   5.5019   6.0818
     6.2779

          k = 0.0000-0.1818 0.3636 (  2047 PWs)   bands (ev):

   -30.0925 -13.7797 -13.7521 -13.7395   0.5428   4.4968   5.2244   6.1236
     6.6763

          k = 0.0000-0.2727 0.4545 (  2056 PWs)   bands (ev):

   -30.0912 -13.7994 -13.7591 -13.7393   1.1966   3.6724   5.0045   6.1315
     7.1780

          k = 0.0000-0.3636 0.5455 (  2049 PWs)   bands (ev):

   -30.0904 -13.8110 -13.7632 -13.7391   1.9555   2.8389   4.8861   6.0485
     7.2175

          k =-0.0909-0.0909 0.3636 (  2052 PWs)   bands (ev):

   -30.0927 -13.7728 -13.7511 -13.7434   0.4462   4.8105   5.2047   5.9530
     6.5342

          k =-0.0909-0.1818 0.4545 (  2048 PWs)   bands (ev):

   -30.0914 -13.7903 -13.7595 -13.7441   1.0180   4.1253   4.9029   6.0159
     6.8527

          k =-0.0909-0.2727 0.5455 (  2048 PWs)   bands (ev):

   -30.0903 -13.8038 -13.7663 -13.7441   1.7250   3.3486   4.7028   5.9704
     6.9689

          k =-0.0909 0.6364-0.3636 (  2048 PWs)   bands (ev):

   -30.0900 -13.8088 -13.7689 -13.7440   2.4389   2.6121   4.6314   5.9037
     7.0927

          k =-0.1818 0.1818 0.1818 (  2057 PWs)   bands (ev):

   -30.0938 -13.7691 -13.7393 -13.7393   0.1468   5.0948   5.0948   6.3988
     6.8307

          k =-0.1818-0.1818 0.5455 (  2050 PWs)   bands (ev):

   -30.0903 -13.7982 -13.7701 -13.7462   1.6452   3.7305   4.3586   6.1936
     6.6414

          k =-0.1818 0.7273-0.3636 (  2055 PWs)   bands (ev):

   -30.0897 -13.8014 -13.7787 -13.7468   2.3795   3.1361   4.0207   6.2274
     6.7658

          k =-0.2727 0.2727 0.1818 (  2051 PWs)   bands (ev):

   -30.0925 -13.7860 -13.7478 -13.7397   0.6404   4.4426   4.7731   6.6032
     6.8889

          k =-0.2727 0.7273-0.2727 (  2043 PWs)   bands (ev):

   -30.0894 -13.7920 -13.7920 -13.7474   2.9988   2.9988   3.4321   6.6470
     6.8086

          k =-0.3636 0.3636 0.1818 (  2049 PWs)   bands (ev):

   -30.0913 -13.7994 -13.7575 -13.7402   1.2911   3.6971   4.5489   6.5151
     7.0907

          k =-0.3636 0.2727 0.2727 (  2053 PWs)   bands (ev):

   -30.0915 -13.7959 -13.7542 -13.7445   1.2047   4.0400   4.3120   6.4079
     7.0047

          k = 0.5455-0.5455 0.1818 (  2046 PWs)   bands (ev):

   -30.0906 -13.8067 -13.7639 -13.7404   2.0489   2.9001   4.4345   6.2840
     7.3138

          k = 0.5455-0.6364 0.2727 (  2051 PWs)   bands (ev):

   -30.0907 -13.7995 -13.7648 -13.7462   1.9037   3.4309   4.0680   6.0049
     7.1353

          k = 0.4545-0.5455 0.2727 (  2051 PWs)   bands (ev):

   -30.0905 -13.7996 -13.7703 -13.7467   2.6395   2.7166   3.9974   5.8269
     7.2353

          k = 0.4545-0.6364 0.3636 (  2043 PWs)   bands (ev):

   -30.0903 -13.7922 -13.7769 -13.7494   2.6112   3.2154   3.5259   5.6330
     7.2182

          k = 0.0000 0.0000 0.3636 (  2046 PWs)   bands (ev):

   -30.0929 -13.7618 -13.7505 -13.7505   0.3481   5.2975   5.4059   5.4059
     6.4058

          k = 0.0000-0.0909 0.4545 (  2051 PWs)   bands (ev):

   -30.0916 -13.7782 -13.7583 -13.7527   0.8324   4.5680   5.2334   5.4880
     6.7311

          k = 0.0000-0.1818 0.5455 (  2048 PWs)   bands (ev):

   -30.0903 -13.7958 -13.7655 -13.7521   1.4689   3.8076   5.0709   5.4791
     6.7975

          k = 0.0000-0.2727 0.6364 (  2054 PWs)   bands (ev):

   -30.0896 -13.8064 -13.7697 -13.7516   2.2136   3.0189   4.9776   5.3529
     6.8528

          k =-0.0909-0.0909 0.5455 (  2048 PWs)   bands (ev):

   -30.0903 -13.7892 -13.7675 -13.7565   1.3822   4.1223   4.8964   5.5680
     6.5950

          k =-0.0909-0.1818 0.6364 (  2041 PWs)   bands (ev):

   -30.0893 -13.7993 -13.7753 -13.7566   2.0586   3.5272   4.5586   5.6490
     6.4914

          k =-0.0909 0.7273-0.2727 (  2044 PWs)   bands (ev):

   -30.0889 -13.8032 -13.7783 -13.7564   2.7872   2.8221   4.4327   5.6233
     6.6237

          k =-0.1818 0.8182-0.2727 (  2037 PWs)   bands (ev):

   -30.0887 -13.7975 -13.7869 -13.7573   2.7254   3.2732   3.9164   6.0350
     6.3392

          k = 0.6364-0.6364 0.3636 (  2049 PWs)   bands (ev):

   -30.0909 -13.7971 -13.7558 -13.7558   1.8240   3.8226   3.8226   5.7672
     7.2882

          k = 0.5455-0.5455 0.3636 (  2046 PWs)   bands (ev):

   -30.0905 -13.7918 -13.7686 -13.7568   2.5382   3.2434   3.7153   5.2803
     7.3408

          k = 0.4545-0.5455 0.4545 (  2052 PWs)   bands (ev):

   -30.0904 -13.7788 -13.7788 -13.7621   3.1140   3.1140   3.3711   4.9437
     7.4122

          k = 0.0000 0.0000 0.5455 (  2050 PWs)   bands (ev):

   -30.0903 -13.7797 -13.7665 -13.7665   1.2932   4.4005   5.2019   5.2019
     6.4685

          k = 0.0000-0.0909 0.6364 (  2043 PWs)   bands (ev):

   -30.0891 -13.7913 -13.7739 -13.7686   1.8923   3.9049   5.1165   5.1416
     6.1275

          k = 0.0000-0.1818 0.7273 (  2033 PWs)   bands (ev):

   -30.0884 -13.8003 -13.7783 -13.7677   2.5774   3.2878   4.8823   5.0968
     6.2870

          k =-0.0909-0.0909 0.7273 (  2029 PWs)   bands (ev):

   -30.0881 -13.7954 -13.7830 -13.7710   2.4992   3.5892   4.6017   5.4600
     5.9458

          k =-0.0909 0.8182-0.1818 (  2029 PWs)   bands (ev):

   -30.0878 -13.7971 -13.7873 -13.7708   3.0357   3.2079   4.3380   5.5548
     6.0331

          k = 0.0000 0.0000 0.7273 (  2030 PWs)   bands (ev):

   -30.0879 -13.7892 -13.7815 -13.7815   2.4197   3.7667   5.1870   5.1870
     5.4936

          k = 0.0000-0.0909 0.8182 (  2031 PWs)   bands (ev):

   -30.0873 -13.7948 -13.7861 -13.7824   2.9664   3.4682   4.8682   5.2044
     5.6825

          k =-0.0909 0.9091-0.0909 (  2013 PWs)   bands (ev):

   -30.0869 -13.7924 -13.7924 -13.7834   3.3050   3.3051   4.7175   5.5008
     5.5008

          k = 0.0000 0.0000 0.9091 (  2002 PWs)   bands (ev):

   -30.0866 -13.7918 -13.7907 -13.7907   3.2842   3.4423   5.2330   5.2666
     5.2666

     the Fermi energy is     1.7635 ev

!    total energy              =     -58.74183968 Ry
     Harris-Foulkes estimate   =     -58.74183968 Ry
     estimated scf accuracy    <          9.8E-10 Ry

     The total energy is the sum of the following terms:

     one-electron contribution =     -36.65227019 Ry
     hartree contribution      =      18.82457794 Ry
     xc contribution           =     -11.01736785 Ry
     ewald contribution        =     -29.89633978 Ry
     smearing contrib. (-TS)   =      -0.00043979 Ry

     convergence has been achieved in   5 iterations

     Forces acting on atoms (cartesian axes, Ry/au):

     atom    1 type  1   force =     0.00000000    0.00000000    0.00000000

     Total force =     0.000000     Total SCF correction =     0.000000


     Computing stress (Cartesian axis) and pressure

          total   stress  (Ry/bohr**3)                   (kbar)     P=   -4.63
  -0.00003151   0.00000000   0.00000000         -4.63      0.00      0.00
   0.00000000  -0.00003151  -0.00000000          0.00     -4.63     -0.00
   0.00000000  -0.00000000  -0.00003151          0.00     -0.00     -4.63


     Writing output data file K.save/

     init_run     :      0.46s CPU      0.49s WALL (       1 calls)
     electrons    :      6.32s CPU      6.70s WALL (       1 calls)
     forces       :      0.09s CPU      0.10s WALL (       1 calls)
     stress       :      0.37s CPU      0.37s WALL (       1 calls)

     Called by init_run:
     wfcinit      :      0.28s CPU      0.29s WALL (       1 calls)
     potinit      :      0.01s CPU      0.01s WALL (       1 calls)
     hinit0       :      0.15s CPU      0.16s WALL (       1 calls)

     Called by electrons:
     c_bands      :      5.30s CPU      5.62s WALL (       6 calls)
     sum_band     :      0.93s CPU      0.99s WALL (       6 calls)
     v_of_rho     :      0.01s CPU      0.01s WALL (       6 calls)
     newd         :      0.09s CPU      0.09s WALL (       6 calls)
     mix_rho      :      0.00s CPU      0.00s WALL (       6 calls)

     Called by c_bands:
     init_us_2    :      0.19s CPU      0.20s WALL (     840 calls)
     cegterg      :      5.06s CPU      5.37s WALL (     336 calls)

     Called by sum_band:
     sum_band:bec :      0.00s CPU      0.00s WALL (     336 calls)
     addusdens    :      0.09s CPU      0.09s WALL (       6 calls)

     Called by *egterg:
     h_psi        :      4.09s CPU      4.37s WALL (    1570 calls)
     s_psi        :      0.13s CPU      0.14s WALL (    1570 calls)
     g_psi        :      0.01s CPU      0.01s WALL (    1178 calls)
     cdiaghg      :      0.33s CPU      0.35s WALL (    1458 calls)

     Called by h_psi:
     h_psi:pot    :      4.07s CPU      4.35s WALL (    1570 calls)
     h_psi:calbec :      0.21s CPU      0.22s WALL (    1570 calls)
     vloc_psi     :      3.72s CPU      3.97s WALL (    1570 calls)
     add_vuspsi   :      0.13s CPU      0.14s WALL (    1570 calls)

     General routines
     calbec       :      0.32s CPU      0.34s WALL (    2186 calls)
     fft          :      0.01s CPU      0.01s WALL (      34 calls)
     ffts         :      0.00s CPU      0.00s WALL (       6 calls)
     fftw         :      4.09s CPU      4.38s WALL (   20780 calls)

     Parallel routines
     fft_scatt_xy :      0.33s CPU      0.35s WALL (   20820 calls)
     fft_scatt_yz :      1.04s CPU      1.11s WALL (   20820 calls)

     PWSCF        :     7.98s CPU         8.48s WALL


   This run was terminated on:   0:26: 4   8Apr2024            

=------------------------------------------------------------------------------=
   JOB DONE.
=------------------------------------------------------------------------------=
