
     Program PWSCF v.6.3MaX starts on  8Apr2024 at  0: 4:32 

     This program is part of the open-source Quantum ESPRESSO suite
     for quantum simulation of materials; please cite
         "P. Giannozzi et al., J. Phys.:Condens. Matter 21 395502 (2009);
         "P. Giannozzi et al., J. Phys.:Condens. Matter 29 465901 (2017);
          URL http://www.quantum-espresso.org", 
     in publications or presentations arising from this work. More details at
     http://www.quantum-espresso.org/quote

     Parallel version (MPI), running on     5 processors

     MPI processes distributed on     1 nodes
     R & G space division:  proc/nbgrp/npool/nimage =       5
     Waiting for input...
     Reading input from standard input

     Current dimensions of program PWSCF are:
     Max number of different atomic species (ntypx) = 10
     Max number of k-points (npk) =  40000
     Max angular momentum in pseudopotentials (lmaxx) =  3
               file K.pz-spn-rrkjus_psl.1.0.0.UPF: wavefunction(s)  3S renormalized

     Subspace diagonalization in iterative solution of the eigenvalue problem:
     a serial algorithm will be used


     Parallelization info
     --------------------
     sticks:   dense  smooth     PW     G-vecs:    dense   smooth      PW
     Min         438     438    122                12915    12915    1890
     Max         439     439    123                12916    12916    1891
     Sum        2191    2191    611                64579    64579    9453



     bravais-lattice index     =            3
     lattice parameter (alat)  =       9.8600  a.u.
     unit-cell volume          =     479.2926 (a.u.)^3
     number of atoms/cell      =            1
     number of atomic types    =            1
     number of electrons       =         9.00
     number of Kohn-Sham states=            9
     kinetic-energy cutoff     =     100.0000  Ry
     charge density cutoff     =     400.0000  Ry
     convergence threshold     =      1.0E-08
     mixing beta               =       0.7000
     number of iterations used =            8  plain     mixing
     Exchange-correlation      = LDA ( 1  1  0  0 0 0)

     celldm(1)=   9.860000  celldm(2)=   0.000000  celldm(3)=   0.000000
     celldm(4)=   0.000000  celldm(5)=   0.000000  celldm(6)=   0.000000

     crystal axes: (cart. coord. in units of alat)
               a(1) = (   0.500000   0.500000   0.500000 )  
               a(2) = (  -0.500000   0.500000   0.500000 )  
               a(3) = (  -0.500000  -0.500000   0.500000 )  

     reciprocal axes: (cart. coord. in units 2 pi/alat)
               b(1) = (  1.000000  0.000000  1.000000 )  
               b(2) = ( -1.000000  1.000000  0.000000 )  
               b(3) = (  0.000000 -1.000000  1.000000 )  


     PseudoPot. # 1 for K  read from file:
     /home/lorenzo/pseudos/K/K.pz-spn-rrkjus_psl.1.0.0.UPF
     MD5 check sum: af434a66a3b91719abff201b8f79bb09
     Pseudo is Ultrasoft + core correction, Zval =  9.0
     Generated using "atomic" code by A. Dal Corso v.6.2.2
     Using radial grid of 1165 points,  6 beta functions with: 
                l(1) =   0
                l(2) =   0
                l(3) =   1
                l(4) =   1
                l(5) =   2
                l(6) =   2
     Q(r) pseudized with 0 coefficients 


     atomic species   valence    mass     pseudopotential
        K              9.00    39.09830     K ( 1.00)

     48 Sym. Ops., with inversion, found



   Cartesian axes

     site n.     atom                  positions (alat units)
         1           K   tau(   1) = (   0.0000000   0.0000000   0.0000000  )

     number of k points=     4  gaussian smearing, width (Ry)=  0.0100
                       cart. coord. in units 2pi/alat
        k(    1) = (   0.0000000   0.0000000   0.0000000), wk =   0.0740741
        k(    2) = (   0.0000000  -0.3333333   0.3333333), wk =   0.8888889
        k(    3) = (  -0.3333333   0.6666667  -0.3333333), wk =   0.5925926
        k(    4) = (   0.0000000   0.0000000   0.6666667), wk =   0.4444444

     Dense  grid:    64579 G-vectors     FFT dimensions: (  60,  60,  60)

     Estimated max dynamical RAM per process >      52.02 MB

     Estimated total dynamical RAM >     260.11 MB

     Check: negative/imaginary core charge=   -0.000001    0.000000

     Initial potential from superposition of free atoms

     starting charge    8.98437, renormalised to    9.00000
     Starting wfcs are    8 randomized atomic wfcs +    1 random wfcs

     total cpu time spent up to now is        1.3 secs

     Self-consistent Calculation

     iteration #  1     ecut=   100.00 Ry     beta= 0.70
     Davidson diagonalization with overlap
     ethr =  1.00E-02,  avg # of iterations =  7.8

     Threshold (ethr) on eigenvalues was too large:
     Diagonalizing with lowered threshold

     Davidson diagonalization with overlap
     ethr =  1.24E-05,  avg # of iterations =  5.2

     total cpu time spent up to now is        2.4 secs

     total energy              =     -58.75018287 Ry
     Harris-Foulkes estimate   =     -58.75077654 Ry
     estimated scf accuracy    <       0.00113290 Ry

     iteration #  2     ecut=   100.00 Ry     beta= 0.70
     Davidson diagonalization with overlap
     ethr =  1.26E-05,  avg # of iterations =  2.0

     total cpu time spent up to now is        2.9 secs

     total energy              =     -58.75038545 Ry
     Harris-Foulkes estimate   =     -58.75040444 Ry
     estimated scf accuracy    <       0.00008950 Ry

     iteration #  3     ecut=   100.00 Ry     beta= 0.70
     Davidson diagonalization with overlap
     ethr =  9.94E-07,  avg # of iterations =  1.5

     total cpu time spent up to now is        3.3 secs

     total energy              =     -58.75039437 Ry
     Harris-Foulkes estimate   =     -58.75039374 Ry
     estimated scf accuracy    <       0.00000562 Ry

     iteration #  4     ecut=   100.00 Ry     beta= 0.70
     Davidson diagonalization with overlap
     ethr =  6.24E-08,  avg # of iterations =  1.2

     total cpu time spent up to now is        3.8 secs

     total energy              =     -58.75039482 Ry
     Harris-Foulkes estimate   =     -58.75039481 Ry
     estimated scf accuracy    <       0.00000003 Ry

     iteration #  5     ecut=   100.00 Ry     beta= 0.70
     Davidson diagonalization with overlap
     ethr =  3.69E-10,  avg # of iterations =  2.2

     total cpu time spent up to now is        4.2 secs

     End of self-consistent calculation

          k = 0.0000 0.0000 0.0000 (  8151 PWs)   bands (ev):

   -30.1020 -13.7397 -13.7397 -13.7397  -0.4766   5.9272   5.9272   6.8730
     6.8736

          k = 0.0000-0.3333 0.3333 (  8108 PWs)   bands (ev):

   -30.0981 -13.7998 -13.7598 -13.7396   0.8680   3.9016   5.0433   6.7037
     6.9663

          k =-0.3333 0.6667-0.3333 (  8088 PWs)   bands (ev):

   -30.0962 -13.7946 -13.7946 -13.7497   2.9760   2.9760   3.3012   6.2457
     7.0156

          k = 0.0000 0.0000 0.6667 (  8088 PWs)   bands (ev):

   -30.0948 -13.7922 -13.7822 -13.7822   2.0409   3.9447   5.1726   5.1726
     5.7560

     the Fermi energy is     1.9078 ev

!    total energy              =     -58.75039483 Ry
     Harris-Foulkes estimate   =     -58.75039483 Ry
     estimated scf accuracy    <          1.1E-09 Ry

     The total energy is the sum of the following terms:

     one-electron contribution =     -36.66111427 Ry
     hartree contribution      =      18.82387923 Ry
     xc contribution           =     -11.01633827 Ry
     ewald contribution        =     -29.89633970 Ry
     smearing contrib. (-TS)   =      -0.00048182 Ry

     convergence has been achieved in   5 iterations

     Forces acting on atoms (cartesian axes, Ry/au):

     atom    1 type  1   force =     0.00000000    0.00000000    0.00000000

     Total force =     0.000000     Total SCF correction =     0.000000


     Computing stress (Cartesian axis) and pressure

          total   stress  (Ry/bohr**3)                   (kbar)     P=   -5.06
  -0.00003440   0.00000000   0.00000000         -5.06      0.00      0.00
   0.00000000  -0.00003440   0.00000000          0.00     -5.06      0.00
   0.00000000   0.00000000  -0.00003440          0.00      0.00     -5.06


     Writing output data file K.save/

     init_run     :      0.57s CPU      0.59s WALL (       1 calls)
     electrons    :      2.72s CPU      2.91s WALL (       1 calls)
     forces       :      0.14s CPU      0.15s WALL (       1 calls)
     stress       :      0.50s CPU      0.55s WALL (       1 calls)

     Called by init_run:
     wfcinit      :      0.09s CPU      0.10s WALL (       1 calls)
     potinit      :      0.03s CPU      0.03s WALL (       1 calls)
     hinit0       :      0.27s CPU      0.27s WALL (       1 calls)

     Called by electrons:
     c_bands      :      1.69s CPU      1.75s WALL (       6 calls)
     sum_band     :      0.66s CPU      0.74s WALL (       6 calls)
     v_of_rho     :      0.05s CPU      0.05s WALL (       6 calls)
     newd         :      0.35s CPU      0.42s WALL (       6 calls)
     mix_rho      :      0.02s CPU      0.02s WALL (       6 calls)

     Called by c_bands:
     init_us_2    :      0.06s CPU      0.06s WALL (      60 calls)
     cegterg      :      1.63s CPU      1.68s WALL (      24 calls)

     Called by sum_band:
     sum_band:bec :      0.00s CPU      0.00s WALL (      24 calls)
     addusdens    :      0.34s CPU      0.40s WALL (       6 calls)

     Called by *egterg:
     h_psi        :      1.42s CPU      1.46s WALL (     108 calls)
     s_psi        :      0.04s CPU      0.04s WALL (     108 calls)
     g_psi        :      0.00s CPU      0.00s WALL (      80 calls)
     cdiaghg      :      0.02s CPU      0.02s WALL (     100 calls)

     Called by h_psi:
     h_psi:pot    :      1.41s CPU      1.46s WALL (     108 calls)
     h_psi:calbec :      0.08s CPU      0.08s WALL (     108 calls)
     vloc_psi     :      1.28s CPU      1.33s WALL (     108 calls)
     add_vuspsi   :      0.05s CPU      0.04s WALL (     108 calls)

     General routines
     calbec       :      0.12s CPU      0.12s WALL (     152 calls)
     fft          :      0.08s CPU      0.08s WALL (      34 calls)
     ffts         :      0.01s CPU      0.01s WALL (       6 calls)
     fftw         :      1.34s CPU      1.39s WALL (    1474 calls)

     Parallel routines
     fft_scatt_xy :      0.12s CPU      0.12s WALL (    1514 calls)
     fft_scatt_yz :      0.34s CPU      0.35s WALL (    1514 calls)

     PWSCF        :     4.65s CPU         4.97s WALL


   This run was terminated on:   0: 4:37   8Apr2024            

=------------------------------------------------------------------------------=
   JOB DONE.
=------------------------------------------------------------------------------=
