
     Program PWSCF v.6.3MaX starts on  8Apr2024 at  0:21: 5 

     This program is part of the open-source Quantum ESPRESSO suite
     for quantum simulation of materials; please cite
         "P. Giannozzi et al., J. Phys.:Condens. Matter 21 395502 (2009);
         "P. Giannozzi et al., J. Phys.:Condens. Matter 29 465901 (2017);
          URL http://www.quantum-espresso.org", 
     in publications or presentations arising from this work. More details at
     http://www.quantum-espresso.org/quote

     Parallel version (MPI), running on     5 processors

     MPI processes distributed on     1 nodes
     R & G space division:  proc/nbgrp/npool/nimage =       5
     Waiting for input...
     Reading input from standard input

     Current dimensions of program PWSCF are:
     Max number of different atomic species (ntypx) = 10
     Max number of k-points (npk) =  40000
     Max angular momentum in pseudopotentials (lmaxx) =  3
               file K.pz-spn-kjpaw_psl.1.0.0.UPF: wavefunction(s)  3S renormalized

     Subspace diagonalization in iterative solution of the eigenvalue problem:
     a serial algorithm will be used


     Parallelization info
     --------------------
     sticks:   dense  smooth     PW     G-vecs:    dense   smooth      PW
     Min         131     131     41                 2128     2128     373
     Max         132     132     41                 2129     2129     373
     Sum         657     657    205                10641    10641    1865



     bravais-lattice index     =            3
     lattice parameter (alat)  =       9.8600  a.u.
     unit-cell volume          =     479.2926 (a.u.)^3
     number of atoms/cell      =            1
     number of atomic types    =            1
     number of electrons       =         9.00
     number of Kohn-Sham states=            9
     kinetic-energy cutoff     =      30.0000  Ry
     charge density cutoff     =     120.0000  Ry
     convergence threshold     =      1.0E-08
     mixing beta               =       0.7000
     number of iterations used =            8  plain     mixing
     Exchange-correlation      = SLA PZ NOGX NOGC ( 1  1  0  0 0 0)

     celldm(1)=   9.860000  celldm(2)=   0.000000  celldm(3)=   0.000000
     celldm(4)=   0.000000  celldm(5)=   0.000000  celldm(6)=   0.000000

     crystal axes: (cart. coord. in units of alat)
               a(1) = (   0.500000   0.500000   0.500000 )  
               a(2) = (  -0.500000   0.500000   0.500000 )  
               a(3) = (  -0.500000  -0.500000   0.500000 )  

     reciprocal axes: (cart. coord. in units 2 pi/alat)
               b(1) = (  1.000000  0.000000  1.000000 )  
               b(2) = ( -1.000000  1.000000  0.000000 )  
               b(3) = (  0.000000 -1.000000  1.000000 )  


     PseudoPot. # 1 for K  read from file:
     /home/lorenzo/pseudos/K/K.pz-spn-kjpaw_psl.1.0.0.UPF
     MD5 check sum: 59b94f4c1a6681f21e103574f2c5fc67
     Pseudo is Projector augmented-wave + core cor, Zval =  9.0
     Generated using "atomic" code by A. Dal Corso v.6.2.2
     Shape of augmentation charge: PSQ
     Using radial grid of 1165 points,  6 beta functions with: 
                l(1) =   0
                l(2) =   0
                l(3) =   1
                l(4) =   1
                l(5) =   2
                l(6) =   2
     Q(r) pseudized with 0 coefficients 


     atomic species   valence    mass     pseudopotential
        K              9.00    39.09830     K ( 1.00)

     48 Sym. Ops., with inversion, found



   Cartesian axes

     site n.     atom                  positions (alat units)
         1           K   tau(   1) = (   0.0000000   0.0000000   0.0000000  )

     number of k points=    29  gaussian smearing, width (Ry)=  0.0100
                       cart. coord. in units 2pi/alat
        k(    1) = (   0.0000000   0.0000000   0.0000000), wk =   0.0039062
        k(    2) = (   0.0000000  -0.1250000   0.1250000), wk =   0.0468750
        k(    3) = (   0.0000000  -0.2500000   0.2500000), wk =   0.0468750
        k(    4) = (   0.0000000  -0.3750000   0.3750000), wk =   0.0468750
        k(    5) = (   0.0000000   0.5000000  -0.5000000), wk =   0.0234375
        k(    6) = (  -0.1250000  -0.1250000   0.2500000), wk =   0.0937500
        k(    7) = (  -0.1250000  -0.2500000   0.3750000), wk =   0.1875000
        k(    8) = (  -0.1250000   0.6250000  -0.5000000), wk =   0.1875000
        k(    9) = (  -0.2500000   0.7500000  -0.5000000), wk =   0.0937500
        k(   10) = (  -0.2500000   0.6250000  -0.3750000), wk =   0.0937500
        k(   11) = (   0.0000000   0.0000000   0.2500000), wk =   0.0234375
        k(   12) = (   0.0000000  -0.1250000   0.3750000), wk =   0.0937500
        k(   13) = (   0.0000000  -0.2500000   0.5000000), wk =   0.0937500
        k(   14) = (   0.0000000   0.6250000  -0.3750000), wk =   0.0468750
        k(   15) = (  -0.1250000  -0.1250000   0.5000000), wk =   0.0937500
        k(   16) = (  -0.1250000   0.7500000  -0.3750000), wk =   0.1875000
        k(   17) = (  -0.2500000   0.2500000   0.2500000), wk =   0.0312500
        k(   18) = (  -0.2500000   0.7500000  -0.2500000), wk =   0.0312500
        k(   19) = (   0.6250000  -0.6250000   0.2500000), wk =   0.0937500
        k(   20) = (   0.5000000  -0.5000000   0.2500000), wk =   0.0468750
        k(   21) = (   0.5000000  -0.6250000   0.3750000), wk =   0.0937500
        k(   22) = (   0.0000000   0.0000000   0.5000000), wk =   0.0234375
        k(   23) = (   0.0000000  -0.1250000   0.6250000), wk =   0.0937500
        k(   24) = (   0.0000000   0.7500000  -0.2500000), wk =   0.0468750
        k(   25) = (  -0.1250000   0.8750000  -0.2500000), wk =   0.0937500
        k(   26) = (   0.5000000  -0.5000000   0.5000000), wk =   0.0078125
        k(   27) = (   0.0000000   0.0000000   0.7500000), wk =   0.0234375
        k(   28) = (   0.0000000   0.8750000  -0.1250000), wk =   0.0468750
        k(   29) = (   0.0000000   0.0000000  -1.0000000), wk =   0.0039062

     Dense  grid:    10641 G-vectors     FFT dimensions: (  30,  30,  30)

     Estimated max dynamical RAM per process >      10.33 MB

     Estimated total dynamical RAM >      51.67 MB

     Check: negative/imaginary core charge=   -0.000030    0.000000

     Initial potential from superposition of free atoms

     starting charge    8.98437, renormalised to    9.00000
     Starting wfcs are    8 randomized atomic wfcs +    1 random wfcs
     Checking if some PAW data can be deallocated... 

     total cpu time spent up to now is        1.0 secs

     Self-consistent Calculation

     iteration #  1     ecut=    30.00 Ry     beta= 0.70
     Davidson diagonalization with overlap
     ethr =  1.00E-02,  avg # of iterations =  6.3

     Threshold (ethr) on eigenvalues was too large:
     Diagonalizing with lowered threshold

     Davidson diagonalization with overlap
     ethr =  1.27E-05,  avg # of iterations =  6.8

     total cpu time spent up to now is        2.1 secs

     total energy              =    -109.86796325 Ry
     Harris-Foulkes estimate   =    -109.86853549 Ry
     estimated scf accuracy    <       0.00113224 Ry

     iteration #  2     ecut=    30.00 Ry     beta= 0.70
     Davidson diagonalization with overlap
     ethr =  1.26E-05,  avg # of iterations =  2.0

     total cpu time spent up to now is        2.5 secs

     total energy              =    -109.86816472 Ry
     Harris-Foulkes estimate   =    -109.86819012 Ry
     estimated scf accuracy    <       0.00009397 Ry

     iteration #  3     ecut=    30.00 Ry     beta= 0.70
     Davidson diagonalization with overlap
     ethr =  1.04E-06,  avg # of iterations =  2.4

     total cpu time spent up to now is        3.0 secs

     total energy              =    -109.86817670 Ry
     Harris-Foulkes estimate   =    -109.86817619 Ry
     estimated scf accuracy    <       0.00000611 Ry

     iteration #  4     ecut=    30.00 Ry     beta= 0.70
     Davidson diagonalization with overlap
     ethr =  6.79E-08,  avg # of iterations =  1.4

     total cpu time spent up to now is        3.3 secs

     total energy              =    -109.86817734 Ry
     Harris-Foulkes estimate   =    -109.86817733 Ry
     estimated scf accuracy    <       0.00000004 Ry

     iteration #  5     ecut=    30.00 Ry     beta= 0.70
     Davidson diagonalization with overlap
     ethr =  4.08E-10,  avg # of iterations =  2.5

     total cpu time spent up to now is        3.7 secs

     End of self-consistent calculation

          k = 0.0000 0.0000 0.0000 (  1289 PWs)   bands (ev):

   -30.0982 -13.7338 -13.7338 -13.7338  -0.4764   5.9454   5.9454   5.9454
     6.8952

          k = 0.0000-0.1250 0.1250 (  1346 PWs)   bands (ev):

   -30.0976 -13.7476 -13.7396 -13.7356  -0.2763   5.6387   5.7175   6.1015
     6.6626

          k = 0.0000-0.2500 0.2500 (  1336 PWs)   bands (ev):

   -30.0958 -13.7759 -13.7490 -13.7355   0.3026   4.6663   5.2936   6.5728
     6.6988

          k = 0.0000-0.3750 0.3750 (  1330 PWs)   bands (ev):

   -30.0939 -13.8032 -13.7588 -13.7355   1.1943   3.5161   4.9620   6.6768
     7.0756

          k = 0.0000 0.5000-0.5000 (  1340 PWs)   bands (ev):

   -30.0932 -13.8151 -13.7629 -13.7358   2.1445   2.4892   4.8417   6.5431
     7.3784

          k =-0.1250-0.1250 0.2500 (  1343 PWs)   bands (ev):

   -30.0963 -13.7671 -13.7442 -13.7385   0.1136   5.0857   5.2900   6.3818
     6.5037

          k =-0.1250-0.2500 0.3750 (  1333 PWs)   bands (ev):

   -30.0945 -13.7921 -13.7553 -13.7393   0.8522   4.1275   4.8534   6.5389
     6.8249

          k =-0.1250 0.6250-0.5000 (  1322 PWs)   bands (ev):

   -30.0931 -13.8084 -13.7645 -13.7394   1.8499   3.0185   4.6208   6.3646
     7.2157

          k =-0.2500 0.7500-0.5000 (  1332 PWs)   bands (ev):

   -30.0932 -13.8003 -13.7690 -13.7438   1.7068   3.6304   4.1223   6.4652
     6.7266

          k =-0.2500 0.6250-0.3750 (  1330 PWs)   bands (ev):

   -30.0926 -13.7999 -13.7788 -13.7450   2.7327   2.7593   3.8141   6.2494
     7.0148

          k = 0.0000 0.0000 0.2500 (  1345 PWs)   bands (ev):

   -30.0969 -13.7505 -13.7437 -13.7437  -0.0792   5.6195   5.6195   5.9433
     6.1728

          k = 0.0000-0.1250 0.3750 (  1337 PWs)   bands (ev):

   -30.0951 -13.7750 -13.7533 -13.7449   0.4906   4.7305   5.2988   5.8612
     6.5877

          k = 0.0000-0.2500 0.5000 (  1340 PWs)   bands (ev):

   -30.0933 -13.8011 -13.7633 -13.7446   1.3692   3.6161   5.0128   5.8670
     7.0980

          k = 0.0000 0.6250-0.3750 (  1334 PWs)   bands (ev):

   -30.0926 -13.8120 -13.7672 -13.7439   2.3492   2.5725   4.9068   5.7616
     7.1505

          k =-0.1250-0.1250 0.5000 (  1332 PWs)   bands (ev):

   -30.0934 -13.7913 -13.7650 -13.7500   1.2042   4.1276   4.7971   5.8765
     6.7749

          k =-0.1250 0.7500-0.3750 (  1326 PWs)   bands (ev):

   -30.0921 -13.8033 -13.7758 -13.7503   2.1704   3.2353   4.3741   5.9339
     6.7615

          k =-0.2500 0.2500 0.2500 (  1331 PWs)   bands (ev):

   -30.0949 -13.7879 -13.7449 -13.7449   0.6742   4.5753   4.5753   6.5721
     7.0128

          k =-0.2500 0.7500-0.2500 (  1340 PWs)   bands (ev):

   -30.0917 -13.7937 -13.7937 -13.7518   3.0229   3.0229   3.5250   6.5023
     6.5023

          k = 0.6250-0.6250 0.2500 (  1332 PWs)   bands (ev):

   -30.0936 -13.8000 -13.7601 -13.7463   1.5439   3.6679   4.2606   6.2060
     7.1641

          k = 0.5000-0.5000 0.2500 (  1326 PWs)   bands (ev):

   -30.0930 -13.8026 -13.7683 -13.7465   2.5450   2.6709   4.1556   5.8960
     7.2961

          k = 0.5000-0.6250 0.3750 (  1323 PWs)   bands (ev):

   -30.0930 -13.7933 -13.7724 -13.7536   2.4761   3.3331   3.6235   5.4636
     7.2957

          k = 0.0000 0.0000 0.5000 (  1333 PWs)   bands (ev):

   -30.0935 -13.7767 -13.7634 -13.7634   1.0319   4.6082   5.2405   5.2405
     6.7784

          k = 0.0000-0.1250 0.6250 (  1323 PWs)   bands (ev):

   -30.0918 -13.7946 -13.7734 -13.7653   1.8595   3.8205   5.1205   5.1450
     6.3153

          k = 0.0000 0.7500-0.2500 (  1324 PWs)   bands (ev):

   -30.0911 -13.8037 -13.7778 -13.7645   2.8176   2.8888   4.9369   5.0628
     6.4933

          k =-0.1250 0.8750-0.2500 (  1327 PWs)   bands (ev):

   -30.0907 -13.7976 -13.7866 -13.7689   2.7030   3.4286   4.3088   5.6610
     6.0613

          k = 0.5000-0.5000 0.5000 (  1304 PWs)   bands (ev):

   -30.0928 -13.7735 -13.7735 -13.7735   3.2356   3.2356   3.2356   4.7546
     7.4599

          k = 0.0000 0.0000 0.7500 (  1324 PWs)   bands (ev):

   -30.0903 -13.7910 -13.7839 -13.7839   2.5581   3.7127   5.1983   5.1983
     5.4190

          k = 0.0000 0.8750-0.1250 (  1312 PWs)   bands (ev):

   -30.0897 -13.7957 -13.7883 -13.7844   3.1775   3.3568   4.8337   5.2201
     5.6932

          k = 0.0000 0.0000-1.0000 (  1312 PWs)   bands (ev):

   -30.0891 -13.7927 -13.7927 -13.7927   3.4052   5.2844   5.2844   5.2844
     7.2557

     the Fermi energy is     1.7679 ev

!    total energy              =    -109.86817735 Ry
     Harris-Foulkes estimate   =    -109.86817736 Ry
     estimated scf accuracy    <          3.7E-09 Ry

     total all-electron energy =     -1201.193177 Ry

     The total energy is the sum of the following terms:

     one-electron contribution =     -35.36606772 Ry
     hartree contribution      =      18.82453110 Ry
     xc contribution           =     -11.01658968 Ry
     ewald contribution        =     -29.89633973 Ry
     one-center paw contrib.   =     -52.41294171 Ry
     smearing contrib. (-TS)   =      -0.00076962 Ry

     convergence has been achieved in   5 iterations

     Forces acting on atoms (cartesian axes, Ry/au):

     atom    1 type  1   force =     0.00000000    0.00000000    0.00000000

     Total force =     0.000000     Total SCF correction =     0.000000


     Computing stress (Cartesian axis) and pressure

          total   stress  (Ry/bohr**3)                   (kbar)     P=   -8.83
  -0.00006006  -0.00000000   0.00000000         -8.83     -0.00      0.00
  -0.00000000  -0.00006006  -0.00000000         -0.00     -8.83     -0.00
   0.00000000  -0.00000000  -0.00006006          0.00     -0.00     -8.83


     Writing output data file K.save/

     init_run     :      0.28s CPU      0.29s WALL (       1 calls)
     electrons    :      2.60s CPU      2.70s WALL (       1 calls)
     forces       :      0.07s CPU      0.07s WALL (       1 calls)
     stress       :      0.18s CPU      0.18s WALL (       1 calls)

     Called by init_run:
     wfcinit      :      0.09s CPU      0.10s WALL (       1 calls)
     potinit      :      0.04s CPU      0.04s WALL (       1 calls)
     hinit0       :      0.12s CPU      0.13s WALL (       1 calls)

     Called by electrons:
     c_bands      :      1.94s CPU      2.02s WALL (       6 calls)
     sum_band     :      0.40s CPU      0.41s WALL (       6 calls)
     v_of_rho     :      0.00s CPU      0.01s WALL (       6 calls)
     newd         :      0.06s CPU      0.07s WALL (       6 calls)
     PAW_pot      :      0.24s CPU      0.24s WALL (       6 calls)
     mix_rho      :      0.00s CPU      0.00s WALL (       6 calls)

     Called by c_bands:
     init_us_2    :      0.07s CPU      0.07s WALL (     435 calls)
     cegterg      :      1.85s CPU      1.92s WALL (     174 calls)

     Called by sum_band:
     sum_band:bec :      0.00s CPU      0.00s WALL (     174 calls)
     addusdens    :      0.07s CPU      0.07s WALL (       6 calls)

     Called by *egterg:
     h_psi        :      1.43s CPU      1.49s WALL (     825 calls)
     s_psi        :      0.05s CPU      0.05s WALL (     825 calls)
     g_psi        :      0.01s CPU      0.01s WALL (     622 calls)
     cdiaghg      :      0.18s CPU      0.18s WALL (     767 calls)

     Called by h_psi:
     h_psi:pot    :      1.42s CPU      1.48s WALL (     825 calls)
     h_psi:calbec :      0.08s CPU      0.08s WALL (     825 calls)
     vloc_psi     :      1.28s CPU      1.34s WALL (     825 calls)
     add_vuspsi   :      0.05s CPU      0.05s WALL (     825 calls)

     General routines
     calbec       :      0.15s CPU      0.16s WALL (    1144 calls)
     fft          :      0.01s CPU      0.01s WALL (      34 calls)
     ffts         :      0.00s CPU      0.00s WALL (       6 calls)
     fftw         :      1.44s CPU      1.50s WALL (   10938 calls)

     Parallel routines
     fft_scatt_xy :      0.11s CPU      0.12s WALL (   10978 calls)
     fft_scatt_yz :      0.44s CPU      0.45s WALL (   10978 calls)

     PWSCF        :     3.86s CPU         4.05s WALL


   This run was terminated on:   0:21: 9   8Apr2024            

=------------------------------------------------------------------------------=
   JOB DONE.
=------------------------------------------------------------------------------=
