
     Program PWSCF v.6.3MaX starts on  8Apr2024 at  0:26:52 

     This program is part of the open-source Quantum ESPRESSO suite
     for quantum simulation of materials; please cite
         "P. Giannozzi et al., J. Phys.:Condens. Matter 21 395502 (2009);
         "P. Giannozzi et al., J. Phys.:Condens. Matter 29 465901 (2017);
          URL http://www.quantum-espresso.org", 
     in publications or presentations arising from this work. More details at
     http://www.quantum-espresso.org/quote

     Parallel version (MPI), running on     5 processors

     MPI processes distributed on     1 nodes
     R & G space division:  proc/nbgrp/npool/nimage =       5
     Waiting for input...
     Reading input from standard input

     Current dimensions of program PWSCF are:
     Max number of different atomic species (ntypx) = 10
     Max number of k-points (npk) =  40000
     Max angular momentum in pseudopotentials (lmaxx) =  3
               file K.pz-spn-rrkjus_psl.1.0.0.UPF: wavefunction(s)  3S renormalized

     Subspace diagonalization in iterative solution of the eigenvalue problem:
     a serial algorithm will be used


     Parallelization info
     --------------------
     sticks:   dense  smooth     PW     G-vecs:    dense   smooth      PW
     Min         175     175     53                 3283     3283     546
     Max         175     175     53                 3283     3283     547
     Sum         875     875    265                16415    16415    2731



     bravais-lattice index     =            3
     lattice parameter (alat)  =       9.8600  a.u.
     unit-cell volume          =     479.2926 (a.u.)^3
     number of atoms/cell      =            1
     number of atomic types    =            1
     number of electrons       =         9.00
     number of Kohn-Sham states=            9
     kinetic-energy cutoff     =      40.0000  Ry
     charge density cutoff     =     160.0000  Ry
     convergence threshold     =      1.0E-08
     mixing beta               =       0.7000
     number of iterations used =            8  plain     mixing
     Exchange-correlation      = LDA ( 1  1  0  0 0 0)

     celldm(1)=   9.860000  celldm(2)=   0.000000  celldm(3)=   0.000000
     celldm(4)=   0.000000  celldm(5)=   0.000000  celldm(6)=   0.000000

     crystal axes: (cart. coord. in units of alat)
               a(1) = (   0.500000   0.500000   0.500000 )  
               a(2) = (  -0.500000   0.500000   0.500000 )  
               a(3) = (  -0.500000  -0.500000   0.500000 )  

     reciprocal axes: (cart. coord. in units 2 pi/alat)
               b(1) = (  1.000000  0.000000  1.000000 )  
               b(2) = ( -1.000000  1.000000  0.000000 )  
               b(3) = (  0.000000 -1.000000  1.000000 )  


     PseudoPot. # 1 for K  read from file:
     /home/lorenzo/pseudos/K/K.pz-spn-rrkjus_psl.1.0.0.UPF
     MD5 check sum: af434a66a3b91719abff201b8f79bb09
     Pseudo is Ultrasoft + core correction, Zval =  9.0
     Generated using "atomic" code by A. Dal Corso v.6.2.2
     Using radial grid of 1165 points,  6 beta functions with: 
                l(1) =   0
                l(2) =   0
                l(3) =   1
                l(4) =   1
                l(5) =   2
                l(6) =   2
     Q(r) pseudized with 0 coefficients 


     atomic species   valence    mass     pseudopotential
        K              9.00    39.09830     K ( 1.00)

     48 Sym. Ops., with inversion, found



   Cartesian axes

     site n.     atom                  positions (alat units)
         1           K   tau(   1) = (   0.0000000   0.0000000   0.0000000  )

     number of k points=    10  gaussian smearing, width (Ry)=  0.0100
                       cart. coord. in units 2pi/alat
        k(    1) = (   0.0000000   0.0000000   0.0000000), wk =   0.0160000
        k(    2) = (   0.0000000  -0.2000000   0.2000000), wk =   0.1920000
        k(    3) = (   0.0000000  -0.4000000   0.4000000), wk =   0.1920000
        k(    4) = (  -0.2000000  -0.2000000   0.4000000), wk =   0.3840000
        k(    5) = (  -0.2000000   0.6000000  -0.4000000), wk =   0.3840000
        k(    6) = (   0.0000000   0.0000000   0.4000000), wk =   0.0960000
        k(    7) = (   0.0000000  -0.2000000   0.6000000), wk =   0.3840000
        k(    8) = (  -0.2000000   0.8000000  -0.2000000), wk =   0.1280000
        k(    9) = (   0.6000000  -0.6000000   0.4000000), wk =   0.1280000
        k(   10) = (   0.0000000   0.0000000   0.8000000), wk =   0.0960000

     Dense  grid:    16415 G-vectors     FFT dimensions: (  36,  36,  36)

     Estimated max dynamical RAM per process >      14.47 MB

     Estimated total dynamical RAM >      72.34 MB

     Check: negative/imaginary core charge=   -0.000011    0.000000

     Initial potential from superposition of free atoms

     starting charge    8.98437, renormalised to    9.00000
     Starting wfcs are    8 randomized atomic wfcs +    1 random wfcs

     total cpu time spent up to now is        0.9 secs

     Self-consistent Calculation

     iteration #  1     ecut=    40.00 Ry     beta= 0.70
     Davidson diagonalization with overlap
     ethr =  1.00E-02,  avg # of iterations =  7.3

     Threshold (ethr) on eigenvalues was too large:
     Diagonalizing with lowered threshold

     Davidson diagonalization with overlap
     ethr =  1.24E-05,  avg # of iterations =  6.6

     total cpu time spent up to now is        1.5 secs

     total energy              =     -58.74183259 Ry
     Harris-Foulkes estimate   =     -58.74239608 Ry
     estimated scf accuracy    <       0.00112650 Ry

     iteration #  2     ecut=    40.00 Ry     beta= 0.70
     Davidson diagonalization with overlap
     ethr =  1.25E-05,  avg # of iterations =  2.3

     total cpu time spent up to now is        1.8 secs

     total energy              =     -58.74202846 Ry
     Harris-Foulkes estimate   =     -58.74204586 Ry
     estimated scf accuracy    <       0.00008790 Ry

     iteration #  3     ecut=    40.00 Ry     beta= 0.70
     Davidson diagonalization with overlap
     ethr =  9.77E-07,  avg # of iterations =  2.3

     total cpu time spent up to now is        1.9 secs

     total energy              =     -58.74203739 Ry
     Harris-Foulkes estimate   =     -58.74203662 Ry
     estimated scf accuracy    <       0.00000562 Ry

     iteration #  4     ecut=    40.00 Ry     beta= 0.70
     Davidson diagonalization with overlap
     ethr =  6.25E-08,  avg # of iterations =  1.6

     total cpu time spent up to now is        2.1 secs

     total energy              =     -58.74203787 Ry
     Harris-Foulkes estimate   =     -58.74203787 Ry
     estimated scf accuracy    <       0.00000003 Ry

     iteration #  5     ecut=    40.00 Ry     beta= 0.70
     Davidson diagonalization with overlap
     ethr =  3.65E-10,  avg # of iterations =  2.3

     total cpu time spent up to now is        2.3 secs

     End of self-consistent calculation

          k = 0.0000 0.0000 0.0000 (  2093 PWs)   bands (ev):

   -30.0953 -13.7338 -13.7338 -13.7338  -0.4762   5.9304   5.9304   5.9304
     6.8761

          k = 0.0000-0.2000 0.2000 (  2056 PWs)   bands (ev):

   -30.0934 -13.7617 -13.7431 -13.7338   0.0290   5.0928   5.4552   6.3368
     6.6443

          k = 0.0000-0.4000 0.4000 (  2048 PWs)   bands (ev):

   -30.0904 -13.8061 -13.7581 -13.7337   1.4001   3.2804   4.9132   6.6295
     7.1276

          k =-0.2000-0.2000 0.4000 (  2045 PWs)   bands (ev):

   -30.0910 -13.7913 -13.7555 -13.7399   0.9743   4.1562   4.6168   6.5739
     6.6860

          k =-0.2000 0.6000-0.4000 (  2044 PWs)   bands (ev):

   -30.0895 -13.8037 -13.7709 -13.7416   2.5308   2.6597   4.1693   6.2393
     7.1380

          k = 0.0000 0.0000 0.4000 (  2038 PWs)   bands (ev):

   -30.0916 -13.7651 -13.7528 -13.7528   0.5139   5.1017   5.3507   5.3507
     6.5004

          k = 0.0000-0.2000 0.6000 (  2051 PWs)   bands (ev):

   -30.0890 -13.7994 -13.7686 -13.7543   1.8282   3.5346   5.0429   5.3171
     6.6808

          k =-0.2000 0.8000-0.2000 (  2034 PWs)   bands (ev):

   -30.0877 -13.7924 -13.7924 -13.7592   3.0933   3.0933   3.8052   6.1469
     6.1469

          k = 0.6000-0.6000 0.4000 (  2064 PWs)   bands (ev):

   -30.0899 -13.7932 -13.7597 -13.7597   2.2380   3.6316   3.6316   5.3859
     7.3546

          k = 0.0000 0.0000 0.8000 (  2014 PWs)   bands (ev):

   -30.0865 -13.7901 -13.7854 -13.7854   2.8401   3.5988   5.2176   5.2176
     5.2881

     the Fermi energy is     1.7812 ev

!    total energy              =     -58.74203788 Ry
     Harris-Foulkes estimate   =     -58.74203788 Ry
     estimated scf accuracy    <          9.0E-10 Ry

     The total energy is the sum of the following terms:

     one-electron contribution =     -36.65236004 Ry
     hartree contribution      =      18.82502120 Ry
     xc contribution           =     -11.01739774 Ry
     ewald contribution        =     -29.89633978 Ry
     smearing contrib. (-TS)   =      -0.00096152 Ry

     convergence has been achieved in   5 iterations

     Forces acting on atoms (cartesian axes, Ry/au):

     atom    1 type  1   force =     0.00000000    0.00000000    0.00000000

     Total force =     0.000000     Total SCF correction =     0.000000


     Computing stress (Cartesian axis) and pressure

          total   stress  (Ry/bohr**3)                   (kbar)     P=   -4.67
  -0.00003176   0.00000000  -0.00000000         -4.67      0.00     -0.00
   0.00000000  -0.00003176   0.00000000          0.00     -4.67      0.00
  -0.00000000   0.00000000  -0.00003176         -0.00      0.00     -4.67


     Writing output data file K.save/

     init_run     :      0.23s CPU      0.24s WALL (       1 calls)
     electrons    :      1.30s CPU      1.37s WALL (       1 calls)
     forces       :      0.05s CPU      0.05s WALL (       1 calls)
     stress       :      0.16s CPU      0.16s WALL (       1 calls)

     Called by init_run:
     wfcinit      :      0.05s CPU      0.05s WALL (       1 calls)
     potinit      :      0.01s CPU      0.01s WALL (       1 calls)
     hinit0       :      0.15s CPU      0.15s WALL (       1 calls)

     Called by electrons:
     c_bands      :      0.96s CPU      1.01s WALL (       6 calls)
     sum_band     :      0.25s CPU      0.26s WALL (       6 calls)
     v_of_rho     :      0.01s CPU      0.01s WALL (       6 calls)
     newd         :      0.09s CPU      0.10s WALL (       6 calls)
     mix_rho      :      0.00s CPU      0.00s WALL (       6 calls)

     Called by c_bands:
     init_us_2    :      0.04s CPU      0.04s WALL (     150 calls)
     cegterg      :      0.92s CPU      0.97s WALL (      60 calls)

     Called by sum_band:
     sum_band:bec :      0.00s CPU      0.00s WALL (      60 calls)
     addusdens    :      0.09s CPU      0.09s WALL (       6 calls)

     Called by *egterg:
     h_psi        :      0.73s CPU      0.78s WALL (     294 calls)
     s_psi        :      0.02s CPU      0.03s WALL (     294 calls)
     g_psi        :      0.00s CPU      0.00s WALL (     224 calls)
     cdiaghg      :      0.06s CPU      0.06s WALL (     274 calls)

     Called by h_psi:
     h_psi:pot    :      0.73s CPU      0.77s WALL (     294 calls)
     h_psi:calbec :      0.04s CPU      0.04s WALL (     294 calls)
     vloc_psi     :      0.66s CPU      0.70s WALL (     294 calls)
     add_vuspsi   :      0.03s CPU      0.03s WALL (     294 calls)

     General routines
     calbec       :      0.06s CPU      0.07s WALL (     404 calls)
     fft          :      0.02s CPU      0.02s WALL (      34 calls)
     ffts         :      0.00s CPU      0.00s WALL (       6 calls)
     fftw         :      0.72s CPU      0.77s WALL (    3758 calls)

     Parallel routines
     fft_scatt_xy :      0.06s CPU      0.06s WALL (    3798 calls)
     fft_scatt_yz :      0.17s CPU      0.18s WALL (    3798 calls)

     PWSCF        :     2.46s CPU         2.58s WALL


   This run was terminated on:   0:26:55   8Apr2024            

=------------------------------------------------------------------------------=
   JOB DONE.
=------------------------------------------------------------------------------=
