
     Program PWSCF v.6.3MaX starts on  8Apr2024 at  1:21:31 

     This program is part of the open-source Quantum ESPRESSO suite
     for quantum simulation of materials; please cite
         "P. Giannozzi et al., J. Phys.:Condens. Matter 21 395502 (2009);
         "P. Giannozzi et al., J. Phys.:Condens. Matter 29 465901 (2017);
          URL http://www.quantum-espresso.org", 
     in publications or presentations arising from this work. More details at
     http://www.quantum-espresso.org/quote

     Parallel version (MPI), running on     5 processors

     MPI processes distributed on     1 nodes
     R & G space division:  proc/nbgrp/npool/nimage =       5
     Waiting for input...
     Reading input from standard input

     Current dimensions of program PWSCF are:
     Max number of different atomic species (ntypx) = 10
     Max number of k-points (npk) =  40000
     Max angular momentum in pseudopotentials (lmaxx) =  3
               file K.pbe-spn-rrkjus_psl.1.0.0.UPF: wavefunction(s)  3S renormalized

     Subspace diagonalization in iterative solution of the eigenvalue problem:
     a serial algorithm will be used


     Parallelization info
     --------------------
     sticks:   dense  smooth     PW     G-vecs:    dense   smooth      PW
     Min         369     369    107                10119    10119    1560
     Max         370     370    107                10120    10120    1561
     Sum        1849    1849    535                50597    50597    7803



     bravais-lattice index     =            3
     lattice parameter (alat)  =       9.8600  a.u.
     unit-cell volume          =     479.2926 (a.u.)^3
     number of atoms/cell      =            1
     number of atomic types    =            1
     number of electrons       =         9.00
     number of Kohn-Sham states=            9
     kinetic-energy cutoff     =      85.0000  Ry
     charge density cutoff     =     340.0000  Ry
     convergence threshold     =      1.0E-08
     mixing beta               =       0.7000
     number of iterations used =            8  plain     mixing
     Exchange-correlation      = PBE ( 1  4  3  4 0 0)

     celldm(1)=   9.860000  celldm(2)=   0.000000  celldm(3)=   0.000000
     celldm(4)=   0.000000  celldm(5)=   0.000000  celldm(6)=   0.000000

     crystal axes: (cart. coord. in units of alat)
               a(1) = (   0.500000   0.500000   0.500000 )  
               a(2) = (  -0.500000   0.500000   0.500000 )  
               a(3) = (  -0.500000  -0.500000   0.500000 )  

     reciprocal axes: (cart. coord. in units 2 pi/alat)
               b(1) = (  1.000000  0.000000  1.000000 )  
               b(2) = ( -1.000000  1.000000  0.000000 )  
               b(3) = (  0.000000 -1.000000  1.000000 )  


     PseudoPot. # 1 for K  read from file:
     /home/lorenzo/pseudos/K/K.pbe-spn-rrkjus_psl.1.0.0.UPF
     MD5 check sum: 897b700350bb708b0563e904352feb48
     Pseudo is Ultrasoft + core correction, Zval =  9.0
     Generated using "atomic" code by A. Dal Corso v.6.2.2
     Using radial grid of 1165 points,  6 beta functions with: 
                l(1) =   0
                l(2) =   0
                l(3) =   1
                l(4) =   1
                l(5) =   2
                l(6) =   2
     Q(r) pseudized with 0 coefficients 


     atomic species   valence    mass     pseudopotential
        K              9.00    39.09830     K ( 1.00)

     48 Sym. Ops., with inversion, found



   Cartesian axes

     site n.     atom                  positions (alat units)
         1           K   tau(   1) = (   0.0000000   0.0000000   0.0000000  )

     number of k points=    29  gaussian smearing, width (Ry)=  0.0100
                       cart. coord. in units 2pi/alat
        k(    1) = (   0.0000000   0.0000000   0.0000000), wk =   0.0039062
        k(    2) = (   0.0000000  -0.1250000   0.1250000), wk =   0.0468750
        k(    3) = (   0.0000000  -0.2500000   0.2500000), wk =   0.0468750
        k(    4) = (   0.0000000  -0.3750000   0.3750000), wk =   0.0468750
        k(    5) = (   0.0000000   0.5000000  -0.5000000), wk =   0.0234375
        k(    6) = (  -0.1250000  -0.1250000   0.2500000), wk =   0.0937500
        k(    7) = (  -0.1250000  -0.2500000   0.3750000), wk =   0.1875000
        k(    8) = (  -0.1250000   0.6250000  -0.5000000), wk =   0.1875000
        k(    9) = (  -0.2500000   0.7500000  -0.5000000), wk =   0.0937500
        k(   10) = (  -0.2500000   0.6250000  -0.3750000), wk =   0.0937500
        k(   11) = (   0.0000000   0.0000000   0.2500000), wk =   0.0234375
        k(   12) = (   0.0000000  -0.1250000   0.3750000), wk =   0.0937500
        k(   13) = (   0.0000000  -0.2500000   0.5000000), wk =   0.0937500
        k(   14) = (   0.0000000   0.6250000  -0.3750000), wk =   0.0468750
        k(   15) = (  -0.1250000  -0.1250000   0.5000000), wk =   0.0937500
        k(   16) = (  -0.1250000   0.7500000  -0.3750000), wk =   0.1875000
        k(   17) = (  -0.2500000   0.2500000   0.2500000), wk =   0.0312500
        k(   18) = (  -0.2500000   0.7500000  -0.2500000), wk =   0.0312500
        k(   19) = (   0.6250000  -0.6250000   0.2500000), wk =   0.0937500
        k(   20) = (   0.5000000  -0.5000000   0.2500000), wk =   0.0468750
        k(   21) = (   0.5000000  -0.6250000   0.3750000), wk =   0.0937500
        k(   22) = (   0.0000000   0.0000000   0.5000000), wk =   0.0234375
        k(   23) = (   0.0000000  -0.1250000   0.6250000), wk =   0.0937500
        k(   24) = (   0.0000000   0.7500000  -0.2500000), wk =   0.0468750
        k(   25) = (  -0.1250000   0.8750000  -0.2500000), wk =   0.0937500
        k(   26) = (   0.5000000  -0.5000000   0.5000000), wk =   0.0078125
        k(   27) = (   0.0000000   0.0000000   0.7500000), wk =   0.0234375
        k(   28) = (   0.0000000   0.8750000  -0.1250000), wk =   0.0468750
        k(   29) = (   0.0000000   0.0000000  -1.0000000), wk =   0.0039062

     Dense  grid:    50597 G-vectors     FFT dimensions: (  54,  54,  54)

     Estimated max dynamical RAM per process >      45.34 MB

     Estimated total dynamical RAM >     226.71 MB

     Check: negative/imaginary core charge=   -0.000001    0.000000

     Initial potential from superposition of free atoms

     starting charge    8.98117, renormalised to    9.00000
     Starting wfcs are    8 randomized atomic wfcs +    1 random wfcs

     total cpu time spent up to now is        1.6 secs

     Self-consistent Calculation

     iteration #  1     ecut=    85.00 Ry     beta= 0.70
     Davidson diagonalization with overlap
     ethr =  1.00E-02,  avg # of iterations =  6.8

     Threshold (ethr) on eigenvalues was too large:
     Diagonalizing with lowered threshold

     Davidson diagonalization with overlap
     ethr =  1.43E-05,  avg # of iterations =  6.1

     total cpu time spent up to now is        6.8 secs

     total energy              =     -58.77353507 Ry
     Harris-Foulkes estimate   =     -58.77406594 Ry
     estimated scf accuracy    <       0.00127182 Ry

     iteration #  2     ecut=    85.00 Ry     beta= 0.70
     Davidson diagonalization with overlap
     ethr =  1.41E-05,  avg # of iterations =  2.1

     total cpu time spent up to now is        8.7 secs

     total energy              =     -58.77376935 Ry
     Harris-Foulkes estimate   =     -58.77377210 Ry
     estimated scf accuracy    <       0.00010175 Ry

     iteration #  3     ecut=    85.00 Ry     beta= 0.70
     Davidson diagonalization with overlap
     ethr =  1.13E-06,  avg # of iterations =  1.9

     total cpu time spent up to now is       10.2 secs

     total energy              =     -58.77377947 Ry
     Harris-Foulkes estimate   =     -58.77377689 Ry
     estimated scf accuracy    <       0.00000683 Ry

     iteration #  4     ecut=    85.00 Ry     beta= 0.70
     Davidson diagonalization with overlap
     ethr =  7.59E-08,  avg # of iterations =  1.6

     total cpu time spent up to now is       11.6 secs

     total energy              =     -58.77378004 Ry
     Harris-Foulkes estimate   =     -58.77378003 Ry
     estimated scf accuracy    <       0.00000005 Ry

     iteration #  5     ecut=    85.00 Ry     beta= 0.70
     Davidson diagonalization with overlap
     ethr =  5.55E-10,  avg # of iterations =  2.4

     total cpu time spent up to now is       13.3 secs

     End of self-consistent calculation

          k = 0.0000 0.0000 0.0000 (  6363 PWs)   bands (ev):

   -30.1652 -13.6135 -13.6135 -13.6135  -0.2616   6.2633   6.2633   7.1820
     7.1820

          k = 0.0000-0.1250 0.1250 (  6375 PWs)   bands (ev):

   -30.1644 -13.6249 -13.6173 -13.6135  -0.0627   5.9301   6.0260   6.4226
     6.9501

          k = 0.0000-0.2500 0.2500 (  6366 PWs)   bands (ev):

   -30.1627 -13.6521 -13.6264 -13.6135   0.5132   4.9035   5.5837   6.8896
     7.0046

          k = 0.0000-0.3750 0.3750 (  6360 PWs)   bands (ev):

   -30.1610 -13.6789 -13.6354 -13.6135   1.4029   3.7221   5.2428   6.9966
     7.3446

          k = 0.0000 0.5000-0.5000 (  6300 PWs)   bands (ev):

   -30.1603 -13.6899 -13.6391 -13.6134   2.3890   2.6485   5.1201   6.8716
     7.9901

          k =-0.1250-0.1250 0.2500 (  6358 PWs)   bands (ev):

   -30.1632 -13.6436 -13.6216 -13.6162   0.3251   5.3421   5.5698   6.6994
     6.7922

          k =-0.1250-0.2500 0.3750 (  6354 PWs)   bands (ev):

   -30.1615 -13.6676 -13.6325 -13.6173   1.0604   4.3477   5.1166   6.8330
     7.1380

          k =-0.1250 0.6250-0.5000 (  6331 PWs)   bands (ev):

   -30.1603 -13.6838 -13.6413 -13.6175   2.0590   3.2153   4.8787   6.6766
     7.5301

          k =-0.2500 0.7500-0.5000 (  6316 PWs)   bands (ev):

   -30.1603 -13.6759 -13.6454 -13.6214   1.9108   3.8318   4.3656   6.7973
     7.0265

          k =-0.2500 0.6250-0.3750 (  6326 PWs)   bands (ev):

   -30.1598 -13.6756 -13.6552 -13.6224   2.9298   2.9596   4.0523   6.5854
     7.3259

          k = 0.0000 0.0000 0.2500 (  6375 PWs)   bands (ev):

   -30.1638 -13.6277 -13.6211 -13.6211   0.1331   5.9165   5.9165   6.1851
     6.4946

          k = 0.0000-0.1250 0.3750 (  6358 PWs)   bands (ev):

   -30.1621 -13.6512 -13.6304 -13.6225   0.6996   4.9632   5.5807   6.1265
     6.9073

          k = 0.0000-0.2500 0.5000 (  6345 PWs)   bands (ev):

   -30.1604 -13.6764 -13.6396 -13.6219   1.5753   3.8227   5.2870   6.1325
     7.4211

          k = 0.0000 0.6250-0.3750 (  6328 PWs)   bands (ev):

   -30.1597 -13.6868 -13.6435 -13.6216   2.5892   2.7351   5.1780   6.0341
     7.4620

          k =-0.1250-0.1250 0.5000 (  6357 PWs)   bands (ev):

   -30.1605 -13.6671 -13.6417 -13.6273   1.4092   4.3382   5.0553   6.1484
     7.0961

          k =-0.1250 0.7500-0.3750 (  6326 PWs)   bands (ev):

   -30.1593 -13.6789 -13.6520 -13.6276   2.3710   3.4342   4.6245   6.2157
     7.0683

          k =-0.2500 0.2500 0.2500 (  6363 PWs)   bands (ev):

   -30.1620 -13.6635 -13.6226 -13.6226   0.8830   4.8168   4.8168   6.8835
     7.3207

          k =-0.2500 0.7500-0.2500 (  6341 PWs)   bands (ev):

   -30.1589 -13.6691 -13.6691 -13.6287   3.2020   3.2020   3.8058   6.7886
     7.3374

          k = 0.6250-0.6250 0.2500 (  6354 PWs)   bands (ev):

   -30.1607 -13.6755 -13.6368 -13.6237   1.7490   3.8779   4.4950   6.5320
     7.4845

          k = 0.5000-0.5000 0.2500 (  6344 PWs)   bands (ev):

   -30.1602 -13.6782 -13.6449 -13.6242   2.7793   2.8386   4.3876   6.2316
     7.6204

          k = 0.5000-0.6250 0.3750 (  6353 PWs)   bands (ev):

   -30.1601 -13.6692 -13.6492 -13.6310   2.6732   3.5270   3.8483   5.8052
     7.6177

          k = 0.0000 0.0000 0.5000 (  6366 PWs)   bands (ev):

   -30.1606 -13.6531 -13.6401 -13.6401   1.2369   4.8181   5.5064   5.5064
     7.0906

          k = 0.0000-0.1250 0.6250 (  6334 PWs)   bands (ev):

   -30.1590 -13.6705 -13.6498 -13.6420   2.0587   4.0229   5.3773   5.4024
     6.6113

          k = 0.0000 0.7500-0.2500 (  6340 PWs)   bands (ev):

   -30.1584 -13.6792 -13.6539 -13.6412   2.9894   3.1111   5.2004   5.3175
     6.7715

          k =-0.1250 0.8750-0.2500 (  6334 PWs)   bands (ev):

   -30.1580 -13.6731 -13.6627 -13.6450   2.8930   3.6190   4.5731   5.9159
     6.3354

          k = 0.5000-0.5000 0.5000 (  6356 PWs)   bands (ev):

   -30.1600 -13.6507 -13.6507 -13.6507   3.4269   3.4269   3.4269   5.1269
     7.7843

          k = 0.0000 0.0000 0.7500 (  6342 PWs)   bands (ev):

   -30.1576 -13.6665 -13.6600 -13.6600   2.7500   3.9104   5.4390   5.4390
     5.7055

          k = 0.0000 0.8750-0.1250 (  6362 PWs)   bands (ev):

   -30.1571 -13.6716 -13.6642 -13.6606   3.3625   3.5524   5.0974   5.4551
     5.9362

          k = 0.0000 0.0000-1.0000 (  6434 PWs)   bands (ev):

   -30.1565 -13.6685 -13.6685 -13.6685   3.5996   5.5108   5.5108   5.5108
     7.6775

     the Fermi energy is     1.9732 ev

!    total energy              =     -58.77378005 Ry
     Harris-Foulkes estimate   =     -58.77378005 Ry
     estimated scf accuracy    <          1.5E-09 Ry

     The total energy is the sum of the following terms:

     one-electron contribution =     -36.58749006 Ry
     hartree contribution      =      18.88073952 Ry
     xc contribution           =     -11.16992421 Ry
     ewald contribution        =     -29.89633970 Ry
     smearing contrib. (-TS)   =      -0.00076561 Ry

     convergence has been achieved in   5 iterations

     Forces acting on atoms (cartesian axes, Ry/au):

     atom    1 type  1   force =     0.00000000    0.00000000    0.00000000

     Total force =     0.000000     Total SCF correction =     0.000000


     Computing stress (Cartesian axis) and pressure

          total   stress  (Ry/bohr**3)                   (kbar)     P=    1.45
   0.00000989  -0.00000000   0.00000000          1.45     -0.00      0.00
  -0.00000000   0.00000989  -0.00000000         -0.00      1.45     -0.00
   0.00000000  -0.00000000   0.00000989          0.00     -0.00      1.45


     Writing output data file K.save/

     init_run     :      0.91s CPU      0.94s WALL (       1 calls)
     electrons    :     11.30s CPU     11.66s WALL (       1 calls)
     forces       :      0.20s CPU      0.21s WALL (       1 calls)
     stress       :      0.81s CPU      0.81s WALL (       1 calls)

     Called by init_run:
     wfcinit      :      0.53s CPU      0.54s WALL (       1 calls)
     potinit      :      0.04s CPU      0.05s WALL (       1 calls)
     hinit0       :      0.22s CPU      0.22s WALL (       1 calls)

     Called by electrons:
     c_bands      :      9.07s CPU      9.36s WALL (       6 calls)
     sum_band     :      1.80s CPU      1.85s WALL (       6 calls)
     v_of_rho     :      0.20s CPU      0.20s WALL (       6 calls)
     newd         :      0.29s CPU      0.30s WALL (       6 calls)
     mix_rho      :      0.02s CPU      0.02s WALL (       6 calls)

     Called by c_bands:
     init_us_2    :      0.33s CPU      0.34s WALL (     435 calls)
     cegterg      :      8.69s CPU      8.97s WALL (     174 calls)

     Called by sum_band:
     sum_band:bec :      0.00s CPU      0.00s WALL (     174 calls)
     addusdens    :      0.28s CPU      0.29s WALL (       6 calls)

     Called by *egterg:
     h_psi        :      7.51s CPU      7.79s WALL (     812 calls)
     s_psi        :      0.21s CPU      0.21s WALL (     812 calls)
     g_psi        :      0.02s CPU      0.02s WALL (     609 calls)
     cdiaghg      :      0.19s CPU      0.19s WALL (     754 calls)

     Called by h_psi:
     h_psi:pot    :      7.47s CPU      7.75s WALL (     812 calls)
     h_psi:calbec :      0.39s CPU      0.40s WALL (     812 calls)
     vloc_psi     :      6.84s CPU      7.10s WALL (     812 calls)
     add_vuspsi   :      0.23s CPU      0.24s WALL (     812 calls)

     General routines
     calbec       :      0.61s CPU      0.62s WALL (    1131 calls)
     fft          :      0.12s CPU      0.13s WALL (      93 calls)
     ffts         :      0.01s CPU      0.01s WALL (       6 calls)
     fftw         :      7.33s CPU      7.61s WALL (   10644 calls)

     Parallel routines
     fft_scatt_xy :      0.61s CPU      0.64s WALL (   10743 calls)
     fft_scatt_yz :      1.52s CPU      1.58s WALL (   10743 calls)

     PWSCF        :    14.00s CPU        14.51s WALL


   This run was terminated on:   1:21:46   8Apr2024            

=------------------------------------------------------------------------------=
   JOB DONE.
=------------------------------------------------------------------------------=
