
     Program PWSCF v.6.3MaX starts on  8Apr2024 at  0:35:59 

     This program is part of the open-source Quantum ESPRESSO suite
     for quantum simulation of materials; please cite
         "P. Giannozzi et al., J. Phys.:Condens. Matter 21 395502 (2009);
         "P. Giannozzi et al., J. Phys.:Condens. Matter 29 465901 (2017);
          URL http://www.quantum-espresso.org", 
     in publications or presentations arising from this work. More details at
     http://www.quantum-espresso.org/quote

     Parallel version (MPI), running on     5 processors

     MPI processes distributed on     1 nodes
     R & G space division:  proc/nbgrp/npool/nimage =       5
     Waiting for input...
     Reading input from standard input

     Current dimensions of program PWSCF are:
     Max number of different atomic species (ntypx) = 10
     Max number of k-points (npk) =  40000
     Max angular momentum in pseudopotentials (lmaxx) =  3
               file K.pz-spn-kjpaw_psl.1.0.0.UPF: wavefunction(s)  3S renormalized

     Subspace diagonalization in iterative solution of the eigenvalue problem:
     a serial algorithm will be used


     Parallelization info
     --------------------
     sticks:   dense  smooth     PW     G-vecs:    dense   smooth      PW
     Min         221     221     66                 4575     4575     756
     Max         221     221     67                 4576     4576     757
     Sum        1105    1105    333                22879    22879    3781



     bravais-lattice index     =            3
     lattice parameter (alat)  =       9.8600  a.u.
     unit-cell volume          =     479.2926 (a.u.)^3
     number of atoms/cell      =            1
     number of atomic types    =            1
     number of electrons       =         9.00
     number of Kohn-Sham states=            9
     kinetic-energy cutoff     =      50.0000  Ry
     charge density cutoff     =     200.0000  Ry
     convergence threshold     =      1.0E-08
     mixing beta               =       0.7000
     number of iterations used =            8  plain     mixing
     Exchange-correlation      = SLA PZ NOGX NOGC ( 1  1  0  0 0 0)

     celldm(1)=   9.860000  celldm(2)=   0.000000  celldm(3)=   0.000000
     celldm(4)=   0.000000  celldm(5)=   0.000000  celldm(6)=   0.000000

     crystal axes: (cart. coord. in units of alat)
               a(1) = (   0.500000   0.500000   0.500000 )  
               a(2) = (  -0.500000   0.500000   0.500000 )  
               a(3) = (  -0.500000  -0.500000   0.500000 )  

     reciprocal axes: (cart. coord. in units 2 pi/alat)
               b(1) = (  1.000000  0.000000  1.000000 )  
               b(2) = ( -1.000000  1.000000  0.000000 )  
               b(3) = (  0.000000 -1.000000  1.000000 )  


     PseudoPot. # 1 for K  read from file:
     /home/lorenzo/pseudos/K/K.pz-spn-kjpaw_psl.1.0.0.UPF
     MD5 check sum: 59b94f4c1a6681f21e103574f2c5fc67
     Pseudo is Projector augmented-wave + core cor, Zval =  9.0
     Generated using "atomic" code by A. Dal Corso v.6.2.2
     Shape of augmentation charge: PSQ
     Using radial grid of 1165 points,  6 beta functions with: 
                l(1) =   0
                l(2) =   0
                l(3) =   1
                l(4) =   1
                l(5) =   2
                l(6) =   2
     Q(r) pseudized with 0 coefficients 


     atomic species   valence    mass     pseudopotential
        K              9.00    39.09830     K ( 1.00)

     48 Sym. Ops., with inversion, found



   Cartesian axes

     site n.     atom                  positions (alat units)
         1           K   tau(   1) = (   0.0000000   0.0000000   0.0000000  )

     number of k points=    29  gaussian smearing, width (Ry)=  0.0100
                       cart. coord. in units 2pi/alat
        k(    1) = (   0.0000000   0.0000000   0.0000000), wk =   0.0039062
        k(    2) = (   0.0000000  -0.1250000   0.1250000), wk =   0.0468750
        k(    3) = (   0.0000000  -0.2500000   0.2500000), wk =   0.0468750
        k(    4) = (   0.0000000  -0.3750000   0.3750000), wk =   0.0468750
        k(    5) = (   0.0000000   0.5000000  -0.5000000), wk =   0.0234375
        k(    6) = (  -0.1250000  -0.1250000   0.2500000), wk =   0.0937500
        k(    7) = (  -0.1250000  -0.2500000   0.3750000), wk =   0.1875000
        k(    8) = (  -0.1250000   0.6250000  -0.5000000), wk =   0.1875000
        k(    9) = (  -0.2500000   0.7500000  -0.5000000), wk =   0.0937500
        k(   10) = (  -0.2500000   0.6250000  -0.3750000), wk =   0.0937500
        k(   11) = (   0.0000000   0.0000000   0.2500000), wk =   0.0234375
        k(   12) = (   0.0000000  -0.1250000   0.3750000), wk =   0.0937500
        k(   13) = (   0.0000000  -0.2500000   0.5000000), wk =   0.0937500
        k(   14) = (   0.0000000   0.6250000  -0.3750000), wk =   0.0468750
        k(   15) = (  -0.1250000  -0.1250000   0.5000000), wk =   0.0937500
        k(   16) = (  -0.1250000   0.7500000  -0.3750000), wk =   0.1875000
        k(   17) = (  -0.2500000   0.2500000   0.2500000), wk =   0.0312500
        k(   18) = (  -0.2500000   0.7500000  -0.2500000), wk =   0.0312500
        k(   19) = (   0.6250000  -0.6250000   0.2500000), wk =   0.0937500
        k(   20) = (   0.5000000  -0.5000000   0.2500000), wk =   0.0468750
        k(   21) = (   0.5000000  -0.6250000   0.3750000), wk =   0.0937500
        k(   22) = (   0.0000000   0.0000000   0.5000000), wk =   0.0234375
        k(   23) = (   0.0000000  -0.1250000   0.6250000), wk =   0.0937500
        k(   24) = (   0.0000000   0.7500000  -0.2500000), wk =   0.0468750
        k(   25) = (  -0.1250000   0.8750000  -0.2500000), wk =   0.0937500
        k(   26) = (   0.5000000  -0.5000000   0.5000000), wk =   0.0078125
        k(   27) = (   0.0000000   0.0000000   0.7500000), wk =   0.0234375
        k(   28) = (   0.0000000   0.8750000  -0.1250000), wk =   0.0468750
        k(   29) = (   0.0000000   0.0000000  -1.0000000), wk =   0.0039062

     Dense  grid:    22879 G-vectors     FFT dimensions: (  40,  40,  40)

     Estimated max dynamical RAM per process >      21.11 MB

     Estimated total dynamical RAM >     105.55 MB

     Check: negative/imaginary core charge=   -0.000006    0.000000

     Initial potential from superposition of free atoms

     starting charge    8.98437, renormalised to    9.00000
     Starting wfcs are    8 randomized atomic wfcs +    1 random wfcs
     Checking if some PAW data can be deallocated... 

     total cpu time spent up to now is        1.2 secs

     Self-consistent Calculation

     iteration #  1     ecut=    50.00 Ry     beta= 0.70
     Davidson diagonalization with overlap
     ethr =  1.00E-02,  avg # of iterations =  6.2

     Threshold (ethr) on eigenvalues was too large:
     Diagonalizing with lowered threshold

     Davidson diagonalization with overlap
     ethr =  1.22E-05,  avg # of iterations =  6.7

     total cpu time spent up to now is        3.3 secs

     total energy              =    -109.87088710 Ry
     Harris-Foulkes estimate   =    -109.87144033 Ry
     estimated scf accuracy    <       0.00110707 Ry

     iteration #  2     ecut=    50.00 Ry     beta= 0.70
     Davidson diagonalization with overlap
     ethr =  1.23E-05,  avg # of iterations =  2.3

     total cpu time spent up to now is        4.1 secs

     total energy              =    -109.87107227 Ry
     Harris-Foulkes estimate   =    -109.87109724 Ry
     estimated scf accuracy    <       0.00008853 Ry

     iteration #  3     ecut=    50.00 Ry     beta= 0.70
     Davidson diagonalization with overlap
     ethr =  9.84E-07,  avg # of iterations =  2.0

     total cpu time spent up to now is        4.7 secs

     total energy              =    -109.87108363 Ry
     Harris-Foulkes estimate   =    -109.87108336 Ry
     estimated scf accuracy    <       0.00000593 Ry

     iteration #  4     ecut=    50.00 Ry     beta= 0.70
     Davidson diagonalization with overlap
     ethr =  6.59E-08,  avg # of iterations =  1.4

     total cpu time spent up to now is        5.4 secs

     total energy              =    -109.87108431 Ry
     Harris-Foulkes estimate   =    -109.87108430 Ry
     estimated scf accuracy    <       0.00000004 Ry

     iteration #  5     ecut=    50.00 Ry     beta= 0.70
     Davidson diagonalization with overlap
     ethr =  4.60E-10,  avg # of iterations =  2.5

     total cpu time spent up to now is        6.1 secs

     End of self-consistent calculation

          k = 0.0000 0.0000 0.0000 (  2899 PWs)   bands (ev):

   -30.0981 -13.7361 -13.7361 -13.7361  -0.4766   5.9293   5.9293   5.9293
     6.8757

          k = 0.0000-0.1250 0.1250 (  2875 PWs)   bands (ev):

   -30.0973 -13.7479 -13.7400 -13.7360  -0.2765   5.6294   5.7070   6.0896
     6.6503

          k = 0.0000-0.2500 0.2500 (  2884 PWs)   bands (ev):

   -30.0955 -13.7763 -13.7495 -13.7360   0.3023   4.6614   5.2847   6.5589
     6.6851

          k = 0.0000-0.3750 0.3750 (  2858 PWs)   bands (ev):

   -30.0936 -13.8043 -13.7589 -13.7360   1.1937   3.5137   4.9548   6.6648
     7.0604

          k = 0.0000 0.5000-0.5000 (  2856 PWs)   bands (ev):

   -30.0929 -13.8157 -13.7628 -13.7360   2.1433   2.4885   4.8354   6.5328
     7.3587

          k =-0.1250-0.1250 0.2500 (  2868 PWs)   bands (ev):

   -30.0960 -13.7674 -13.7445 -13.7389   0.1134   5.0792   5.2821   6.3695
     6.4918

          k =-0.1250-0.2500 0.3750 (  2856 PWs)   bands (ev):

   -30.0942 -13.7925 -13.7559 -13.7400   0.8518   4.1239   4.8468   6.5267
     6.8138

          k =-0.1250 0.6250-0.5000 (  2866 PWs)   bands (ev):

   -30.0929 -13.8094 -13.7650 -13.7402   1.8490   3.0167   4.6150   6.3554
     7.2005

          k =-0.2500 0.7500-0.5000 (  2864 PWs)   bands (ev):

   -30.0929 -13.8011 -13.7694 -13.7442   1.7060   3.6274   4.1187   6.4595
     6.7134

          k =-0.2500 0.6250-0.3750 (  2872 PWs)   bands (ev):

   -30.0924 -13.8009 -13.7796 -13.7453   2.7310   2.7578   3.8111   6.2439
     7.0023

          k = 0.0000 0.0000 0.2500 (  2871 PWs)   bands (ev):

   -30.0966 -13.7509 -13.7440 -13.7440  -0.0795   5.6105   5.6105   5.9353
     6.1597

          k = 0.0000-0.1250 0.3750 (  2869 PWs)   bands (ev):

   -30.0948 -13.7754 -13.7537 -13.7454   0.4902   4.7253   5.2909   5.8522
     6.5740

          k = 0.0000-0.2500 0.5000 (  2858 PWs)   bands (ev):

   -30.0930 -13.8017 -13.7633 -13.7448   1.3686   3.6135   5.0063   5.8601
     7.0824

          k = 0.0000 0.6250-0.3750 (  2854 PWs)   bands (ev):

   -30.0923 -13.8125 -13.7673 -13.7445   2.3479   2.5716   4.9001   5.7554
     7.1336

          k =-0.1250-0.1250 0.5000 (  2861 PWs)   bands (ev):

   -30.0931 -13.7920 -13.7655 -13.7504   1.2036   4.1236   4.7921   5.8676
     6.7627

          k =-0.1250 0.7500-0.3750 (  2857 PWs)   bands (ev):

   -30.0919 -13.8043 -13.7762 -13.7508   2.1692   3.2330   4.3705   5.9254
     6.7485

          k =-0.2500 0.2500 0.2500 (  2845 PWs)   bands (ev):

   -30.0947 -13.7882 -13.7456 -13.7456   0.6738   4.5699   4.5699   6.5652
     6.9959

          k =-0.2500 0.7500-0.2500 (  2847 PWs)   bands (ev):

   -30.0914 -13.7941 -13.7941 -13.7519   3.0210   3.0211   3.5232   6.4922
     6.9766

          k = 0.6250-0.6250 0.2500 (  2873 PWs)   bands (ev):

   -30.0933 -13.8008 -13.7604 -13.7467   1.5432   3.6649   4.2562   6.2042
     7.1478

          k = 0.5000-0.5000 0.2500 (  2868 PWs)   bands (ev):

   -30.0928 -13.8036 -13.7689 -13.7472   2.5434   2.6697   4.1512   5.8936
     7.2780

          k = 0.5000-0.6250 0.3750 (  2874 PWs)   bands (ev):

   -30.0927 -13.7942 -13.7733 -13.7543   2.4748   3.3303   3.6206   5.4625
     7.2763

          k = 0.0000 0.0000 0.5000 (  2851 PWs)   bands (ev):

   -30.0932 -13.7774 -13.7639 -13.7639   1.0314   4.6031   5.2341   5.2341
     6.7669

          k = 0.0000-0.1250 0.6250 (  2854 PWs)   bands (ev):

   -30.0915 -13.7955 -13.7740 -13.7659   1.8586   3.8171   5.1152   5.1398
     6.3063

          k = 0.0000 0.7500-0.2500 (  2868 PWs)   bands (ev):

   -30.0909 -13.8047 -13.7782 -13.7650   2.8161   2.8869   4.9323   5.0581
     6.4844

          k =-0.1250 0.8750-0.2500 (  2851 PWs)   bands (ev):

   -30.0904 -13.7983 -13.7874 -13.7689   2.7015   3.4256   4.3063   5.6553
     6.0552

          k = 0.5000-0.5000 0.5000 (  2916 PWs)   bands (ev):

   -30.0926 -13.7750 -13.7750 -13.7750   3.2330   3.2330   3.2330   4.7546
     7.4351

          k = 0.0000 0.0000 0.7500 (  2843 PWs)   bands (ev):

   -30.0900 -13.7913 -13.7846 -13.7846   2.5568   3.7087   5.1947   5.1947
     5.4150

          k = 0.0000 0.8750-0.1250 (  2842 PWs)   bands (ev):

   -30.0894 -13.7967 -13.7890 -13.7852   3.1746   3.3536   4.8313   5.2175
     5.6898

          k = 0.0000 0.0000-1.0000 (  2844 PWs)   bands (ev):

   -30.0888 -13.7935 -13.7935 -13.7935   3.4014   5.2834   5.2834   5.2834
     7.2560

     the Fermi energy is     1.7670 ev

!    total energy              =    -109.87108433 Ry
     Harris-Foulkes estimate   =    -109.87108433 Ry
     estimated scf accuracy    <          3.7E-09 Ry

     total all-electron energy =     -1201.196084 Ry

     The total energy is the sum of the following terms:

     one-electron contribution =     -35.36774223 Ry
     hartree contribution      =      18.82530839 Ry
     xc contribution           =     -11.01708155 Ry
     ewald contribution        =     -29.89633978 Ry
     one-center paw contrib.   =     -52.41445894 Ry
     smearing contrib. (-TS)   =      -0.00077022 Ry

     convergence has been achieved in   5 iterations

     Forces acting on atoms (cartesian axes, Ry/au):

     atom    1 type  1   force =     0.00000000    0.00000000    0.00000000

     Total force =     0.000000     Total SCF correction =     0.000000


     Computing stress (Cartesian axis) and pressure

          total   stress  (Ry/bohr**3)                   (kbar)     P=   -4.51
  -0.00003063  -0.00000000   0.00000000         -4.51     -0.00      0.00
  -0.00000000  -0.00003063  -0.00000000         -0.00     -4.51     -0.00
   0.00000000  -0.00000000  -0.00003063          0.00     -0.00     -4.51


     Writing output data file K.save/

     init_run     :      0.45s CPU      0.46s WALL (       1 calls)
     electrons    :      4.72s CPU      4.95s WALL (       1 calls)
     forces       :      0.08s CPU      0.08s WALL (       1 calls)
     stress       :      0.37s CPU      0.37s WALL (       1 calls)

     Called by init_run:
     wfcinit      :      0.19s CPU      0.19s WALL (       1 calls)
     potinit      :      0.05s CPU      0.06s WALL (       1 calls)
     hinit0       :      0.16s CPU      0.17s WALL (       1 calls)

     Called by electrons:
     c_bands      :      3.69s CPU      3.88s WALL (       6 calls)
     sum_band     :      0.71s CPU      0.74s WALL (       6 calls)
     v_of_rho     :      0.01s CPU      0.01s WALL (       6 calls)
     newd         :      0.13s CPU      0.14s WALL (       6 calls)
     PAW_pot      :      0.22s CPU      0.23s WALL (       6 calls)
     mix_rho      :      0.00s CPU      0.01s WALL (       6 calls)

     Called by c_bands:
     init_us_2    :      0.15s CPU      0.15s WALL (     435 calls)
     cegterg      :      3.52s CPU      3.70s WALL (     174 calls)

     Called by sum_band:
     sum_band:bec :      0.00s CPU      0.00s WALL (     174 calls)
     addusdens    :      0.12s CPU      0.12s WALL (       6 calls)

     Called by *egterg:
     h_psi        :      2.87s CPU      3.04s WALL (     814 calls)
     s_psi        :      0.10s CPU      0.10s WALL (     814 calls)
     g_psi        :      0.01s CPU      0.01s WALL (     611 calls)
     cdiaghg      :      0.17s CPU      0.18s WALL (     756 calls)

     Called by h_psi:
     h_psi:pot    :      2.86s CPU      3.02s WALL (     814 calls)
     h_psi:calbec :      0.17s CPU      0.18s WALL (     814 calls)
     vloc_psi     :      2.58s CPU      2.73s WALL (     814 calls)
     add_vuspsi   :      0.10s CPU      0.11s WALL (     814 calls)

     General routines
     calbec       :      0.28s CPU      0.29s WALL (    1133 calls)
     fft          :      0.02s CPU      0.02s WALL (      34 calls)
     ffts         :      0.00s CPU      0.00s WALL (       6 calls)
     fftw         :      2.83s CPU      2.99s WALL (   10958 calls)

     Parallel routines
     fft_scatt_xy :      0.22s CPU      0.23s WALL (   10998 calls)
     fft_scatt_yz :      0.77s CPU      0.81s WALL (   10998 calls)

     PWSCF        :     6.38s CPU         6.73s WALL


   This run was terminated on:   0:36: 6   8Apr2024            

=------------------------------------------------------------------------------=
   JOB DONE.
=------------------------------------------------------------------------------=
