
     Program PWSCF v.6.3MaX starts on  8Apr2024 at  0:40:44 

     This program is part of the open-source Quantum ESPRESSO suite
     for quantum simulation of materials; please cite
         "P. Giannozzi et al., J. Phys.:Condens. Matter 21 395502 (2009);
         "P. Giannozzi et al., J. Phys.:Condens. Matter 29 465901 (2017);
          URL http://www.quantum-espresso.org", 
     in publications or presentations arising from this work. More details at
     http://www.quantum-espresso.org/quote

     Parallel version (MPI), running on     5 processors

     MPI processes distributed on     1 nodes
     R & G space division:  proc/nbgrp/npool/nimage =       5
     Waiting for input...
     Reading input from standard input

     Current dimensions of program PWSCF are:
     Max number of different atomic species (ntypx) = 10
     Max number of k-points (npk) =  40000
     Max angular momentum in pseudopotentials (lmaxx) =  3
               file K.pz-spn-rrkjus_psl.1.0.0.UPF: wavefunction(s)  3S renormalized

     Subspace diagonalization in iterative solution of the eigenvalue problem:
     a serial algorithm will be used


     Parallelization info
     --------------------
     sticks:   dense  smooth     PW     G-vecs:    dense   smooth      PW
     Min         239     239     69                 5244     5244     818
     Max         240     240     69                 5246     5246     819
     Sum        1199    1199    345                26227    26227    4093



     bravais-lattice index     =            3
     lattice parameter (alat)  =       9.8600  a.u.
     unit-cell volume          =     479.2926 (a.u.)^3
     number of atoms/cell      =            1
     number of atomic types    =            1
     number of electrons       =         9.00
     number of Kohn-Sham states=            9
     kinetic-energy cutoff     =      55.0000  Ry
     charge density cutoff     =     220.0000  Ry
     convergence threshold     =      1.0E-08
     mixing beta               =       0.7000
     number of iterations used =            8  plain     mixing
     Exchange-correlation      = LDA ( 1  1  0  0 0 0)

     celldm(1)=   9.860000  celldm(2)=   0.000000  celldm(3)=   0.000000
     celldm(4)=   0.000000  celldm(5)=   0.000000  celldm(6)=   0.000000

     crystal axes: (cart. coord. in units of alat)
               a(1) = (   0.500000   0.500000   0.500000 )  
               a(2) = (  -0.500000   0.500000   0.500000 )  
               a(3) = (  -0.500000  -0.500000   0.500000 )  

     reciprocal axes: (cart. coord. in units 2 pi/alat)
               b(1) = (  1.000000  0.000000  1.000000 )  
               b(2) = ( -1.000000  1.000000  0.000000 )  
               b(3) = (  0.000000 -1.000000  1.000000 )  


     PseudoPot. # 1 for K  read from file:
     /home/lorenzo/pseudos/K/K.pz-spn-rrkjus_psl.1.0.0.UPF
     MD5 check sum: af434a66a3b91719abff201b8f79bb09
     Pseudo is Ultrasoft + core correction, Zval =  9.0
     Generated using "atomic" code by A. Dal Corso v.6.2.2
     Using radial grid of 1165 points,  6 beta functions with: 
                l(1) =   0
                l(2) =   0
                l(3) =   1
                l(4) =   1
                l(5) =   2
                l(6) =   2
     Q(r) pseudized with 0 coefficients 


     atomic species   valence    mass     pseudopotential
        K              9.00    39.09830     K ( 1.00)

     48 Sym. Ops., with inversion, found



   Cartesian axes

     site n.     atom                  positions (alat units)
         1           K   tau(   1) = (   0.0000000   0.0000000   0.0000000  )

     number of k points=    20  gaussian smearing, width (Ry)=  0.0100
                       cart. coord. in units 2pi/alat
        k(    1) = (   0.0000000   0.0000000   0.0000000), wk =   0.0058309
        k(    2) = (   0.0000000  -0.1428571   0.1428571), wk =   0.0699708
        k(    3) = (   0.0000000  -0.2857143   0.2857143), wk =   0.0699708
        k(    4) = (   0.0000000  -0.4285714   0.4285714), wk =   0.0699708
        k(    5) = (  -0.1428571  -0.1428571   0.2857143), wk =   0.1399417
        k(    6) = (  -0.1428571  -0.2857143   0.4285714), wk =   0.2798834
        k(    7) = (  -0.1428571   0.5714286  -0.4285714), wk =   0.1399417
        k(    8) = (  -0.2857143   0.7142857  -0.4285714), wk =   0.1399417
        k(    9) = (   0.0000000   0.0000000   0.2857143), wk =   0.0349854
        k(   10) = (   0.0000000  -0.1428571   0.4285714), wk =   0.1399417
        k(   11) = (   0.0000000  -0.2857143   0.5714286), wk =   0.1399417
        k(   12) = (  -0.1428571  -0.1428571   0.5714286), wk =   0.1399417
        k(   13) = (  -0.1428571   0.7142857  -0.2857143), wk =   0.1399417
        k(   14) = (  -0.2857143   0.2857143   0.2857143), wk =   0.0466472
        k(   15) = (   0.5714286  -0.5714286   0.2857143), wk =   0.1399417
        k(   16) = (   0.4285714  -0.5714286   0.4285714), wk =   0.0466472
        k(   17) = (   0.0000000   0.0000000   0.5714286), wk =   0.0349854
        k(   18) = (   0.0000000  -0.1428571   0.7142857), wk =   0.1399417
        k(   19) = (  -0.1428571   0.8571429  -0.1428571), wk =   0.0466472
        k(   20) = (   0.0000000   0.0000000   0.8571429), wk =   0.0349854

     Dense  grid:    26227 G-vectors     FFT dimensions: (  45,  45,  45)

     Estimated max dynamical RAM per process >      23.47 MB

     Estimated total dynamical RAM >     117.37 MB

     Check: negative/imaginary core charge=   -0.000002    0.000000

     Initial potential from superposition of free atoms

     starting charge    8.98437, renormalised to    9.00000
     Starting wfcs are    8 randomized atomic wfcs +    1 random wfcs

     total cpu time spent up to now is        1.2 secs

     Self-consistent Calculation

     iteration #  1     ecut=    55.00 Ry     beta= 0.70
     Davidson diagonalization with overlap
     ethr =  1.00E-02,  avg # of iterations =  6.0

     Threshold (ethr) on eigenvalues was too large:
     Diagonalizing with lowered threshold

     Davidson diagonalization with overlap
     ethr =  1.24E-05,  avg # of iterations =  7.0

     total cpu time spent up to now is        3.4 secs

     total energy              =     -58.74301704 Ry
     Harris-Foulkes estimate   =     -58.74358460 Ry
     estimated scf accuracy    <       0.00112574 Ry

     iteration #  2     ecut=    55.00 Ry     beta= 0.70
     Davidson diagonalization with overlap
     ethr =  1.25E-05,  avg # of iterations =  2.1

     total cpu time spent up to now is        4.2 secs

     total energy              =     -58.74321615 Ry
     Harris-Foulkes estimate   =     -58.74323361 Ry
     estimated scf accuracy    <       0.00008968 Ry

     iteration #  3     ecut=    55.00 Ry     beta= 0.70
     Davidson diagonalization with overlap
     ethr =  9.96E-07,  avg # of iterations =  2.0

     total cpu time spent up to now is        4.8 secs

     total energy              =     -58.74322509 Ry
     Harris-Foulkes estimate   =     -58.74322431 Ry
     estimated scf accuracy    <       0.00000569 Ry

     iteration #  4     ecut=    55.00 Ry     beta= 0.70
     Davidson diagonalization with overlap
     ethr =  6.32E-08,  avg # of iterations =  1.6

     total cpu time spent up to now is        5.4 secs

     total energy              =     -58.74322563 Ry
     Harris-Foulkes estimate   =     -58.74322562 Ry
     estimated scf accuracy    <       0.00000003 Ry

     iteration #  5     ecut=    55.00 Ry     beta= 0.70
     Davidson diagonalization with overlap
     ethr =  3.75E-10,  avg # of iterations =  2.2

     total cpu time spent up to now is        6.1 secs

     End of self-consistent calculation

          k = 0.0000 0.0000 0.0000 (  3319 PWs)   bands (ev):

   -30.0981 -13.7367 -13.7367 -13.7367  -0.4766   5.9294   5.9294   5.9294
     6.8747

          k = 0.0000-0.1429 0.1429 (  3289 PWs)   bands (ev):

   -30.0971 -13.7519 -13.7417 -13.7366  -0.2159   5.5211   5.6501   6.1384
     6.6339

          k = 0.0000-0.2857 0.2857 (  3296 PWs)   bands (ev):

   -30.0949 -13.7858 -13.7531 -13.7366   0.5292   4.3399   5.1736   6.7079
     6.7457

          k = 0.0000-0.4286 0.4286 (  3298 PWs)   bands (ev):

   -30.0932 -13.8125 -13.7622 -13.7366   1.6417   3.0142   4.8751   6.5867
     7.2087

          k =-0.1429-0.1429 0.2857 (  3298 PWs)   bands (ev):

   -30.0956 -13.7751 -13.7477 -13.7402   0.2879   4.8544   5.1289   6.4796
     6.4920

          k =-0.1429-0.2857 0.4286 (  3291 PWs)   bands (ev):

   -30.0936 -13.8006 -13.7613 -13.7415   1.2255   3.7517   4.6634   6.4856
     6.9122

          k =-0.1429 0.5714-0.4286 (  3302 PWs)   bands (ev):

   -30.0927 -13.8112 -13.7683 -13.7418   2.3448   2.5749   4.5033   6.2765
     7.2968

          k =-0.2857 0.7143-0.4286 (  3297 PWs)   bands (ev):

   -30.0925 -13.8006 -13.7792 -13.7460   2.2791   3.3123   3.7293   6.3043
     6.8383

          k = 0.0000 0.0000 0.2857 (  3295 PWs)   bands (ev):

   -30.0962 -13.7553 -13.7469 -13.7469   0.0395   5.5429   5.5429   5.7328
     6.2283

          k = 0.0000-0.1429 0.4286 (  3292 PWs)   bands (ev):

   -30.0941 -13.7839 -13.7586 -13.7485   0.7693   4.4291   5.2012   5.7490
     6.7596

          k = 0.0000-0.2857 0.5714 (  3309 PWs)   bands (ev):

   -30.0924 -13.8086 -13.7679 -13.7477   1.8632   3.1602   4.9527   5.6624
     7.0175

          k =-0.1429-0.1429 0.5714 (  3316 PWs)   bands (ev):

   -30.0923 -13.7984 -13.7735 -13.7538   1.6634   3.8103   4.5310   5.8829
     6.5723

          k =-0.1429 0.7143-0.2857 (  3302 PWs)   bands (ev):

   -30.0915 -13.8041 -13.7829 -13.7540   2.7953   2.8292   4.1259   5.9594
     6.7009

          k =-0.2857 0.2857 0.2857 (  3304 PWs)   bands (ev):

   -30.0941 -13.7953 -13.7494 -13.7494   1.0034   4.3127   4.3127   6.4681
     7.0941

          k = 0.5714-0.5714 0.2857 (  3293 PWs)   bands (ev):

   -30.0929 -13.8011 -13.7671 -13.7508   2.0818   3.2880   4.0412   5.8022
     7.2476

          k = 0.4286-0.5714 0.4286 (  3322 PWs)   bands (ev):

   -30.0926 -13.7838 -13.7838 -13.7584   3.0625   3.0625   3.3592   5.1832
     7.3717

          k = 0.0000 0.0000 0.5714 (  3288 PWs)   bands (ev):

   -30.0922 -13.7837 -13.7710 -13.7710   1.4483   4.2917   5.1887   5.1887
     6.3005

          k = 0.0000-0.1429 0.7143 (  3325 PWs)   bands (ev):

   -30.0907 -13.7999 -13.7809 -13.7724   2.4384   3.5006   4.9076   5.1211
     6.1349

          k =-0.1429 0.8571-0.1429 (  3324 PWs)   bands (ev):

   -30.0900 -13.7951 -13.7951 -13.7750   3.2015   3.2015   4.2460   5.7756
     5.7756

          k = 0.0000 0.0000 0.8571 (  3320 PWs)   bands (ev):

   -30.0893 -13.7937 -13.7912 -13.7912   3.1096   3.5017   5.2233   5.2448
     5.2448

     the Fermi energy is     1.7336 ev

!    total energy              =     -58.74322563 Ry
     Harris-Foulkes estimate   =     -58.74322563 Ry
     estimated scf accuracy    <          6.8E-10 Ry

     The total energy is the sum of the following terms:

     one-electron contribution =     -36.65477796 Ry
     hartree contribution      =      18.82543097 Ry
     xc contribution           =     -11.01695019 Ry
     ewald contribution        =     -29.89633976 Ry
     smearing contrib. (-TS)   =      -0.00058870 Ry

     convergence has been achieved in   5 iterations

     Forces acting on atoms (cartesian axes, Ry/au):

     atom    1 type  1   force =     0.00000000    0.00000000    0.00000000

     Total force =     0.000000     Total SCF correction =     0.000000


     Computing stress (Cartesian axis) and pressure

          total   stress  (Ry/bohr**3)                   (kbar)     P=   -4.27
  -0.00002903  -0.00000000   0.00000000         -4.27     -0.00      0.00
  -0.00000000  -0.00002903   0.00000000         -0.00     -4.27      0.00
   0.00000000   0.00000000  -0.00002903          0.00      0.00     -4.27


     Writing output data file K.save/

     init_run     :      0.45s CPU      0.47s WALL (       1 calls)
     electrons    :      4.69s CPU      4.86s WALL (       1 calls)
     forces       :      0.09s CPU      0.09s WALL (       1 calls)
     stress       :      0.37s CPU      0.37s WALL (       1 calls)

     Called by init_run:
     wfcinit      :      0.21s CPU      0.22s WALL (       1 calls)
     potinit      :      0.01s CPU      0.01s WALL (       1 calls)
     hinit0       :      0.17s CPU      0.18s WALL (       1 calls)

     Called by electrons:
     c_bands      :      3.69s CPU      3.82s WALL (       6 calls)
     sum_band     :      0.84s CPU      0.87s WALL (       6 calls)
     v_of_rho     :      0.02s CPU      0.02s WALL (       6 calls)
     newd         :      0.16s CPU      0.16s WALL (       6 calls)
     mix_rho      :      0.01s CPU      0.01s WALL (       6 calls)

     Called by c_bands:
     init_us_2    :      0.13s CPU      0.13s WALL (     300 calls)
     cegterg      :      3.54s CPU      3.67s WALL (     120 calls)

     Called by sum_band:
     sum_band:bec :      0.00s CPU      0.00s WALL (     120 calls)
     addusdens    :      0.15s CPU      0.15s WALL (       6 calls)

     Called by *egterg:
     h_psi        :      3.01s CPU      3.13s WALL (     560 calls)
     s_psi        :      0.08s CPU      0.08s WALL (     560 calls)
     g_psi        :      0.01s CPU      0.01s WALL (     420 calls)
     cdiaghg      :      0.14s CPU      0.14s WALL (     520 calls)

     Called by h_psi:
     h_psi:pot    :      2.99s CPU      3.12s WALL (     560 calls)
     h_psi:calbec :      0.16s CPU      0.17s WALL (     560 calls)
     vloc_psi     :      2.74s CPU      2.86s WALL (     560 calls)
     add_vuspsi   :      0.09s CPU      0.09s WALL (     560 calls)

     General routines
     calbec       :      0.24s CPU      0.25s WALL (     780 calls)
     fft          :      0.03s CPU      0.03s WALL (      34 calls)
     ffts         :      0.01s CPU      0.01s WALL (       6 calls)
     fftw         :      3.06s CPU      3.19s WALL (    7374 calls)

     Parallel routines
     fft_scatt_xy :      0.22s CPU      0.23s WALL (    7414 calls)
     fft_scatt_yz :      0.88s CPU      0.92s WALL (    7414 calls)

     PWSCF        :     6.37s CPU         6.61s WALL


   This run was terminated on:   0:40:50   8Apr2024            

=------------------------------------------------------------------------------=
   JOB DONE.
=------------------------------------------------------------------------------=
