
     Program PWSCF v.6.3MaX starts on  8Apr2024 at  0:40:22 

     This program is part of the open-source Quantum ESPRESSO suite
     for quantum simulation of materials; please cite
         "P. Giannozzi et al., J. Phys.:Condens. Matter 21 395502 (2009);
         "P. Giannozzi et al., J. Phys.:Condens. Matter 29 465901 (2017);
          URL http://www.quantum-espresso.org", 
     in publications or presentations arising from this work. More details at
     http://www.quantum-espresso.org/quote

     Parallel version (MPI), running on     5 processors

     MPI processes distributed on     1 nodes
     R & G space division:  proc/nbgrp/npool/nimage =       5
     Waiting for input...
     Reading input from standard input

     Current dimensions of program PWSCF are:
     Max number of different atomic species (ntypx) = 10
     Max number of k-points (npk) =  40000
     Max angular momentum in pseudopotentials (lmaxx) =  3
               file K.pbe-spn-kjpaw_psl.1.0.0.UPF: wavefunction(s)  3S renormalized

     Subspace diagonalization in iterative solution of the eigenvalue problem:
     a serial algorithm will be used


     Parallelization info
     --------------------
     sticks:   dense  smooth     PW     G-vecs:    dense   smooth      PW
     Min         239     239     69                 5244     5244     818
     Max         240     240     69                 5246     5246     819
     Sum        1199    1199    345                26227    26227    4093



     bravais-lattice index     =            3
     lattice parameter (alat)  =       9.8600  a.u.
     unit-cell volume          =     479.2926 (a.u.)^3
     number of atoms/cell      =            1
     number of atomic types    =            1
     number of electrons       =         9.00
     number of Kohn-Sham states=            9
     kinetic-energy cutoff     =      55.0000  Ry
     charge density cutoff     =     220.0000  Ry
     convergence threshold     =      1.0E-08
     mixing beta               =       0.7000
     number of iterations used =            8  plain     mixing
     Exchange-correlation      = SLA PW PBX PBC ( 1  4  3  4 0 0)

     celldm(1)=   9.860000  celldm(2)=   0.000000  celldm(3)=   0.000000
     celldm(4)=   0.000000  celldm(5)=   0.000000  celldm(6)=   0.000000

     crystal axes: (cart. coord. in units of alat)
               a(1) = (   0.500000   0.500000   0.500000 )  
               a(2) = (  -0.500000   0.500000   0.500000 )  
               a(3) = (  -0.500000  -0.500000   0.500000 )  

     reciprocal axes: (cart. coord. in units 2 pi/alat)
               b(1) = (  1.000000  0.000000  1.000000 )  
               b(2) = ( -1.000000  1.000000  0.000000 )  
               b(3) = (  0.000000 -1.000000  1.000000 )  


     PseudoPot. # 1 for K  read from file:
     /home/lorenzo/pseudos/K/K.pbe-spn-kjpaw_psl.1.0.0.UPF
     MD5 check sum: 34cc42130a09071ebe376fd42eb21491
     Pseudo is Projector augmented-wave + core cor, Zval =  9.0
     Generated using "atomic" code by A. Dal Corso v.6.2.2
     Shape of augmentation charge: PSQ
     Using radial grid of 1165 points,  6 beta functions with: 
                l(1) =   0
                l(2) =   0
                l(3) =   1
                l(4) =   1
                l(5) =   2
                l(6) =   2
     Q(r) pseudized with 0 coefficients 


     atomic species   valence    mass     pseudopotential
        K              9.00    39.09830     K ( 1.00)

     48 Sym. Ops., with inversion, found



   Cartesian axes

     site n.     atom                  positions (alat units)
         1           K   tau(   1) = (   0.0000000   0.0000000   0.0000000  )

     number of k points=    20  gaussian smearing, width (Ry)=  0.0100
                       cart. coord. in units 2pi/alat
        k(    1) = (   0.0000000   0.0000000   0.0000000), wk =   0.0058309
        k(    2) = (   0.0000000  -0.1428571   0.1428571), wk =   0.0699708
        k(    3) = (   0.0000000  -0.2857143   0.2857143), wk =   0.0699708
        k(    4) = (   0.0000000  -0.4285714   0.4285714), wk =   0.0699708
        k(    5) = (  -0.1428571  -0.1428571   0.2857143), wk =   0.1399417
        k(    6) = (  -0.1428571  -0.2857143   0.4285714), wk =   0.2798834
        k(    7) = (  -0.1428571   0.5714286  -0.4285714), wk =   0.1399417
        k(    8) = (  -0.2857143   0.7142857  -0.4285714), wk =   0.1399417
        k(    9) = (   0.0000000   0.0000000   0.2857143), wk =   0.0349854
        k(   10) = (   0.0000000  -0.1428571   0.4285714), wk =   0.1399417
        k(   11) = (   0.0000000  -0.2857143   0.5714286), wk =   0.1399417
        k(   12) = (  -0.1428571  -0.1428571   0.5714286), wk =   0.1399417
        k(   13) = (  -0.1428571   0.7142857  -0.2857143), wk =   0.1399417
        k(   14) = (  -0.2857143   0.2857143   0.2857143), wk =   0.0466472
        k(   15) = (   0.5714286  -0.5714286   0.2857143), wk =   0.1399417
        k(   16) = (   0.4285714  -0.5714286   0.4285714), wk =   0.0466472
        k(   17) = (   0.0000000   0.0000000   0.5714286), wk =   0.0349854
        k(   18) = (   0.0000000  -0.1428571   0.7142857), wk =   0.1399417
        k(   19) = (  -0.1428571   0.8571429  -0.1428571), wk =   0.0466472
        k(   20) = (   0.0000000   0.0000000   0.8571429), wk =   0.0349854

     Dense  grid:    26227 G-vectors     FFT dimensions: (  45,  45,  45)

     Estimated max dynamical RAM per process >      23.47 MB

     Estimated total dynamical RAM >     117.37 MB

     Check: negative/imaginary core charge=   -0.000002    0.000000

     Initial potential from superposition of free atoms

     starting charge    8.98117, renormalised to    9.00000
     Starting wfcs are    8 randomized atomic wfcs +    1 random wfcs
     Checking if some PAW data can be deallocated... 

     total cpu time spent up to now is        1.4 secs

     Self-consistent Calculation

     iteration #  1     ecut=    55.00 Ry     beta= 0.70
     Davidson diagonalization with overlap
     ethr =  1.00E-02,  avg # of iterations =  6.5

     Threshold (ethr) on eigenvalues was too large:
     Diagonalizing with lowered threshold

     Davidson diagonalization with overlap
     ethr =  1.41E-05,  avg # of iterations =  6.8

     total cpu time spent up to now is        3.7 secs

     total energy              =    -113.01094737 Ry
     Harris-Foulkes estimate   =    -113.01146365 Ry
     estimated scf accuracy    <       0.00126088 Ry

     iteration #  2     ecut=    55.00 Ry     beta= 0.70
     Davidson diagonalization with overlap
     ethr =  1.40E-05,  avg # of iterations =  2.5

     total cpu time spent up to now is        4.6 secs

     total energy              =    -113.01117022 Ry
     Harris-Foulkes estimate   =    -113.01117991 Ry
     estimated scf accuracy    <       0.00010133 Ry

     iteration #  3     ecut=    55.00 Ry     beta= 0.70
     Davidson diagonalization with overlap
     ethr =  1.13E-06,  avg # of iterations =  2.4

     total cpu time spent up to now is        5.3 secs

     total energy              =    -113.01118222 Ry
     Harris-Foulkes estimate   =    -113.01117997 Ry
     estimated scf accuracy    <       0.00000692 Ry

     iteration #  4     ecut=    55.00 Ry     beta= 0.70
     Davidson diagonalization with overlap
     ethr =  7.69E-08,  avg # of iterations =  1.8

     total cpu time spent up to now is        6.0 secs

     total energy              =    -113.01118304 Ry
     Harris-Foulkes estimate   =    -113.01118304 Ry
     estimated scf accuracy    <       0.00000005 Ry

     iteration #  5     ecut=    55.00 Ry     beta= 0.70
     Davidson diagonalization with overlap
     ethr =  6.06E-10,  avg # of iterations =  2.4

     total cpu time spent up to now is        6.8 secs

     End of self-consistent calculation

          k = 0.0000 0.0000 0.0000 (  3319 PWs)   bands (ev):

   -30.1651 -13.6137 -13.6137 -13.6137  -0.2614   6.2641   6.2641   6.2641
     7.1815

          k = 0.0000-0.1429 0.1429 (  3289 PWs)   bands (ev):

   -30.1642 -13.6283 -13.6185 -13.6137  -0.0022   5.8124   5.9665   6.4718
     6.9373

          k = 0.0000-0.2857 0.2857 (  3296 PWs)   bands (ev):

   -30.1621 -13.6608 -13.6294 -13.6136   0.7395   4.5707   5.4690   7.0318
     7.0763

          k = 0.0000-0.4286 0.4286 (  3298 PWs)   bands (ev):

   -30.1605 -13.6864 -13.6381 -13.6136   1.8539   3.2121   5.1613   6.9234
     7.5062

          k =-0.1429-0.1429 0.2857 (  3298 PWs)   bands (ev):

   -30.1627 -13.6505 -13.6243 -13.6171   0.4989   5.1062   5.4089   6.7950
     6.8085

          k =-0.1429-0.2857 0.4286 (  3291 PWs)   bands (ev):

   -30.1608 -13.6749 -13.6373 -13.6184   1.4332   3.9656   4.9257   6.7986
     7.2370

          k =-0.1429 0.5714-0.4286 (  3302 PWs)   bands (ev):

   -30.1600 -13.6851 -13.6439 -13.6186   2.5866   2.7391   4.7618   6.6025
     7.6374

          k =-0.2857 0.7143-0.4286 (  3297 PWs)   bands (ev):

   -30.1598 -13.6749 -13.6544 -13.6226   2.4805   3.5058   3.9781   6.6488
     7.1570

          k = 0.0000 0.0000 0.2857 (  3295 PWs)   bands (ev):

   -30.1633 -13.6315 -13.6235 -13.6235   0.2515   5.8441   5.8441   5.9756
     6.5643

          k = 0.0000-0.1429 0.4286 (  3292 PWs)   bands (ev):

   -30.1613 -13.6590 -13.6347 -13.6250   0.9774   4.6562   5.4859   6.0201
     7.0935

          k = 0.0000-0.2857 0.5714 (  3309 PWs)   bands (ev):

   -30.1597 -13.6826 -13.6436 -13.6242   2.0700   3.3618   5.2299   5.9351
     7.3468

          k =-0.1429-0.1429 0.5714 (  3316 PWs)   bands (ev):

   -30.1596 -13.6728 -13.6489 -13.6301   1.8665   4.0154   4.7896   6.1625
     6.9005

          k =-0.1429 0.7143-0.2857 (  3302 PWs)   bands (ev):

   -30.1589 -13.6782 -13.6579 -13.6303   2.9680   3.0537   4.3798   6.2500
     7.0045

          k =-0.2857 0.2857 0.2857 (  3304 PWs)   bands (ev):

   -30.1613 -13.6699 -13.6259 -13.6259   1.2113   4.5495   4.5495   6.7861
     7.4254

          k = 0.5714-0.5714 0.2857 (  3293 PWs)   bands (ev):

   -30.1602 -13.6754 -13.6428 -13.6272   2.2856   3.4931   4.2712   6.1388
     7.5902

          k = 0.4286-0.5714 0.4286 (  3322 PWs)   bands (ev):

   -30.1599 -13.6589 -13.6589 -13.6345   3.2489   3.2489   3.5984   5.5324
     7.7182

          k = 0.0000 0.0000 0.5714 (  3288 PWs)   bands (ev):

   -30.1595 -13.6588 -13.6465 -13.6465   1.6509   4.5017   5.4531   5.4532
     6.6115

          k = 0.0000-0.1429 0.7143 (  3325 PWs)   bands (ev):

   -30.1581 -13.6742 -13.6560 -13.6479   2.6335   3.7022   5.1749   5.3755
     6.4191

          k =-0.1429 0.8571-0.1429 (  3324 PWs)   bands (ev):

   -30.1574 -13.6696 -13.6696 -13.6504   3.3892   3.3892   4.5203   6.0327
     6.0327

          k = 0.0000 0.0000 0.8571 (  3320 PWs)   bands (ev):

   -30.1568 -13.6682 -13.6658 -13.6658   3.3014   3.7012   5.4791   5.4791
     5.4909

     the Fermi energy is     1.9396 ev

!    total energy              =    -113.01118305 Ry
     Harris-Foulkes estimate   =    -113.01118305 Ry
     estimated scf accuracy    <          2.4E-09 Ry

     total all-electron energy =     -1204.249893 Ry

     The total energy is the sum of the following terms:

     one-electron contribution =     -35.40450205 Ry
     hartree contribution      =      18.88003089 Ry
     xc contribution           =     -11.16994030 Ry
     ewald contribution        =     -29.89633976 Ry
     one-center paw contrib.   =     -55.41984399 Ry
     smearing contrib. (-TS)   =      -0.00058784 Ry

     convergence has been achieved in   5 iterations

     Forces acting on atoms (cartesian axes, Ry/au):

     atom    1 type  1   force =     0.00000000    0.00000000    0.00000000

     Total force =     0.000000     Total SCF correction =     0.000000


     Computing stress (Cartesian axis) and pressure

          total   stress  (Ry/bohr**3)                   (kbar)     P=    1.07
   0.00000730   0.00000000  -0.00000000          1.07      0.00     -0.00
   0.00000000   0.00000730   0.00000000          0.00      1.07      0.00
  -0.00000000   0.00000000   0.00000730         -0.00      0.00      1.07


     Writing output data file K.save/

     init_run     :      0.58s CPU      0.61s WALL (       1 calls)
     electrons    :      5.18s CPU      5.39s WALL (       1 calls)
     forces       :      0.11s CPU      0.11s WALL (       1 calls)
     stress       :      0.39s CPU      0.39s WALL (       1 calls)

     Called by init_run:
     wfcinit      :      0.21s CPU      0.22s WALL (       1 calls)
     potinit      :      0.12s CPU      0.14s WALL (       1 calls)
     hinit0       :      0.18s CPU      0.18s WALL (       1 calls)

     Called by electrons:
     c_bands      :      3.75s CPU      3.92s WALL (       6 calls)
     sum_band     :      0.74s CPU      0.76s WALL (       6 calls)
     v_of_rho     :      0.11s CPU      0.12s WALL (       6 calls)
     newd         :      0.15s CPU      0.15s WALL (       6 calls)
     PAW_pot      :      0.55s CPU      0.57s WALL (       6 calls)
     mix_rho      :      0.01s CPU      0.01s WALL (       6 calls)

     Called by c_bands:
     init_us_2    :      0.13s CPU      0.13s WALL (     300 calls)
     cegterg      :      3.59s CPU      3.75s WALL (     120 calls)

     Called by sum_band:
     sum_band:bec :      0.00s CPU      0.00s WALL (     120 calls)
     addusdens    :      0.15s CPU      0.15s WALL (       6 calls)

     Called by *egterg:
     h_psi        :      3.05s CPU      3.19s WALL (     588 calls)
     s_psi        :      0.08s CPU      0.08s WALL (     588 calls)
     g_psi        :      0.01s CPU      0.01s WALL (     448 calls)
     cdiaghg      :      0.15s CPU      0.15s WALL (     548 calls)

     Called by h_psi:
     h_psi:pot    :      3.03s CPU      3.18s WALL (     588 calls)
     h_psi:calbec :      0.16s CPU      0.17s WALL (     588 calls)
     vloc_psi     :      2.77s CPU      2.91s WALL (     588 calls)
     add_vuspsi   :      0.09s CPU      0.09s WALL (     588 calls)

     General routines
     calbec       :      0.26s CPU      0.26s WALL (     808 calls)
     fft          :      0.07s CPU      0.08s WALL (      93 calls)
     ffts         :      0.00s CPU      0.00s WALL (       6 calls)
     fftw         :      3.00s CPU      3.15s WALL (    7532 calls)

     Parallel routines
     fft_scatt_xy :      0.23s CPU      0.24s WALL (    7631 calls)
     fft_scatt_yz :      0.82s CPU      0.86s WALL (    7631 calls)

     PWSCF        :     7.07s CPU         7.38s WALL


   This run was terminated on:   0:40:29   8Apr2024            

=------------------------------------------------------------------------------=
   JOB DONE.
=------------------------------------------------------------------------------=
