
     Program PWSCF v.6.3MaX starts on  8Apr2024 at  0:43:20 

     This program is part of the open-source Quantum ESPRESSO suite
     for quantum simulation of materials; please cite
         "P. Giannozzi et al., J. Phys.:Condens. Matter 21 395502 (2009);
         "P. Giannozzi et al., J. Phys.:Condens. Matter 29 465901 (2017);
          URL http://www.quantum-espresso.org", 
     in publications or presentations arising from this work. More details at
     http://www.quantum-espresso.org/quote

     Parallel version (MPI), running on     5 processors

     MPI processes distributed on     1 nodes
     R & G space division:  proc/nbgrp/npool/nimage =       5
     Waiting for input...
     Reading input from standard input

     Current dimensions of program PWSCF are:
     Max number of different atomic species (ntypx) = 10
     Max number of k-points (npk) =  40000
     Max angular momentum in pseudopotentials (lmaxx) =  3
               file K.pbe-spn-rrkjus_psl.1.0.0.UPF: wavefunction(s)  3S renormalized

     Subspace diagonalization in iterative solution of the eigenvalue problem:
     a serial algorithm will be used


     Parallelization info
     --------------------
     sticks:   dense  smooth     PW     G-vecs:    dense   smooth      PW
     Min         263     263     77                 6018     6018     950
     Max         263     263     78                 6019     6019     951
     Sum        1315    1315    387                30093    30093    4753



     bravais-lattice index     =            3
     lattice parameter (alat)  =       9.8600  a.u.
     unit-cell volume          =     479.2926 (a.u.)^3
     number of atoms/cell      =            1
     number of atomic types    =            1
     number of electrons       =         9.00
     number of Kohn-Sham states=            9
     kinetic-energy cutoff     =      60.0000  Ry
     charge density cutoff     =     240.0000  Ry
     convergence threshold     =      1.0E-08
     mixing beta               =       0.7000
     number of iterations used =            8  plain     mixing
     Exchange-correlation      = PBE ( 1  4  3  4 0 0)

     celldm(1)=   9.860000  celldm(2)=   0.000000  celldm(3)=   0.000000
     celldm(4)=   0.000000  celldm(5)=   0.000000  celldm(6)=   0.000000

     crystal axes: (cart. coord. in units of alat)
               a(1) = (   0.500000   0.500000   0.500000 )  
               a(2) = (  -0.500000   0.500000   0.500000 )  
               a(3) = (  -0.500000  -0.500000   0.500000 )  

     reciprocal axes: (cart. coord. in units 2 pi/alat)
               b(1) = (  1.000000  0.000000  1.000000 )  
               b(2) = ( -1.000000  1.000000  0.000000 )  
               b(3) = (  0.000000 -1.000000  1.000000 )  


     PseudoPot. # 1 for K  read from file:
     /home/lorenzo/pseudos/K/K.pbe-spn-rrkjus_psl.1.0.0.UPF
     MD5 check sum: 897b700350bb708b0563e904352feb48
     Pseudo is Ultrasoft + core correction, Zval =  9.0
     Generated using "atomic" code by A. Dal Corso v.6.2.2
     Using radial grid of 1165 points,  6 beta functions with: 
                l(1) =   0
                l(2) =   0
                l(3) =   1
                l(4) =   1
                l(5) =   2
                l(6) =   2
     Q(r) pseudized with 0 coefficients 


     atomic species   valence    mass     pseudopotential
        K              9.00    39.09830     K ( 1.00)

     48 Sym. Ops., with inversion, found



   Cartesian axes

     site n.     atom                  positions (alat units)
         1           K   tau(   1) = (   0.0000000   0.0000000   0.0000000  )

     number of k points=    56  gaussian smearing, width (Ry)=  0.0100
                       cart. coord. in units 2pi/alat
        k(    1) = (   0.0000000   0.0000000   0.0000000), wk =   0.0015026
        k(    2) = (   0.0000000  -0.0909091   0.0909091), wk =   0.0180316
        k(    3) = (   0.0000000  -0.1818182   0.1818182), wk =   0.0180316
        k(    4) = (   0.0000000  -0.2727273   0.2727273), wk =   0.0180316
        k(    5) = (   0.0000000  -0.3636364   0.3636364), wk =   0.0180316
        k(    6) = (   0.0000000  -0.4545455   0.4545455), wk =   0.0180316
        k(    7) = (  -0.0909091  -0.0909091   0.1818182), wk =   0.0360631
        k(    8) = (  -0.0909091  -0.1818182   0.2727273), wk =   0.0721262
        k(    9) = (  -0.0909091  -0.2727273   0.3636364), wk =   0.0721262
        k(   10) = (  -0.0909091  -0.3636364   0.4545455), wk =   0.0721262
        k(   11) = (  -0.0909091   0.5454545  -0.4545455), wk =   0.0360631
        k(   12) = (  -0.1818182  -0.1818182   0.3636364), wk =   0.0360631
        k(   13) = (  -0.1818182  -0.2727273   0.4545455), wk =   0.0721262
        k(   14) = (  -0.1818182   0.6363636  -0.4545455), wk =   0.0721262
        k(   15) = (  -0.2727273   0.7272727  -0.4545455), wk =   0.0360631
        k(   16) = (  -0.2727273   0.6363636  -0.3636364), wk =   0.0360631
        k(   17) = (   0.0000000   0.0000000   0.1818182), wk =   0.0090158
        k(   18) = (   0.0000000  -0.0909091   0.2727273), wk =   0.0360631
        k(   19) = (   0.0000000  -0.1818182   0.3636364), wk =   0.0360631
        k(   20) = (   0.0000000  -0.2727273   0.4545455), wk =   0.0360631
        k(   21) = (   0.0000000  -0.3636364   0.5454545), wk =   0.0360631
        k(   22) = (  -0.0909091  -0.0909091   0.3636364), wk =   0.0360631
        k(   23) = (  -0.0909091  -0.1818182   0.4545455), wk =   0.0721262
        k(   24) = (  -0.0909091  -0.2727273   0.5454545), wk =   0.0721262
        k(   25) = (  -0.0909091   0.6363636  -0.3636364), wk =   0.0360631
        k(   26) = (  -0.1818182   0.1818182   0.1818182), wk =   0.0120210
        k(   27) = (  -0.1818182  -0.1818182   0.5454545), wk =   0.0360631
        k(   28) = (  -0.1818182   0.7272727  -0.3636364), wk =   0.0721262
        k(   29) = (  -0.2727273   0.2727273   0.1818182), wk =   0.0360631
        k(   30) = (  -0.2727273   0.7272727  -0.2727273), wk =   0.0120210
        k(   31) = (  -0.3636364   0.3636364   0.1818182), wk =   0.0360631
        k(   32) = (  -0.3636364   0.2727273   0.2727273), wk =   0.0360631
        k(   33) = (   0.5454545  -0.5454545   0.1818182), wk =   0.0360631
        k(   34) = (   0.5454545  -0.6363636   0.2727273), wk =   0.0721262
        k(   35) = (   0.4545455  -0.5454545   0.2727273), wk =   0.0360631
        k(   36) = (   0.4545455  -0.6363636   0.3636364), wk =   0.0360631
        k(   37) = (   0.0000000   0.0000000   0.3636364), wk =   0.0090158
        k(   38) = (   0.0000000  -0.0909091   0.4545455), wk =   0.0360631
        k(   39) = (   0.0000000  -0.1818182   0.5454545), wk =   0.0360631
        k(   40) = (   0.0000000  -0.2727273   0.6363636), wk =   0.0360631
        k(   41) = (  -0.0909091  -0.0909091   0.5454545), wk =   0.0360631
        k(   42) = (  -0.0909091  -0.1818182   0.6363636), wk =   0.0721262
        k(   43) = (  -0.0909091   0.7272727  -0.2727273), wk =   0.0360631
        k(   44) = (  -0.1818182   0.8181818  -0.2727273), wk =   0.0360631
        k(   45) = (   0.6363636  -0.6363636   0.3636364), wk =   0.0120210
        k(   46) = (   0.5454545  -0.5454545   0.3636364), wk =   0.0360631
        k(   47) = (   0.4545455  -0.5454545   0.4545455), wk =   0.0120210
        k(   48) = (   0.0000000   0.0000000   0.5454545), wk =   0.0090158
        k(   49) = (   0.0000000  -0.0909091   0.6363636), wk =   0.0360631
        k(   50) = (   0.0000000  -0.1818182   0.7272727), wk =   0.0360631
        k(   51) = (  -0.0909091  -0.0909091   0.7272727), wk =   0.0360631
        k(   52) = (  -0.0909091   0.8181818  -0.1818182), wk =   0.0360631
        k(   53) = (   0.0000000   0.0000000   0.7272727), wk =   0.0090158
        k(   54) = (   0.0000000  -0.0909091   0.8181818), wk =   0.0360631
        k(   55) = (  -0.0909091   0.9090909  -0.0909091), wk =   0.0120210
        k(   56) = (   0.0000000   0.0000000   0.9090909), wk =   0.0090158

     Dense  grid:    30093 G-vectors     FFT dimensions: (  45,  45,  45)

     Estimated max dynamical RAM per process >      30.26 MB

     Estimated total dynamical RAM >     151.29 MB

     Check: negative/imaginary core charge=   -0.000003    0.000000

     Initial potential from superposition of free atoms

     starting charge    8.98117, renormalised to    9.00000
     Starting wfcs are    8 randomized atomic wfcs +    1 random wfcs

     total cpu time spent up to now is        1.9 secs

     Self-consistent Calculation

     iteration #  1     ecut=    60.00 Ry     beta= 0.70
     Davidson diagonalization with overlap
     ethr =  1.00E-02,  avg # of iterations =  6.6

     Threshold (ethr) on eigenvalues was too large:
     Diagonalizing with lowered threshold

     Davidson diagonalization with overlap
     ethr =  1.43E-05,  avg # of iterations =  6.2

     total cpu time spent up to now is        7.7 secs

     total energy              =     -58.77376031 Ry
     Harris-Foulkes estimate   =     -58.77429156 Ry
     estimated scf accuracy    <       0.00127336 Ry

     iteration #  2     ecut=    60.00 Ry     beta= 0.70
     Davidson diagonalization with overlap
     ethr =  1.41E-05,  avg # of iterations =  2.2

     total cpu time spent up to now is        9.6 secs

     total energy              =     -58.77399467 Ry
     Harris-Foulkes estimate   =     -58.77399750 Ry
     estimated scf accuracy    <       0.00010181 Ry

     iteration #  3     ecut=    60.00 Ry     beta= 0.70
     Davidson diagonalization with overlap
     ethr =  1.13E-06,  avg # of iterations =  2.2

     total cpu time spent up to now is       11.3 secs

     total energy              =     -58.77400458 Ry
     Harris-Foulkes estimate   =     -58.77400201 Ry
     estimated scf accuracy    <       0.00000690 Ry

     iteration #  4     ecut=    60.00 Ry     beta= 0.70
     Davidson diagonalization with overlap
     ethr =  7.67E-08,  avg # of iterations =  1.7

     total cpu time spent up to now is       12.9 secs

     total energy              =     -58.77400517 Ry
     Harris-Foulkes estimate   =     -58.77400517 Ry
     estimated scf accuracy    <       0.00000005 Ry

     iteration #  5     ecut=    60.00 Ry     beta= 0.70
     Davidson diagonalization with overlap
     ethr =  5.38E-10,  avg # of iterations =  2.6

     total cpu time spent up to now is       14.6 secs

     End of self-consistent calculation

          k = 0.0000 0.0000 0.0000 (  3781 PWs)   bands (ev):

   -30.1647 -13.6137 -13.6137 -13.6137  -0.2614   6.2635   6.2635   6.2635
     7.1817

          k = 0.0000-0.0909 0.0909 (  3767 PWs)   bands (ev):

   -30.1643 -13.6199 -13.6157 -13.6137  -0.1558   6.1057   6.1293   6.3480
     7.0068

          k = 0.0000-0.1818 0.1818 (  3759 PWs)   bands (ev):

   -30.1632 -13.6363 -13.6212 -13.6137   0.1554   5.5094   5.8267   6.5985
     6.9431

          k = 0.0000-0.2727 0.2727 (  3775 PWs)   bands (ev):

   -30.1619 -13.6577 -13.6284 -13.6136   0.6544   4.6924   5.5092   7.0057
     7.0236

          k = 0.0000-0.3636 0.3636 (  3781 PWs)   bands (ev):

   -30.1606 -13.6771 -13.6349 -13.6136   1.3118   3.8309   5.2660   7.0096
     7.3157

          k = 0.0000-0.4545 0.4545 (  3770 PWs)   bands (ev):

   -30.1599 -13.6885 -13.6388 -13.6136   2.0795   2.9697   5.1369   6.8937
     7.5952

          k =-0.0909-0.0909 0.1818 (  3771 PWs)   bands (ev):

   -30.1636 -13.6312 -13.6179 -13.6152   0.0527   5.7674   5.8618   6.5072
     6.8346

          k =-0.0909-0.1818 0.2727 (  3773 PWs)   bands (ev):

   -30.1624 -13.6493 -13.6245 -13.6158   0.4581   5.0938   5.5122   6.7962
     6.8304

          k =-0.0909-0.2727 0.3636 (  3777 PWs)   bands (ev):

   -30.1611 -13.6684 -13.6324 -13.6159   1.0376   4.2848   5.2271   6.8605
     7.2084

          k =-0.0909-0.3636 0.4545 (  3766 PWs)   bands (ev):

   -30.1601 -13.6827 -13.6387 -13.6160   1.7554   3.4397   5.0435   6.7802
     7.5103

          k =-0.0909 0.5455-0.4545 (  3755 PWs)   bands (ev):

   -30.1597 -13.6880 -13.6410 -13.6160   2.4701   2.6852   4.9803   6.6995
     7.6768

          k =-0.1818-0.1818 0.3636 (  3761 PWs)   bands (ev):

   -30.1612 -13.6638 -13.6308 -13.6188   0.9449   4.6010   5.0473   6.8426
     6.9955

          k =-0.1818-0.2727 0.4545 (  3764 PWs)   bands (ev):

   -30.1602 -13.6753 -13.6399 -13.6200   1.5881   3.9406   4.7131   6.8058
     7.1249

          k =-0.1818 0.6364-0.4545 (  3760 PWs)   bands (ev):

   -30.1596 -13.6814 -13.6464 -13.6204   2.3441   3.1598   4.5542   6.6063
     7.4098

          k =-0.2727 0.7273-0.4545 (  3764 PWs)   bands (ev):

   -30.1595 -13.6759 -13.6512 -13.6223   2.2708   3.6180   4.1196   6.6916
     7.1076

          k =-0.2727 0.6364-0.3636 (  3760 PWs)   bands (ev):

   -30.1593 -13.6733 -13.6584 -13.6229   2.9849   3.0513   3.8832   6.5918
     7.2995

          k = 0.0000 0.0000 0.1818 (  3768 PWs)   bands (ev):

   -30.1639 -13.6216 -13.6178 -13.6178  -0.0510   6.0550   6.0550   6.3871
     6.5732

          k = 0.0000-0.0909 0.2727 (  3775 PWs)   bands (ev):

   -30.1629 -13.6364 -13.6233 -13.6187   0.2575   5.5414   5.8042   6.3588
     6.6112

          k = 0.0000-0.1818 0.3636 (  3770 PWs)   bands (ev):

   -30.1616 -13.6570 -13.6306 -13.6185   0.7523   4.7299   5.5158   6.4031
     7.0075

          k = 0.0000-0.2727 0.4545 (  3780 PWs)   bands (ev):

   -30.1603 -13.6758 -13.6372 -13.6182   1.4044   3.8835   5.2890   6.4115
     7.5137

          k = 0.0000-0.3636 0.5455 (  3759 PWs)   bands (ev):

   -30.1596 -13.6869 -13.6411 -13.6181   2.1689   3.0324   5.1673   6.3363
     7.5527

          k =-0.0909-0.0909 0.3636 (  3769 PWs)   bands (ev):

   -30.1617 -13.6504 -13.6295 -13.6222   0.6558   5.0512   5.4868   6.2360
     6.8664

          k =-0.0909-0.1818 0.4545 (  3766 PWs)   bands (ev):

   -30.1605 -13.6671 -13.6376 -13.6229   1.2251   4.3444   5.1719   6.2997
     7.1842

          k =-0.0909-0.2727 0.5455 (  3755 PWs)   bands (ev):

   -30.1595 -13.6800 -13.6442 -13.6228   1.9308   3.5527   4.9660   6.2597
     7.3012

          k =-0.0909 0.6364-0.3636 (  3747 PWs)   bands (ev):

   -30.1592 -13.6848 -13.6466 -13.6228   2.6780   2.7774   4.8930   6.1979
     7.4183

          k =-0.1818 0.1818 0.1818 (  3772 PWs)   bands (ev):

   -30.1627 -13.6468 -13.6183 -13.6183   0.3583   5.3659   5.3659   6.7255
     7.1435

          k =-0.1818-0.1818 0.5455 (  3747 PWs)   bands (ev):

   -30.1595 -13.6747 -13.6478 -13.6249   1.8491   3.9349   4.6135   6.4839
     6.9772

          k =-0.1818 0.7273-0.3636 (  3750 PWs)   bands (ev):

   -30.1589 -13.6777 -13.6559 -13.6254   2.5796   3.3352   4.2710   6.5320
     7.0890

          k =-0.2727 0.2727 0.1818 (  3766 PWs)   bands (ev):

   -30.1615 -13.6630 -13.6264 -13.6187   0.8497   4.6804   5.0339   6.9234
     7.2137

          k =-0.2727 0.7273-0.2727 (  3751 PWs)   bands (ev):

   -30.1587 -13.6688 -13.6688 -13.6260   3.1793   3.1793   3.7140   6.9515
     7.1659

          k =-0.3636 0.3636 0.1818 (  3776 PWs)   bands (ev):

   -30.1604 -13.6759 -13.6357 -13.6191   1.4985   3.9107   4.8038   6.8409
     7.4219

          k =-0.3636 0.2727 0.2727 (  3774 PWs)   bands (ev):

   -30.1606 -13.6725 -13.6325 -13.6232   1.4115   4.2629   4.5529   6.7294
     7.3324

          k = 0.5455-0.5455 0.1818 (  3776 PWs)   bands (ev):

   -30.1598 -13.6828 -13.6419 -13.6194   2.2598   3.0966   4.6868   6.6195
     7.6528

          k = 0.5455-0.6364 0.2727 (  3770 PWs)   bands (ev):

   -30.1599 -13.6760 -13.6427 -13.6249   2.1079   3.6373   4.3024   6.3391
     7.4687

          k = 0.4545-0.5455 0.2727 (  3766 PWs)   bands (ev):

   -30.1596 -13.6760 -13.6479 -13.6254   2.8721   2.8876   4.2301   6.1660
     7.5737

          k = 0.4545-0.6364 0.3636 (  3752 PWs)   bands (ev):

   -30.1595 -13.6689 -13.6543 -13.6280   2.8079   3.4070   3.7651   5.9743
     7.5556

          k = 0.0000 0.0000 0.3636 (  3768 PWs)   bands (ev):

   -30.1619 -13.6398 -13.6290 -13.6290   0.5580   5.5271   5.6953   5.6953
     6.7415

          k = 0.0000-0.0909 0.4545 (  3763 PWs)   bands (ev):

   -30.1606 -13.6555 -13.6365 -13.6311   1.0395   4.7928   5.5128   5.7572
     7.0661

          k = 0.0000-0.1818 0.5455 (  3761 PWs)   bands (ev):

   -30.1595 -13.6724 -13.6433 -13.6305   1.6732   4.0178   5.3444   5.7436
     7.1237

          k = 0.0000-0.2727 0.6364 (  3760 PWs)   bands (ev):

   -30.1588 -13.6825 -13.6474 -13.6300   2.4177   3.2190   5.2484   5.6215
     7.1668

          k =-0.0909-0.0909 0.5455 (  3761 PWs)   bands (ev):

   -30.1595 -13.6660 -13.6452 -13.6347   1.5859   4.3335   5.1597   5.8393
     6.9181

          k =-0.0909-0.1818 0.6364 (  3766 PWs)   bands (ev):

   -30.1586 -13.6757 -13.6527 -13.6348   2.2586   3.7294   4.8164   5.9236
     6.8017

          k =-0.0909 0.7273-0.2727 (  3750 PWs)   bands (ev):

   -30.1582 -13.6795 -13.6556 -13.6346   2.9593   3.0480   4.6892   5.9018
     6.9202

          k =-0.1818 0.8182-0.2727 (  3755 PWs)   bands (ev):

   -30.1580 -13.6740 -13.6639 -13.6354   2.9163   3.4620   4.1851   6.3118
     6.6331

          k = 0.6364-0.6364 0.3636 (  3766 PWs)   bands (ev):

   -30.1600 -13.6736 -13.6341 -13.6341   2.0273   4.0400   4.0400   6.1005
     7.6294

          k = 0.5455-0.5455 0.3636 (  3771 PWs)   bands (ev):

   -30.1596 -13.6686 -13.6463 -13.6351   2.7361   3.4460   3.9299   5.6272
     7.6854

          k = 0.4545-0.5455 0.4545 (  3775 PWs)   bands (ev):

   -30.1595 -13.6561 -13.6561 -13.6401   3.3026   3.3026   3.5911   5.3026
     7.7595

          k = 0.0000 0.0000 0.5455 (  3776 PWs)   bands (ev):

   -30.1595 -13.6569 -13.6442 -13.6442   1.4967   4.6119   5.4688   5.4688
     6.7827

          k = 0.0000-0.0909 0.6364 (  3759 PWs)   bands (ev):

   -30.1584 -13.6681 -13.6513 -13.6463   2.0916   4.1102   5.3778   5.4006
     6.4287

          k = 0.0000-0.1818 0.7273 (  3746 PWs)   bands (ev):

   -30.1577 -13.6767 -13.6556 -13.6454   2.7710   3.4902   5.1503   5.3525
     6.5697

          k =-0.0909-0.0909 0.7273 (  3747 PWs)   bands (ev):

   -30.1575 -13.6720 -13.6601 -13.6486   2.6931   3.7869   4.8645   5.7154
     6.2292

          k =-0.0909 0.8182-0.1818 (  3744 PWs)   bands (ev):

   -30.1572 -13.6736 -13.6642 -13.6484   3.2174   3.4088   4.6061   5.8132
     6.2983

          k = 0.0000 0.0000 0.7273 (  3740 PWs)   bands (ev):

   -30.1573 -13.6660 -13.6587 -13.6587   2.6140   3.9691   5.4336   5.4336
     5.7868

          k = 0.0000-0.0909 0.8182 (  3731 PWs)   bands (ev):

   -30.1567 -13.6714 -13.6630 -13.6595   3.1564   3.6664   5.1346   5.4445
     5.9378

          k =-0.0909 0.9091-0.0909 (  3736 PWs)   bands (ev):

   -30.1564 -13.6691 -13.6691 -13.6605   3.4976   3.4976   4.9778   5.7415
     5.7415

          k = 0.0000 0.0000 0.9091 (  3744 PWs)   bands (ev):

   -30.1562 -13.6685 -13.6675 -13.6675   3.4784   3.6408   5.4821   5.4968
     5.4968

     the Fermi energy is     1.9691 ev

!    total energy              =     -58.77400519 Ry
     Harris-Foulkes estimate   =     -58.77400519 Ry
     estimated scf accuracy    <          1.2E-09 Ry

     The total energy is the sum of the following terms:

     one-electron contribution =     -36.58781694 Ry
     hartree contribution      =      18.88048268 Ry
     xc contribution           =     -11.16989077 Ry
     ewald contribution        =     -29.89633971 Ry
     smearing contrib. (-TS)   =      -0.00044045 Ry

     convergence has been achieved in   5 iterations

     Forces acting on atoms (cartesian axes, Ry/au):

     atom    1 type  1   force =     0.00000000    0.00000000    0.00000000

     Total force =     0.000000     Total SCF correction =     0.000000


     Computing stress (Cartesian axis) and pressure

          total   stress  (Ry/bohr**3)                   (kbar)     P=    1.30
   0.00000884  -0.00000000   0.00000000          1.30     -0.00      0.00
  -0.00000000   0.00000884  -0.00000000         -0.00      1.30     -0.00
   0.00000000  -0.00000000   0.00000884          0.00     -0.00      1.30


     Writing output data file K.save/

     init_run     :      0.86s CPU      0.90s WALL (       1 calls)
     electrons    :     12.26s CPU     12.75s WALL (       1 calls)
     forces       :      0.18s CPU      0.18s WALL (       1 calls)
     stress       :      0.73s CPU      0.74s WALL (       1 calls)

     Called by init_run:
     wfcinit      :      0.56s CPU      0.59s WALL (       1 calls)
     potinit      :      0.03s CPU      0.03s WALL (       1 calls)
     hinit0       :      0.19s CPU      0.20s WALL (       1 calls)

     Called by electrons:
     c_bands      :     10.18s CPU     10.60s WALL (       6 calls)
     sum_band     :      1.83s CPU      1.90s WALL (       6 calls)
     v_of_rho     :      0.11s CPU      0.11s WALL (       6 calls)
     newd         :      0.17s CPU      0.17s WALL (       6 calls)
     mix_rho      :      0.01s CPU      0.01s WALL (       6 calls)

     Called by c_bands:
     init_us_2    :      0.37s CPU      0.38s WALL (     840 calls)
     cegterg      :      9.73s CPU     10.14s WALL (     336 calls)

     Called by sum_band:
     sum_band:bec :      0.00s CPU      0.00s WALL (     336 calls)
     addusdens    :      0.17s CPU      0.18s WALL (       6 calls)

     Called by *egterg:
     h_psi        :      8.19s CPU      8.58s WALL (    1601 calls)
     s_psi        :      0.24s CPU      0.25s WALL (    1601 calls)
     g_psi        :      0.02s CPU      0.03s WALL (    1209 calls)
     cdiaghg      :      0.36s CPU      0.37s WALL (    1489 calls)

     Called by h_psi:
     h_psi:pot    :      8.14s CPU      8.53s WALL (    1601 calls)
     h_psi:calbec :      0.47s CPU      0.48s WALL (    1601 calls)
     vloc_psi     :      7.39s CPU      7.76s WALL (    1601 calls)
     add_vuspsi   :      0.27s CPU      0.28s WALL (    1601 calls)

     General routines
     calbec       :      0.73s CPU      0.75s WALL (    2217 calls)
     fft          :      0.07s CPU      0.08s WALL (      93 calls)
     ffts         :      0.00s CPU      0.00s WALL (       6 calls)
     fftw         :      8.13s CPU      8.53s WALL (   20718 calls)

     Parallel routines
     fft_scatt_xy :      0.63s CPU      0.66s WALL (   20817 calls)
     fft_scatt_yz :      1.97s CPU      2.07s WALL (   20817 calls)

     PWSCF        :    15.09s CPU        15.75s WALL


   This run was terminated on:   0:43:36   8Apr2024            

=------------------------------------------------------------------------------=
   JOB DONE.
=------------------------------------------------------------------------------=
