
     Program PWSCF v.6.3MaX starts on  8Apr2024 at  1:22:16 

     This program is part of the open-source Quantum ESPRESSO suite
     for quantum simulation of materials; please cite
         "P. Giannozzi et al., J. Phys.:Condens. Matter 21 395502 (2009);
         "P. Giannozzi et al., J. Phys.:Condens. Matter 29 465901 (2017);
          URL http://www.quantum-espresso.org", 
     in publications or presentations arising from this work. More details at
     http://www.quantum-espresso.org/quote

     Parallel version (MPI), running on     5 processors

     MPI processes distributed on     1 nodes
     R & G space division:  proc/nbgrp/npool/nimage =       5
     Waiting for input...
     Reading input from standard input

     Current dimensions of program PWSCF are:
     Max number of different atomic species (ntypx) = 10
     Max number of k-points (npk) =  40000
     Max angular momentum in pseudopotentials (lmaxx) =  3
               file K.pbe-spn-kjpaw_psl.1.0.0.UPF: wavefunction(s)  3S renormalized

     Subspace diagonalization in iterative solution of the eigenvalue problem:
     a serial algorithm will be used


     Parallelization info
     --------------------
     sticks:   dense  smooth     PW     G-vecs:    dense   smooth      PW
     Min         369     369    106                10119    10119    1541
     Max         370     370    107                10120    10120    1542
     Sum        1849    1849    531                50597    50597    7707



     bravais-lattice index     =            3
     lattice parameter (alat)  =       9.8600  a.u.
     unit-cell volume          =     479.2926 (a.u.)^3
     number of atoms/cell      =            1
     number of atomic types    =            1
     number of electrons       =         9.00
     number of Kohn-Sham states=            9
     kinetic-energy cutoff     =      85.0000  Ry
     charge density cutoff     =     340.0000  Ry
     convergence threshold     =      1.0E-08
     mixing beta               =       0.7000
     number of iterations used =            8  plain     mixing
     Exchange-correlation      = SLA PW PBX PBC ( 1  4  3  4 0 0)

     celldm(1)=   9.860000  celldm(2)=   0.000000  celldm(3)=   0.000000
     celldm(4)=   0.000000  celldm(5)=   0.000000  celldm(6)=   0.000000

     crystal axes: (cart. coord. in units of alat)
               a(1) = (   0.500000   0.500000   0.500000 )  
               a(2) = (  -0.500000   0.500000   0.500000 )  
               a(3) = (  -0.500000  -0.500000   0.500000 )  

     reciprocal axes: (cart. coord. in units 2 pi/alat)
               b(1) = (  1.000000  0.000000  1.000000 )  
               b(2) = ( -1.000000  1.000000  0.000000 )  
               b(3) = (  0.000000 -1.000000  1.000000 )  


     PseudoPot. # 1 for K  read from file:
     /home/lorenzo/pseudos/K/K.pbe-spn-kjpaw_psl.1.0.0.UPF
     MD5 check sum: 34cc42130a09071ebe376fd42eb21491
     Pseudo is Projector augmented-wave + core cor, Zval =  9.0
     Generated using "atomic" code by A. Dal Corso v.6.2.2
     Shape of augmentation charge: PSQ
     Using radial grid of 1165 points,  6 beta functions with: 
                l(1) =   0
                l(2) =   0
                l(3) =   1
                l(4) =   1
                l(5) =   2
                l(6) =   2
     Q(r) pseudized with 0 coefficients 


     atomic species   valence    mass     pseudopotential
        K              9.00    39.09830     K ( 1.00)

     48 Sym. Ops., with inversion, found



   Cartesian axes

     site n.     atom                  positions (alat units)
         1           K   tau(   1) = (   0.0000000   0.0000000   0.0000000  )

     number of k points=    35  gaussian smearing, width (Ry)=  0.0100
                       cart. coord. in units 2pi/alat
        k(    1) = (   0.0000000   0.0000000   0.0000000), wk =   0.0027435
        k(    2) = (   0.0000000  -0.1111111   0.1111111), wk =   0.0329218
        k(    3) = (   0.0000000  -0.2222222   0.2222222), wk =   0.0329218
        k(    4) = (   0.0000000  -0.3333333   0.3333333), wk =   0.0329218
        k(    5) = (   0.0000000  -0.4444444   0.4444444), wk =   0.0329218
        k(    6) = (  -0.1111111  -0.1111111   0.2222222), wk =   0.0658436
        k(    7) = (  -0.1111111  -0.2222222   0.3333333), wk =   0.1316872
        k(    8) = (  -0.1111111  -0.3333333   0.4444444), wk =   0.1316872
        k(    9) = (  -0.1111111   0.5555556  -0.4444444), wk =   0.0658436
        k(   10) = (  -0.2222222  -0.2222222   0.4444444), wk =   0.0658436
        k(   11) = (  -0.2222222   0.6666667  -0.4444444), wk =   0.1316872
        k(   12) = (  -0.3333333   0.6666667  -0.3333333), wk =   0.0219479
        k(   13) = (   0.0000000   0.0000000   0.2222222), wk =   0.0164609
        k(   14) = (   0.0000000  -0.1111111   0.3333333), wk =   0.0658436
        k(   15) = (   0.0000000  -0.2222222   0.4444444), wk =   0.0658436
        k(   16) = (   0.0000000  -0.3333333   0.5555556), wk =   0.0658436
        k(   17) = (  -0.1111111  -0.1111111   0.4444444), wk =   0.0658436
        k(   18) = (  -0.1111111  -0.2222222   0.5555556), wk =   0.1316872
        k(   19) = (  -0.1111111   0.6666667  -0.3333333), wk =   0.0658436
        k(   20) = (  -0.2222222   0.2222222   0.2222222), wk =   0.0219479
        k(   21) = (  -0.2222222   0.7777778  -0.3333333), wk =   0.0658436
        k(   22) = (  -0.3333333   0.3333333   0.2222222), wk =   0.0658436
        k(   23) = (   0.5555556  -0.5555556   0.2222222), wk =   0.0658436
        k(   24) = (   0.5555556  -0.6666667   0.3333333), wk =   0.0658436
        k(   25) = (   0.4444444  -0.5555556   0.3333333), wk =   0.0658436
        k(   26) = (   0.0000000   0.0000000   0.4444444), wk =   0.0164609
        k(   27) = (   0.0000000  -0.1111111   0.5555556), wk =   0.0658436
        k(   28) = (   0.0000000  -0.2222222   0.6666667), wk =   0.0658436
        k(   29) = (  -0.1111111  -0.1111111   0.6666667), wk =   0.0658436
        k(   30) = (  -0.1111111   0.7777778  -0.2222222), wk =   0.0658436
        k(   31) = (   0.5555556  -0.5555556   0.4444444), wk =   0.0219479
        k(   32) = (   0.0000000   0.0000000   0.6666667), wk =   0.0164609
        k(   33) = (   0.0000000  -0.1111111   0.7777778), wk =   0.0658436
        k(   34) = (  -0.1111111   0.8888889  -0.1111111), wk =   0.0219479
        k(   35) = (   0.0000000   0.0000000   0.8888889), wk =   0.0164609

     Dense  grid:    50597 G-vectors     FFT dimensions: (  54,  54,  54)

     Estimated max dynamical RAM per process >      46.39 MB

     Estimated total dynamical RAM >     231.93 MB

     Check: negative/imaginary core charge=   -0.000001    0.000000

     Initial potential from superposition of free atoms

     starting charge    8.98117, renormalised to    9.00000
     Starting wfcs are    8 randomized atomic wfcs +    1 random wfcs
     Checking if some PAW data can be deallocated... 

     total cpu time spent up to now is        1.9 secs

     Self-consistent Calculation

     iteration #  1     ecut=    85.00 Ry     beta= 0.70
     Davidson diagonalization with overlap
     ethr =  1.00E-02,  avg # of iterations =  6.6

     Threshold (ethr) on eigenvalues was too large:
     Diagonalizing with lowered threshold

     Davidson diagonalization with overlap
     ethr =  1.42E-05,  avg # of iterations =  7.0

     total cpu time spent up to now is        8.8 secs

     total energy              =    -113.01131542 Ry
     Harris-Foulkes estimate   =    -113.01183668 Ry
     estimated scf accuracy    <       0.00126144 Ry

     iteration #  2     ecut=    85.00 Ry     beta= 0.70
     Davidson diagonalization with overlap
     ethr =  1.40E-05,  avg # of iterations =  2.2

     total cpu time spent up to now is       11.1 secs

     total energy              =    -113.01153868 Ry
     Harris-Foulkes estimate   =    -113.01154869 Ry
     estimated scf accuracy    <       0.00010172 Ry

     iteration #  3     ecut=    85.00 Ry     beta= 0.70
     Davidson diagonalization with overlap
     ethr =  1.13E-06,  avg # of iterations =  2.3

     total cpu time spent up to now is       13.2 secs

     total energy              =    -113.01155078 Ry
     Harris-Foulkes estimate   =    -113.01154855 Ry
     estimated scf accuracy    <       0.00000694 Ry

     iteration #  4     ecut=    85.00 Ry     beta= 0.70
     Davidson diagonalization with overlap
     ethr =  7.71E-08,  avg # of iterations =  1.7

     total cpu time spent up to now is       15.2 secs

     total energy              =    -113.01155151 Ry
     Harris-Foulkes estimate   =    -113.01155151 Ry
     estimated scf accuracy    <       0.00000005 Ry

     iteration #  5     ecut=    85.00 Ry     beta= 0.70
     Davidson diagonalization with overlap
     ethr =  5.90E-10,  avg # of iterations =  2.6

     total cpu time spent up to now is       17.6 secs

     End of self-consistent calculation

          k = 0.0000 0.0000 0.0000 (  6363 PWs)   bands (ev):

   -30.1661 -13.6142 -13.6142 -13.6142  -0.2617   6.2633   6.2633   7.1808
     7.1810

          k = 0.0000-0.1111 0.1111 (  6371 PWs)   bands (ev):

   -30.1655 -13.6233 -13.6172 -13.6142  -0.1042   6.0102   6.0703   6.3893
     6.9673

          k = 0.0000-0.2222 0.2222 (  6367 PWs)   bands (ev):

   -30.1641 -13.6461 -13.6248 -13.6142   0.3552   5.1569   5.6803   6.7605
     6.9766

          k = 0.0000-0.3333 0.3333 (  6344 PWs)   bands (ev):

   -30.1624 -13.6718 -13.6335 -13.6142   1.0772   4.1196   5.3354   7.0331
     7.2497

          k = 0.0000-0.4444 0.4444 (  6320 PWs)   bands (ev):

   -30.1613 -13.6883 -13.6391 -13.6142   1.9915   3.0628   5.1448   6.9036
     7.5598

          k =-0.1111-0.1111 0.2222 (  6361 PWs)   bands (ev):

   -30.1645 -13.6390 -13.6206 -13.6164   0.2044   5.5220   5.6924   6.6170
     6.8001

          k =-0.1111-0.2222 0.3333 (  6363 PWs)   bands (ev):

   -30.1630 -13.6613 -13.6297 -13.6173   0.7963   4.6501   5.2735   6.8302
     7.0157

          k =-0.1111-0.3333 0.4444 (  6343 PWs)   bands (ev):

   -30.1616 -13.6802 -13.6388 -13.6174   1.6201   3.6473   5.0019   6.7736
     7.4245

          k =-0.1111 0.5556-0.4444 (  6315 PWs)   bands (ev):

   -30.1611 -13.6875 -13.6424 -13.6175   2.5093   2.7030   4.9073   6.6537
     7.6630

          k =-0.2222-0.2222 0.4444 (  6348 PWs)   bands (ev):

   -30.1617 -13.6738 -13.6397 -13.6210   1.4929   4.1231   4.6542   6.9384
     6.9437

          k =-0.2222 0.6667-0.4444 (  6321 PWs)   bands (ev):

   -30.1609 -13.6787 -13.6505 -13.6223   2.3793   3.3349   4.2969   6.6262
     7.2537

          k =-0.3333 0.6667-0.3333 (  6326 PWs)   bands (ev):

   -30.1606 -13.6668 -13.6668 -13.6238   3.1567   3.1567   3.5774   6.5947
     7.3430

          k = 0.0000 0.0000 0.2222 (  6375 PWs)   bands (ev):

   -30.1649 -13.6257 -13.6203 -13.6203   0.0513   5.9738   5.9738   6.3455
     6.4468

          k = 0.0000-0.1111 0.3333 (  6348 PWs)   bands (ev):

   -30.1635 -13.6458 -13.6280 -13.6215   0.5048   5.2032   5.6665   6.2127
     6.7768

          k = 0.0000-0.2222 0.4444 (  6341 PWs)   bands (ev):

   -30.1619 -13.6702 -13.6368 -13.6211   1.2177   4.1888   5.3623   6.2624
     7.3525

          k = 0.0000-0.3333 0.5556 (  6340 PWs)   bands (ev):

   -30.1609 -13.6859 -13.6425 -13.6207   2.1235   3.1561   5.1889   6.1745
     7.4847

          k =-0.1111-0.1111 0.4444 (  6344 PWs)   bands (ev):

   -30.1621 -13.6617 -13.6371 -13.6259   1.0808   4.6157   5.2401   6.1649
     7.0903

          k =-0.1111-0.2222 0.5556 (  6344 PWs)   bands (ev):

   -30.1608 -13.6770 -13.6470 -13.6264   1.8819   3.7885   4.8512   6.2362
     7.1100

          k =-0.1111 0.6667-0.3333 (  6324 PWs)   bands (ev):

   -30.1603 -13.6830 -13.6511 -13.6263   2.8120   2.8410   4.7137   6.1740
     7.2760

          k =-0.2222 0.2222 0.2222 (  6366 PWs)   bands (ev):

   -30.1634 -13.6579 -13.6213 -13.6213   0.6522   5.0364   5.0364   6.8544
     7.2416

          k =-0.2222 0.7778-0.3333 (  6331 PWs)   bands (ev):

   -30.1600 -13.6755 -13.6614 -13.6279   2.7152   3.4540   4.0399   6.6387
     6.8902

          k =-0.3333 0.3333 0.2222 (  6353 PWs)   bands (ev):

   -30.1621 -13.6731 -13.6330 -13.6221   1.3587   4.1940   4.6980   6.7951
     7.3771

          k = 0.5556-0.5556 0.2222 (  6346 PWs)   bands (ev):

   -30.1612 -13.6804 -13.6431 -13.6226   2.2569   3.2478   4.5266   6.4479
     7.5909

          k = 0.5556-0.6667 0.3333 (  6365 PWs)   bands (ev):

   -30.1613 -13.6746 -13.6426 -13.6284   2.1425   3.7946   4.1226   6.1699
     7.5112

          k = 0.4444-0.5556 0.3333 (  6343 PWs)   bands (ev):

   -30.1610 -13.6703 -13.6524 -13.6299   3.0076   3.0752   3.9299   5.8699
     7.6140

          k = 0.0000 0.0000 0.4444 (  6355 PWs)   bands (ev):

   -30.1622 -13.6487 -13.6361 -13.6361   0.9403   5.0913   5.5703   5.5703
     7.4374

          k = 0.0000-0.1111 0.5556 (  6340 PWs)   bands (ev):

   -30.1607 -13.6662 -13.6452 -13.6382   1.6221   4.3133   5.4102   5.5633
     6.8801

          k = 0.0000-0.2222 0.6667 (  6329 PWs)   bands (ev):

   -30.1598 -13.6799 -13.6512 -13.6373   2.4821   3.4197   5.2987   5.3833
     6.9027

          k =-0.1111-0.1111 0.6667 (  6328 PWs)   bands (ev):

   -30.1596 -13.6732 -13.6567 -13.6415   2.3620   3.8665   4.8045   5.8546
     6.5010

          k =-0.1111 0.7778-0.2222 (  6326 PWs)   bands (ev):

   -30.1591 -13.6760 -13.6626 -13.6414   3.1092   3.2818   4.4708   5.9652
     6.5777

          k = 0.5556-0.5556 0.4444 (  6347 PWs)   bands (ev):

   -30.1610 -13.6639 -13.6446 -13.6446   2.9323   3.6330   3.6330   5.3473
     7.7555

          k = 0.0000 0.0000 0.6667 (  6346 PWs)   bands (ev):

   -30.1594 -13.6645 -13.6548 -13.6548   2.2383   4.1492   5.4270   5.4270
     6.0567

          k = 0.0000-0.1111 0.7778 (  6344 PWs)   bands (ev):

   -30.1585 -13.6730 -13.6610 -13.6559   2.9647   3.6831   5.1074   5.4177
     6.1135

          k =-0.1111 0.8889-0.1111 (  6350 PWs)   bands (ev):

   -30.1580 -13.6699 -13.6699 -13.6574   3.4563   3.4563   4.7972   5.8444
     5.8444

          k = 0.0000 0.0000 0.8889 (  6346 PWs)   bands (ev):

   -30.1576 -13.6689 -13.6674 -13.6674   3.4181   3.6607   5.4796   5.4902
     5.4902

     the Fermi energy is     1.9568 ev

!    total energy              =    -113.01155153 Ry
     Harris-Foulkes estimate   =    -113.01155153 Ry
     estimated scf accuracy    <          2.5E-09 Ry

     total all-electron energy =     -1204.250262 Ry

     The total energy is the sum of the following terms:

     one-electron contribution =     -35.40543993 Ry
     hartree contribution      =      18.88007766 Ry
     xc contribution           =     -11.16977974 Ry
     ewald contribution        =     -29.89633970 Ry
     one-center paw contrib.   =     -55.41963481 Ry
     smearing contrib. (-TS)   =      -0.00043501 Ry

     convergence has been achieved in   5 iterations

     Forces acting on atoms (cartesian axes, Ry/au):

     atom    1 type  1   force =     0.00000000    0.00000000    0.00000000

     Total force =     0.000000     Total SCF correction =     0.000000


     Computing stress (Cartesian axis) and pressure

          total   stress  (Ry/bohr**3)                   (kbar)     P=    1.27
   0.00000866  -0.00000000   0.00000000          1.27     -0.00      0.00
  -0.00000000   0.00000866  -0.00000000         -0.00      1.27     -0.00
   0.00000000  -0.00000000   0.00000866          0.00     -0.00      1.27


     Writing output data file K.save/

     init_run     :      1.13s CPU      1.19s WALL (       1 calls)
     electrons    :     15.21s CPU     15.66s WALL (       1 calls)
     forces       :      0.22s CPU      0.22s WALL (       1 calls)
     stress       :      0.91s CPU      0.92s WALL (       1 calls)

     Called by init_run:
     wfcinit      :      0.63s CPU      0.65s WALL (       1 calls)
     potinit      :      0.14s CPU      0.16s WALL (       1 calls)
     hinit0       :      0.23s CPU      0.24s WALL (       1 calls)

     Called by electrons:
     c_bands      :     12.04s CPU     12.39s WALL (       6 calls)
     sum_band     :      2.27s CPU      2.33s WALL (       6 calls)
     v_of_rho     :      0.19s CPU      0.20s WALL (       6 calls)
     newd         :      0.28s CPU      0.30s WALL (       6 calls)
     PAW_pot      :      0.57s CPU      0.60s WALL (       6 calls)
     mix_rho      :      0.01s CPU      0.01s WALL (       6 calls)

     Called by c_bands:
     init_us_2    :      0.41s CPU      0.42s WALL (     525 calls)
     cegterg      :     11.56s CPU     11.91s WALL (     210 calls)

     Called by sum_band:
     sum_band:bec :      0.00s CPU      0.00s WALL (     210 calls)
     addusdens    :      0.27s CPU      0.28s WALL (       6 calls)

     Called by *egterg:
     h_psi        :      9.92s CPU     10.26s WALL (    1025 calls)
     s_psi        :      0.26s CPU      0.27s WALL (    1025 calls)
     g_psi        :      0.03s CPU      0.03s WALL (     780 calls)
     cdiaghg      :      0.25s CPU      0.25s WALL (     955 calls)

     Called by h_psi:
     h_psi:pot    :      9.87s CPU     10.21s WALL (    1025 calls)
     h_psi:calbec :      0.54s CPU      0.55s WALL (    1025 calls)
     vloc_psi     :      9.02s CPU      9.35s WALL (    1025 calls)
     add_vuspsi   :      0.30s CPU      0.31s WALL (    1025 calls)

     General routines
     calbec       :      0.81s CPU      0.83s WALL (    1410 calls)
     fft          :      0.11s CPU      0.12s WALL (      93 calls)
     ffts         :      0.01s CPU      0.01s WALL (       6 calls)
     fftw         :      9.66s CPU     10.01s WALL (   13242 calls)

     Parallel routines
     fft_scatt_xy :      0.79s CPU      0.82s WALL (   13341 calls)
     fft_scatt_yz :      2.32s CPU      2.41s WALL (   13341 calls)

     PWSCF        :    18.28s CPU        18.92s WALL


   This run was terminated on:   1:22:35   8Apr2024            

=------------------------------------------------------------------------------=
   JOB DONE.
=------------------------------------------------------------------------------=
