
     Program PWSCF v.6.3MaX starts on  8Apr2024 at  0:39: 1 

     This program is part of the open-source Quantum ESPRESSO suite
     for quantum simulation of materials; please cite
         "P. Giannozzi et al., J. Phys.:Condens. Matter 21 395502 (2009);
         "P. Giannozzi et al., J. Phys.:Condens. Matter 29 465901 (2017);
          URL http://www.quantum-espresso.org", 
     in publications or presentations arising from this work. More details at
     http://www.quantum-espresso.org/quote

     Parallel version (MPI), running on     5 processors

     MPI processes distributed on     1 nodes
     R & G space division:  proc/nbgrp/npool/nimage =       5
     Waiting for input...
     Reading input from standard input

     Current dimensions of program PWSCF are:
     Max number of different atomic species (ntypx) = 10
     Max number of k-points (npk) =  40000
     Max angular momentum in pseudopotentials (lmaxx) =  3
               file K.pz-spn-kjpaw_psl.1.0.0.UPF: wavefunction(s)  3S renormalized

     Subspace diagonalization in iterative solution of the eigenvalue problem:
     a serial algorithm will be used


     Parallelization info
     --------------------
     sticks:   dense  smooth     PW     G-vecs:    dense   smooth      PW
     Min         239     239     69                 5244     5244     837
     Max         240     240     69                 5246     5246     838
     Sum        1199    1199    345                26227    26227    4189



     bravais-lattice index     =            3
     lattice parameter (alat)  =       9.8600  a.u.
     unit-cell volume          =     479.2926 (a.u.)^3
     number of atoms/cell      =            1
     number of atomic types    =            1
     number of electrons       =         9.00
     number of Kohn-Sham states=            9
     kinetic-energy cutoff     =      55.0000  Ry
     charge density cutoff     =     220.0000  Ry
     convergence threshold     =      1.0E-08
     mixing beta               =       0.7000
     number of iterations used =            8  plain     mixing
     Exchange-correlation      = SLA PZ NOGX NOGC ( 1  1  0  0 0 0)

     celldm(1)=   9.860000  celldm(2)=   0.000000  celldm(3)=   0.000000
     celldm(4)=   0.000000  celldm(5)=   0.000000  celldm(6)=   0.000000

     crystal axes: (cart. coord. in units of alat)
               a(1) = (   0.500000   0.500000   0.500000 )  
               a(2) = (  -0.500000   0.500000   0.500000 )  
               a(3) = (  -0.500000  -0.500000   0.500000 )  

     reciprocal axes: (cart. coord. in units 2 pi/alat)
               b(1) = (  1.000000  0.000000  1.000000 )  
               b(2) = ( -1.000000  1.000000  0.000000 )  
               b(3) = (  0.000000 -1.000000  1.000000 )  


     PseudoPot. # 1 for K  read from file:
     /home/lorenzo/pseudos/K/K.pz-spn-kjpaw_psl.1.0.0.UPF
     MD5 check sum: 59b94f4c1a6681f21e103574f2c5fc67
     Pseudo is Projector augmented-wave + core cor, Zval =  9.0
     Generated using "atomic" code by A. Dal Corso v.6.2.2
     Shape of augmentation charge: PSQ
     Using radial grid of 1165 points,  6 beta functions with: 
                l(1) =   0
                l(2) =   0
                l(3) =   1
                l(4) =   1
                l(5) =   2
                l(6) =   2
     Q(r) pseudized with 0 coefficients 


     atomic species   valence    mass     pseudopotential
        K              9.00    39.09830     K ( 1.00)

     48 Sym. Ops., with inversion, found



   Cartesian axes

     site n.     atom                  positions (alat units)
         1           K   tau(   1) = (   0.0000000   0.0000000   0.0000000  )

     number of k points=     3  gaussian smearing, width (Ry)=  0.0100
                       cart. coord. in units 2pi/alat
        k(    1) = (   0.0000000   0.0000000   0.0000000), wk =   0.2500000
        k(    2) = (   0.0000000   0.5000000  -0.5000000), wk =   1.5000000
        k(    3) = (   0.0000000   0.0000000  -1.0000000), wk =   0.2500000

     Dense  grid:    26227 G-vectors     FFT dimensions: (  45,  45,  45)

     Estimated max dynamical RAM per process >      21.93 MB

     Estimated total dynamical RAM >     109.67 MB

     Check: negative/imaginary core charge=   -0.000002    0.000000

     Initial potential from superposition of free atoms

     starting charge    8.98437, renormalised to    9.00000
     Starting wfcs are    8 randomized atomic wfcs +    1 random wfcs
     Checking if some PAW data can be deallocated... 

     total cpu time spent up to now is        1.0 secs

     Self-consistent Calculation

     iteration #  1     ecut=    55.00 Ry     beta= 0.70
     Davidson diagonalization with overlap
     ethr =  1.00E-02,  avg # of iterations = 10.3

     Threshold (ethr) on eigenvalues was too large:
     Diagonalizing with lowered threshold

     Davidson diagonalization with overlap
     ethr =  5.09E-06,  avg # of iterations =  4.7

     total cpu time spent up to now is        1.4 secs

     total energy              =    -109.83257371 Ry
     Harris-Foulkes estimate   =    -109.83292871 Ry
     estimated scf accuracy    <       0.00048231 Ry

     iteration #  2     ecut=    55.00 Ry     beta= 0.70
     Davidson diagonalization with overlap
     ethr =  5.36E-06,  avg # of iterations =  2.3

     total cpu time spent up to now is        1.6 secs

     total energy              =    -109.83270147 Ry
     Harris-Foulkes estimate   =    -109.83272385 Ry
     estimated scf accuracy    <       0.00003113 Ry

     iteration #  3     ecut=    55.00 Ry     beta= 0.70
     Davidson diagonalization with overlap
     ethr =  3.46E-07,  avg # of iterations =  2.0

     total cpu time spent up to now is        1.8 secs

     total energy              =    -109.83270927 Ry
     Harris-Foulkes estimate   =    -109.83270909 Ry
     estimated scf accuracy    <       0.00000055 Ry

     iteration #  4     ecut=    55.00 Ry     beta= 0.70
     Davidson diagonalization with overlap
     ethr =  6.15E-09,  avg # of iterations =  2.0

     total cpu time spent up to now is        2.0 secs

     End of self-consistent calculation

          k = 0.0000 0.0000 0.0000 (  3319 PWs)   bands (ev):

   -29.9787 -13.6219 -13.6219 -13.6219  -0.4438   5.9753   5.9753   6.9466
     6.9468

          k = 0.0000 0.5000-0.5000 (  3268 PWs)   bands (ev):

   -29.9734 -13.7029 -13.6491 -13.6217   2.1760   2.5286   4.8758   6.5877
     7.8849

          k = 0.0000 0.0000-1.0000 (  3300 PWs)   bands (ev):

   -29.9693 -13.6803 -13.6803 -13.6803   3.4550   5.3063   5.3063   5.3063
     7.2893

     the Fermi energy is     2.1760 ev

!    total energy              =    -109.83270936 Ry
     Harris-Foulkes estimate   =    -109.83270935 Ry
     estimated scf accuracy    <          7.3E-09 Ry

     total all-electron energy =     -1201.157709 Ry

     The total energy is the sum of the following terms:

     one-electron contribution =     -35.39695887 Ry
     hartree contribution      =      18.89968567 Ry
     xc contribution           =     -11.02395531 Ry
     ewald contribution        =     -29.89633976 Ry
     one-center paw contrib.   =     -52.41090454 Ry
     smearing contrib. (-TS)   =      -0.00423655 Ry

     convergence has been achieved in   4 iterations

     Forces acting on atoms (cartesian axes, Ry/au):

     atom    1 type  1   force =     0.00000000    0.00000000    0.00000000

     Total force =     0.000000     Total SCF correction =     0.000000


     Computing stress (Cartesian axis) and pressure

          total   stress  (Ry/bohr**3)                   (kbar)     P=   -2.83
  -0.00001920  -0.00000000   0.00000000         -2.83     -0.00      0.00
  -0.00000000  -0.00001920  -0.00000000         -0.00     -2.83     -0.00
   0.00000000  -0.00000000  -0.00001920          0.00     -0.00     -2.83


     Writing output data file K.save/

     init_run     :      0.32s CPU      0.34s WALL (       1 calls)
     electrons    :      0.94s CPU      0.98s WALL (       1 calls)
     forces       :      0.08s CPU      0.08s WALL (       1 calls)
     stress       :      0.21s CPU      0.21s WALL (       1 calls)

     Called by init_run:
     wfcinit      :      0.03s CPU      0.03s WALL (       1 calls)
     potinit      :      0.06s CPU      0.06s WALL (       1 calls)
     hinit0       :      0.18s CPU      0.19s WALL (       1 calls)

     Called by electrons:
     c_bands      :      0.44s CPU      0.46s WALL (       5 calls)
     sum_band     :      0.20s CPU      0.21s WALL (       5 calls)
     v_of_rho     :      0.02s CPU      0.02s WALL (       5 calls)
     newd         :      0.13s CPU      0.14s WALL (       5 calls)
     PAW_pot      :      0.21s CPU      0.21s WALL (       5 calls)
     mix_rho      :      0.01s CPU      0.01s WALL (       5 calls)

     Called by c_bands:
     init_us_2    :      0.02s CPU      0.02s WALL (      39 calls)
     cegterg      :      0.43s CPU      0.44s WALL (      15 calls)

     Called by sum_band:
     sum_band:bec :      0.00s CPU      0.00s WALL (      15 calls)
     addusdens    :      0.12s CPU      0.12s WALL (       5 calls)

     Called by *egterg:
     h_psi        :      0.36s CPU      0.37s WALL (      82 calls)
     s_psi        :      0.01s CPU      0.01s WALL (      82 calls)
     g_psi        :      0.00s CPU      0.00s WALL (      64 calls)
     cdiaghg      :      0.02s CPU      0.02s WALL (      76 calls)

     Called by h_psi:
     h_psi:pot    :      0.36s CPU      0.37s WALL (      82 calls)
     h_psi:calbec :      0.02s CPU      0.02s WALL (      82 calls)
     vloc_psi     :      0.33s CPU      0.34s WALL (      82 calls)
     add_vuspsi   :      0.01s CPU      0.01s WALL (      82 calls)

     General routines
     calbec       :      0.03s CPU      0.03s WALL (     112 calls)
     fft          :      0.03s CPU      0.04s WALL (      30 calls)
     ffts         :      0.00s CPU      0.00s WALL (       5 calls)
     fftw         :      0.34s CPU      0.36s WALL (     969 calls)

     Parallel routines
     fft_scatt_xy :      0.03s CPU      0.03s WALL (    1004 calls)
     fft_scatt_yz :      0.08s CPU      0.09s WALL (    1004 calls)

     PWSCF        :     2.25s CPU         2.34s WALL


   This run was terminated on:   0:39: 3   8Apr2024            

=------------------------------------------------------------------------------=
   JOB DONE.
=------------------------------------------------------------------------------=
