
     Program PWSCF v.6.3MaX starts on  8Apr2024 at  0:18:45 

     This program is part of the open-source Quantum ESPRESSO suite
     for quantum simulation of materials; please cite
         "P. Giannozzi et al., J. Phys.:Condens. Matter 21 395502 (2009);
         "P. Giannozzi et al., J. Phys.:Condens. Matter 29 465901 (2017);
          URL http://www.quantum-espresso.org", 
     in publications or presentations arising from this work. More details at
     http://www.quantum-espresso.org/quote

     Parallel version (MPI), running on     5 processors

     MPI processes distributed on     1 nodes
     R & G space division:  proc/nbgrp/npool/nimage =       5
     Waiting for input...
     Reading input from standard input

     Current dimensions of program PWSCF are:
     Max number of different atomic species (ntypx) = 10
     Max number of k-points (npk) =  40000
     Max angular momentum in pseudopotentials (lmaxx) =  3
               file K.pz-spn-kjpaw_psl.1.0.0.UPF: wavefunction(s)  3S renormalized

     Subspace diagonalization in iterative solution of the eigenvalue problem:
     a serial algorithm will be used


     Parallelization info
     --------------------
     sticks:   dense  smooth     PW     G-vecs:    dense   smooth      PW
     Min         110     110     34                 1630     1630     286
     Max         111     111     35                 1631     1631     287
     Sum         553     553    173                 8151     8151    1433



     bravais-lattice index     =            3
     lattice parameter (alat)  =       9.8600  a.u.
     unit-cell volume          =     479.2926 (a.u.)^3
     number of atoms/cell      =            1
     number of atomic types    =            1
     number of electrons       =         9.00
     number of Kohn-Sham states=            9
     kinetic-energy cutoff     =      25.0000  Ry
     charge density cutoff     =     100.0000  Ry
     convergence threshold     =      1.0E-08
     mixing beta               =       0.7000
     number of iterations used =            8  plain     mixing
     Exchange-correlation      = SLA PZ NOGX NOGC ( 1  1  0  0 0 0)

     celldm(1)=   9.860000  celldm(2)=   0.000000  celldm(3)=   0.000000
     celldm(4)=   0.000000  celldm(5)=   0.000000  celldm(6)=   0.000000

     crystal axes: (cart. coord. in units of alat)
               a(1) = (   0.500000   0.500000   0.500000 )  
               a(2) = (  -0.500000   0.500000   0.500000 )  
               a(3) = (  -0.500000  -0.500000   0.500000 )  

     reciprocal axes: (cart. coord. in units 2 pi/alat)
               b(1) = (  1.000000  0.000000  1.000000 )  
               b(2) = ( -1.000000  1.000000  0.000000 )  
               b(3) = (  0.000000 -1.000000  1.000000 )  


     PseudoPot. # 1 for K  read from file:
     /home/lorenzo/pseudos/K/K.pz-spn-kjpaw_psl.1.0.0.UPF
     MD5 check sum: 59b94f4c1a6681f21e103574f2c5fc67
     Pseudo is Projector augmented-wave + core cor, Zval =  9.0
     Generated using "atomic" code by A. Dal Corso v.6.2.2
     Shape of augmentation charge: PSQ
     Using radial grid of 1165 points,  6 beta functions with: 
                l(1) =   0
                l(2) =   0
                l(3) =   1
                l(4) =   1
                l(5) =   2
                l(6) =   2
     Q(r) pseudized with 0 coefficients 


     atomic species   valence    mass     pseudopotential
        K              9.00    39.09830     K ( 1.00)

     48 Sym. Ops., with inversion, found



   Cartesian axes

     site n.     atom                  positions (alat units)
         1           K   tau(   1) = (   0.0000000   0.0000000   0.0000000  )

     number of k points=    35  gaussian smearing, width (Ry)=  0.0100
                       cart. coord. in units 2pi/alat
        k(    1) = (   0.0000000   0.0000000   0.0000000), wk =   0.0027435
        k(    2) = (   0.0000000  -0.1111111   0.1111111), wk =   0.0329218
        k(    3) = (   0.0000000  -0.2222222   0.2222222), wk =   0.0329218
        k(    4) = (   0.0000000  -0.3333333   0.3333333), wk =   0.0329218
        k(    5) = (   0.0000000  -0.4444444   0.4444444), wk =   0.0329218
        k(    6) = (  -0.1111111  -0.1111111   0.2222222), wk =   0.0658436
        k(    7) = (  -0.1111111  -0.2222222   0.3333333), wk =   0.1316872
        k(    8) = (  -0.1111111  -0.3333333   0.4444444), wk =   0.1316872
        k(    9) = (  -0.1111111   0.5555556  -0.4444444), wk =   0.0658436
        k(   10) = (  -0.2222222  -0.2222222   0.4444444), wk =   0.0658436
        k(   11) = (  -0.2222222   0.6666667  -0.4444444), wk =   0.1316872
        k(   12) = (  -0.3333333   0.6666667  -0.3333333), wk =   0.0219479
        k(   13) = (   0.0000000   0.0000000   0.2222222), wk =   0.0164609
        k(   14) = (   0.0000000  -0.1111111   0.3333333), wk =   0.0658436
        k(   15) = (   0.0000000  -0.2222222   0.4444444), wk =   0.0658436
        k(   16) = (   0.0000000  -0.3333333   0.5555556), wk =   0.0658436
        k(   17) = (  -0.1111111  -0.1111111   0.4444444), wk =   0.0658436
        k(   18) = (  -0.1111111  -0.2222222   0.5555556), wk =   0.1316872
        k(   19) = (  -0.1111111   0.6666667  -0.3333333), wk =   0.0658436
        k(   20) = (  -0.2222222   0.2222222   0.2222222), wk =   0.0219479
        k(   21) = (  -0.2222222   0.7777778  -0.3333333), wk =   0.0658436
        k(   22) = (  -0.3333333   0.3333333   0.2222222), wk =   0.0658436
        k(   23) = (   0.5555556  -0.5555556   0.2222222), wk =   0.0658436
        k(   24) = (   0.5555556  -0.6666667   0.3333333), wk =   0.0658436
        k(   25) = (   0.4444444  -0.5555556   0.3333333), wk =   0.0658436
        k(   26) = (   0.0000000   0.0000000   0.4444444), wk =   0.0164609
        k(   27) = (   0.0000000  -0.1111111   0.5555556), wk =   0.0658436
        k(   28) = (   0.0000000  -0.2222222   0.6666667), wk =   0.0658436
        k(   29) = (  -0.1111111  -0.1111111   0.6666667), wk =   0.0658436
        k(   30) = (  -0.1111111   0.7777778  -0.2222222), wk =   0.0658436
        k(   31) = (   0.5555556  -0.5555556   0.4444444), wk =   0.0219479
        k(   32) = (   0.0000000   0.0000000   0.6666667), wk =   0.0164609
        k(   33) = (   0.0000000  -0.1111111   0.7777778), wk =   0.0658436
        k(   34) = (  -0.1111111   0.8888889  -0.1111111), wk =   0.0219479
        k(   35) = (   0.0000000   0.0000000   0.8888889), wk =   0.0164609

     Dense  grid:     8151 G-vectors     FFT dimensions: (  27,  27,  27)

     Estimated max dynamical RAM per process >       8.30 MB

     Estimated total dynamical RAM >      41.48 MB

     Check: negative/imaginary core charge=   -0.000056    0.000000

     Initial potential from superposition of free atoms

     starting charge    8.98437, renormalised to    9.00000
     Starting wfcs are    8 randomized atomic wfcs +    1 random wfcs
     Checking if some PAW data can be deallocated... 

     total cpu time spent up to now is        1.0 secs

     Self-consistent Calculation

     iteration #  1     ecut=    25.00 Ry     beta= 0.70
     Davidson diagonalization with overlap
     ethr =  1.00E-02,  avg # of iterations =  7.4

     Threshold (ethr) on eigenvalues was too large:
     Diagonalizing with lowered threshold

     Davidson diagonalization with overlap
     ethr =  1.73E-05,  avg # of iterations =  6.1

     total cpu time spent up to now is        2.1 secs

     total energy              =    -109.85444106 Ry
     Harris-Foulkes estimate   =    -109.85539659 Ry
     estimated scf accuracy    <       0.00158493 Ry

     iteration #  2     ecut=    25.00 Ry     beta= 0.70
     Davidson diagonalization with overlap
     ethr =  1.76E-05,  avg # of iterations =  2.1

     total cpu time spent up to now is        2.6 secs

     total energy              =    -109.85481818 Ry
     Harris-Foulkes estimate   =    -109.85486403 Ry
     estimated scf accuracy    <       0.00015956 Ry

     iteration #  3     ecut=    25.00 Ry     beta= 0.70
     Davidson diagonalization with overlap
     ethr =  1.77E-06,  avg # of iterations =  2.5

     total cpu time spent up to now is        2.9 secs

     total energy              =    -109.85483841 Ry
     Harris-Foulkes estimate   =    -109.85483684 Ry
     estimated scf accuracy    <       0.00000926 Ry

     iteration #  4     ecut=    25.00 Ry     beta= 0.70
     Davidson diagonalization with overlap
     ethr =  1.03E-07,  avg # of iterations =  1.5

     total cpu time spent up to now is        3.2 secs

     total energy              =    -109.85483893 Ry
     Harris-Foulkes estimate   =    -109.85483893 Ry
     estimated scf accuracy    <       0.00000002 Ry

     iteration #  5     ecut=    25.00 Ry     beta= 0.70
     Davidson diagonalization with overlap
     ethr =  1.94E-10,  avg # of iterations =  2.6

     total cpu time spent up to now is        3.6 secs

     End of self-consistent calculation

          k = 0.0000 0.0000 0.0000 (   959 PWs)   bands (ev):

   -30.1401 -13.7279 -13.7279 -13.7279  -0.4781   6.0009   6.0009   6.0009
     6.9606

          k = 0.0000-0.1111 0.1111 (   999 PWs)   bands (ev):

   -30.1395 -13.7486 -13.7402 -13.7359  -0.3196   5.7515   5.8025   6.1137
     6.7383

          k = 0.0000-0.2222 0.2222 (  1003 PWs)   bands (ev):

   -30.1379 -13.7730 -13.7482 -13.7364   0.1428   4.9311   5.4230   6.4870
     6.7322

          k = 0.0000-0.3333 0.3333 (  1027 PWs)   bands (ev):

   -30.1362 -13.8037 -13.7613 -13.7421   0.8678   3.9144   5.0821   6.7634
     7.0194

          k = 0.0000-0.4444 0.4444 (  1021 PWs)   bands (ev):

   -30.1351 -13.8165 -13.7659 -13.7425   1.7793   2.8748   4.8934   6.6191
     7.3201

          k =-0.1111-0.1111 0.2222 (  1000 PWs)   bands (ev):

   -30.1384 -13.7637 -13.7422 -13.7407  -0.0088   5.2850   5.4390   6.3447
     6.5650

          k =-0.1111-0.2222 0.3333 (  1014 PWs)   bands (ev):

   -30.1368 -13.7902 -13.7547 -13.7425   0.5863   4.4363   5.0305   6.5826
     6.7415

          k =-0.1111-0.3333 0.4444 (  1012 PWs)   bands (ev):

   -30.1353 -13.8072 -13.7646 -13.7420   1.4129   3.4504   4.7629   6.5045
     7.1566

          k =-0.1111 0.5556-0.4444 (  1016 PWs)   bands (ev):

   -30.1348 -13.8146 -13.7695 -13.7440   2.2712   2.5434   4.6687   6.3711
     7.4024

          k =-0.2222-0.2222 0.4444 (  1011 PWs)   bands (ev):

   -30.1354 -13.8011 -13.7627 -13.7472   1.2869   3.9248   4.4238   6.6405
     6.6921

          k =-0.2222 0.6667-0.4444 (  1016 PWs)   bands (ev):

   -30.1346 -13.8052 -13.7762 -13.7499   2.1781   3.1423   4.0693   6.3183
     6.9903

          k =-0.3333 0.6667-0.3333 (  1015 PWs)   bands (ev):

   -30.1343 -13.7924 -13.7924 -13.7513   2.9829   2.9829   3.3093   6.2671
     7.0892

          k = 0.0000 0.0000 0.2222 (  1000 PWs)   bands (ev):

   -30.1389 -13.7514 -13.7429 -13.7429  -0.1629   5.7098   5.7098   6.1344
     6.1801

          k = 0.0000-0.1111 0.3333 (  1005 PWs)   bands (ev):

   -30.1374 -13.7727 -13.7526 -13.7439   0.2936   4.9824   5.4114   5.9829
     6.5073

          k = 0.0000-0.2222 0.4444 (  1017 PWs)   bands (ev):

   -30.1357 -13.7999 -13.7630 -13.7465   1.0102   3.9858   5.1120   6.0281
     7.0810

          k = 0.0000-0.3333 0.5556 (  1016 PWs)   bands (ev):

   -30.1346 -13.8131 -13.7683 -13.7482   1.9160   2.9655   4.9429   5.9268
     7.2244

          k =-0.1111-0.1111 0.4444 (  1022 PWs)   bands (ev):

   -30.1358 -13.7928 -13.7636 -13.7531   0.8731   4.4119   4.9955   5.9256
     6.8149

          k =-0.1111-0.2222 0.5556 (  1011 PWs)   bands (ev):

   -30.1345 -13.8035 -13.7718 -13.7521   1.6793   3.5946   4.6136   5.9913
     6.8370

          k =-0.1111 0.6667-0.3333 (  1009 PWs)   bands (ev):

   -30.1339 -13.8084 -13.7762 -13.7515   2.5829   2.6784   4.4779   5.9203
     7.0231

          k =-0.2222 0.2222 0.2222 (  1007 PWs)   bands (ev):

   -30.1372 -13.7859 -13.7443 -13.7443   0.4415   4.8089   4.8089   6.5700
     6.9978

          k =-0.2222 0.7778-0.3333 (  1005 PWs)   bands (ev):

   -30.1337 -13.7993 -13.7861 -13.7523   2.5244   3.2747   3.7879   6.3939
     6.6201

          k =-0.3333 0.3333 0.2222 (  1011 PWs)   bands (ev):

   -30.1358 -13.8002 -13.7570 -13.7472   1.1519   3.9886   4.4743   6.4872
     7.1235

          k = 0.5556-0.5556 0.2222 (  1017 PWs)   bands (ev):

   -30.1349 -13.8074 -13.7716 -13.7477   2.0523   3.0544   4.3055   6.1231
     7.3255

          k = 0.5556-0.6667 0.3333 (  1018 PWs)   bands (ev):

   -30.1350 -13.8041 -13.7680 -13.7543   1.9413   3.6004   3.9083   5.8366
     7.2532

          k = 0.4444-0.5556 0.3333 (  1013 PWs)   bands (ev):

   -30.1347 -13.7959 -13.7779 -13.7553   2.8374   2.8597   3.7174   5.5324
     7.3545

          k = 0.0000 0.0000 0.4444 (  1020 PWs)   bands (ev):

   -30.1360 -13.7806 -13.7621 -13.7621   0.7325   4.8991   5.3199   5.3199
     6.6922

          k = 0.0000-0.1111 0.5556 (  1001 PWs)   bands (ev):

   -30.1344 -13.7911 -13.7689 -13.7605   1.4198   4.1210   5.1693   5.3270
     6.6113

          k = 0.0000-0.2222 0.6667 (  1005 PWs)   bands (ev):

   -30.1334 -13.8060 -13.7765 -13.7588   2.2865   3.2268   5.0607   5.1399
     6.6532

          k =-0.1111-0.1111 0.6667 (  1010 PWs)   bands (ev):

   -30.1332 -13.7991 -13.7835 -13.7659   2.1680   3.6830   4.5564   5.6181
     6.2399

          k =-0.1111 0.7778-0.2222 (  1015 PWs)   bands (ev):

   -30.1327 -13.8052 -13.7888 -13.7654   2.9390   3.0800   4.2181   5.7252
     6.3355

          k = 0.5556-0.5556 0.4444 (  1004 PWs)   bands (ev):

   -30.1347 -13.7880 -13.7675 -13.7675   2.7443   3.4428   3.4429   4.9859
     7.5021

          k = 0.0000 0.0000 0.6667 (  1012 PWs)   bands (ev):

   -30.1330 -13.7883 -13.7821 -13.7821   2.0444   3.9658   5.1921   5.1921
     5.7830

          k = 0.0000-0.1111 0.7778 (  1014 PWs)   bands (ev):

   -30.1320 -13.8007 -13.7878 -13.7807   2.7815   3.4996   4.8513   5.1870
     5.8713

          k =-0.1111 0.8889-0.1111 (  1021 PWs)   bands (ev):

   -30.1316 -13.8000 -13.8000 -13.7814   3.2787   3.2787   4.5355   5.6138
     5.6138

          k = 0.0000 0.0000 0.8889 (  1016 PWs)   bands (ev):

   -30.1311 -13.7952 -13.7952 -13.7950   3.2391   3.4811   5.2315   5.2633
     5.2633

     the Fermi energy is     1.7519 ev

!    total energy              =    -109.85483895 Ry
     Harris-Foulkes estimate   =    -109.85483895 Ry
     estimated scf accuracy    <          1.2E-09 Ry

     total all-electron energy =     -1201.179839 Ry

     The total energy is the sum of the following terms:

     one-electron contribution =     -35.36095948 Ry
     hartree contribution      =      18.81337423 Ry
     xc contribution           =     -11.01213848 Ry
     ewald contribution        =     -29.89633975 Ry
     one-center paw contrib.   =     -52.39833364 Ry
     smearing contrib. (-TS)   =      -0.00044182 Ry

     convergence has been achieved in   5 iterations

     Forces acting on atoms (cartesian axes, Ry/au):

     atom    1 type  1   force =     0.00000000    0.00000000    0.00000000

     Total force =     0.000000     Total SCF correction =     0.000000


     Computing stress (Cartesian axis) and pressure

          total   stress  (Ry/bohr**3)                   (kbar)     P=  -35.07
  -0.00023841  -0.00000000   0.00000000        -35.07     -0.00      0.00
  -0.00000000  -0.00023841  -0.00000000         -0.00    -35.07     -0.00
   0.00000000  -0.00000000  -0.00023841          0.00     -0.00    -35.07


     Writing output data file K.save/

     init_run     :      0.26s CPU      0.27s WALL (       1 calls)
     electrons    :      2.50s CPU      2.62s WALL (       1 calls)
     forces       :      0.05s CPU      0.05s WALL (       1 calls)
     stress       :      0.15s CPU      0.16s WALL (       1 calls)

     Called by init_run:
     wfcinit      :      0.09s CPU      0.10s WALL (       1 calls)
     potinit      :      0.04s CPU      0.04s WALL (       1 calls)
     hinit0       :      0.11s CPU      0.11s WALL (       1 calls)

     Called by electrons:
     c_bands      :      1.93s CPU      2.02s WALL (       6 calls)
     sum_band     :      0.34s CPU      0.35s WALL (       6 calls)
     v_of_rho     :      0.00s CPU      0.00s WALL (       6 calls)
     newd         :      0.05s CPU      0.05s WALL (       6 calls)
     PAW_pot      :      0.23s CPU      0.23s WALL (       6 calls)
     mix_rho      :      0.00s CPU      0.00s WALL (       6 calls)

     Called by c_bands:
     init_us_2    :      0.07s CPU      0.07s WALL (     525 calls)
     cegterg      :      1.84s CPU      1.93s WALL (     210 calls)

     Called by sum_band:
     sum_band:bec :      0.00s CPU      0.00s WALL (     210 calls)
     addusdens    :      0.04s CPU      0.05s WALL (       6 calls)

     Called by *egterg:
     h_psi        :      1.39s CPU      1.46s WALL (    1022 calls)
     s_psi        :      0.05s CPU      0.05s WALL (    1022 calls)
     g_psi        :      0.01s CPU      0.01s WALL (     777 calls)
     cdiaghg      :      0.21s CPU      0.22s WALL (     952 calls)

     Called by h_psi:
     h_psi:pot    :      1.38s CPU      1.45s WALL (    1022 calls)
     h_psi:calbec :      0.07s CPU      0.07s WALL (    1022 calls)
     vloc_psi     :      1.25s CPU      1.32s WALL (    1022 calls)
     add_vuspsi   :      0.05s CPU      0.05s WALL (    1022 calls)

     General routines
     calbec       :      0.13s CPU      0.13s WALL (    1407 calls)
     fft          :      0.01s CPU      0.01s WALL (      34 calls)
     ffts         :      0.00s CPU      0.00s WALL (       6 calls)
     fftw         :      1.38s CPU      1.45s WALL (   13392 calls)

     Parallel routines
     fft_scatt_xy :      0.12s CPU      0.12s WALL (   13432 calls)
     fft_scatt_yz :      0.36s CPU      0.37s WALL (   13432 calls)

     PWSCF        :     3.73s CPU         3.93s WALL


   This run was terminated on:   0:18:49   8Apr2024            

=------------------------------------------------------------------------------=
   JOB DONE.
=------------------------------------------------------------------------------=
