
     Program PWSCF v.6.3MaX starts on  8Apr2024 at  0:26:46 

     This program is part of the open-source Quantum ESPRESSO suite
     for quantum simulation of materials; please cite
         "P. Giannozzi et al., J. Phys.:Condens. Matter 21 395502 (2009);
         "P. Giannozzi et al., J. Phys.:Condens. Matter 29 465901 (2017);
          URL http://www.quantum-espresso.org", 
     in publications or presentations arising from this work. More details at
     http://www.quantum-espresso.org/quote

     Parallel version (MPI), running on     5 processors

     MPI processes distributed on     1 nodes
     R & G space division:  proc/nbgrp/npool/nimage =       5
     Waiting for input...
     Reading input from standard input

     Current dimensions of program PWSCF are:
     Max number of different atomic species (ntypx) = 10
     Max number of k-points (npk) =  40000
     Max angular momentum in pseudopotentials (lmaxx) =  3
               file K.pbe-spn-rrkjus_psl.1.0.0.UPF: wavefunction(s)  3S renormalized

     Subspace diagonalization in iterative solution of the eigenvalue problem:
     a serial algorithm will be used


     Parallelization info
     --------------------
     sticks:   dense  smooth     PW     G-vecs:    dense   smooth      PW
     Min         175     175     53                 3283     3283     546
     Max         175     175     53                 3283     3283     547
     Sum         875     875    265                16415    16415    2731



     bravais-lattice index     =            3
     lattice parameter (alat)  =       9.8600  a.u.
     unit-cell volume          =     479.2926 (a.u.)^3
     number of atoms/cell      =            1
     number of atomic types    =            1
     number of electrons       =         9.00
     number of Kohn-Sham states=            9
     kinetic-energy cutoff     =      40.0000  Ry
     charge density cutoff     =     160.0000  Ry
     convergence threshold     =      1.0E-08
     mixing beta               =       0.7000
     number of iterations used =            8  plain     mixing
     Exchange-correlation      = PBE ( 1  4  3  4 0 0)

     celldm(1)=   9.860000  celldm(2)=   0.000000  celldm(3)=   0.000000
     celldm(4)=   0.000000  celldm(5)=   0.000000  celldm(6)=   0.000000

     crystal axes: (cart. coord. in units of alat)
               a(1) = (   0.500000   0.500000   0.500000 )  
               a(2) = (  -0.500000   0.500000   0.500000 )  
               a(3) = (  -0.500000  -0.500000   0.500000 )  

     reciprocal axes: (cart. coord. in units 2 pi/alat)
               b(1) = (  1.000000  0.000000  1.000000 )  
               b(2) = ( -1.000000  1.000000  0.000000 )  
               b(3) = (  0.000000 -1.000000  1.000000 )  


     PseudoPot. # 1 for K  read from file:
     /home/lorenzo/pseudos/K/K.pbe-spn-rrkjus_psl.1.0.0.UPF
     MD5 check sum: 897b700350bb708b0563e904352feb48
     Pseudo is Ultrasoft + core correction, Zval =  9.0
     Generated using "atomic" code by A. Dal Corso v.6.2.2
     Using radial grid of 1165 points,  6 beta functions with: 
                l(1) =   0
                l(2) =   0
                l(3) =   1
                l(4) =   1
                l(5) =   2
                l(6) =   2
     Q(r) pseudized with 0 coefficients 


     atomic species   valence    mass     pseudopotential
        K              9.00    39.09830     K ( 1.00)

     48 Sym. Ops., with inversion, found



   Cartesian axes

     site n.     atom                  positions (alat units)
         1           K   tau(   1) = (   0.0000000   0.0000000   0.0000000  )

     number of k points=    10  gaussian smearing, width (Ry)=  0.0100
                       cart. coord. in units 2pi/alat
        k(    1) = (   0.0000000   0.0000000   0.0000000), wk =   0.0160000
        k(    2) = (   0.0000000  -0.2000000   0.2000000), wk =   0.1920000
        k(    3) = (   0.0000000  -0.4000000   0.4000000), wk =   0.1920000
        k(    4) = (  -0.2000000  -0.2000000   0.4000000), wk =   0.3840000
        k(    5) = (  -0.2000000   0.6000000  -0.4000000), wk =   0.3840000
        k(    6) = (   0.0000000   0.0000000   0.4000000), wk =   0.0960000
        k(    7) = (   0.0000000  -0.2000000   0.6000000), wk =   0.3840000
        k(    8) = (  -0.2000000   0.8000000  -0.2000000), wk =   0.1280000
        k(    9) = (   0.6000000  -0.6000000   0.4000000), wk =   0.1280000
        k(   10) = (   0.0000000   0.0000000   0.8000000), wk =   0.0960000

     Dense  grid:    16415 G-vectors     FFT dimensions: (  36,  36,  36)

     Estimated max dynamical RAM per process >      14.47 MB

     Estimated total dynamical RAM >      72.34 MB

     Check: negative/imaginary core charge=   -0.000011    0.000000

     Initial potential from superposition of free atoms

     starting charge    8.98117, renormalised to    9.00000
     Starting wfcs are    8 randomized atomic wfcs +    1 random wfcs

     total cpu time spent up to now is        0.9 secs

     Self-consistent Calculation

     iteration #  1     ecut=    40.00 Ry     beta= 0.70
     Davidson diagonalization with overlap
     ethr =  1.00E-02,  avg # of iterations =  7.4

     Threshold (ethr) on eigenvalues was too large:
     Diagonalizing with lowered threshold

     Davidson diagonalization with overlap
     ethr =  1.41E-05,  avg # of iterations =  6.7

     total cpu time spent up to now is        1.6 secs

     total energy              =     -58.77253099 Ry
     Harris-Foulkes estimate   =     -58.77304247 Ry
     estimated scf accuracy    <       0.00127442 Ry

     iteration #  2     ecut=    40.00 Ry     beta= 0.70
     Davidson diagonalization with overlap
     ethr =  1.42E-05,  avg # of iterations =  2.2

     total cpu time spent up to now is        1.8 secs

     total energy              =     -58.77275955 Ry
     Harris-Foulkes estimate   =     -58.77276220 Ry
     estimated scf accuracy    <       0.00009875 Ry

     iteration #  3     ecut=    40.00 Ry     beta= 0.70
     Davidson diagonalization with overlap
     ethr =  1.10E-06,  avg # of iterations =  2.7

     total cpu time spent up to now is        2.0 secs

     total energy              =     -58.77276914 Ry
     Harris-Foulkes estimate   =     -58.77276669 Ry
     estimated scf accuracy    <       0.00000671 Ry

     iteration #  4     ecut=    40.00 Ry     beta= 0.70
     Davidson diagonalization with overlap
     ethr =  7.46E-08,  avg # of iterations =  1.8

     total cpu time spent up to now is        2.2 secs

     total energy              =     -58.77276972 Ry
     Harris-Foulkes estimate   =     -58.77276972 Ry
     estimated scf accuracy    <       0.00000005 Ry

     iteration #  5     ecut=    40.00 Ry     beta= 0.70
     Davidson diagonalization with overlap
     ethr =  5.29E-10,  avg # of iterations =  2.1

     total cpu time spent up to now is        2.4 secs

     End of self-consistent calculation

          k = 0.0000 0.0000 0.0000 (  2093 PWs)   bands (ev):

   -30.1613 -13.6107 -13.6107 -13.6107  -0.2602   6.2646   6.2646   6.2646
     7.1823

          k = 0.0000-0.2000 0.2000 (  2056 PWs)   bands (ev):

   -30.1595 -13.6374 -13.6196 -13.6107   0.2422   5.3555   5.7618   6.6689
     6.9572

          k = 0.0000-0.4000 0.4000 (  2048 PWs)   bands (ev):

   -30.1567 -13.6799 -13.6339 -13.6106   1.6112   3.4851   5.2007   6.9633
     7.4161

          k =-0.2000-0.2000 0.4000 (  2045 PWs)   bands (ev):

   -30.1572 -13.6658 -13.6314 -13.6165   1.1832   4.3803   4.8752   6.8818
     7.0119

          k =-0.2000 0.6000-0.4000 (  2044 PWs)   bands (ev):

   -30.1558 -13.6776 -13.6462 -13.6181   2.7682   2.8292   4.4154   6.5726
     7.4667

          k = 0.0000 0.0000 0.4000 (  2038 PWs)   bands (ev):

   -30.1578 -13.6407 -13.6289 -13.6289   0.7239   5.3275   5.6361   5.6361
     6.8372

          k = 0.0000-0.2000 0.6000 (  2051 PWs)   bands (ev):

   -30.1554 -13.6735 -13.6439 -13.6303   2.0319   3.7414   5.3132   5.5825
     6.9970

          k =-0.2000 0.8000-0.2000 (  2034 PWs)   bands (ev):

   -30.1541 -13.6668 -13.6668 -13.6349   3.2778   3.2778   4.0867   6.4249
     6.4249

          k = 0.6000-0.6000 0.4000 (  2064 PWs)   bands (ev):

   -30.1563 -13.6676 -13.6355 -13.6355   2.4394   3.8430   3.8430   5.7291
     7.6996

          k = 0.0000 0.0000 0.8000 (  2014 PWs)   bands (ev):

   -30.1530 -13.6646 -13.6601 -13.6601   3.0329   3.8002   5.4580   5.4580
     5.5703

     the Fermi energy is     1.9848 ev

!    total energy              =     -58.77276973 Ry
     Harris-Foulkes estimate   =     -58.77276973 Ry
     estimated scf accuracy    <          1.0E-09 Ry

     The total energy is the sum of the following terms:

     one-electron contribution =     -36.58458535 Ry
     hartree contribution      =      18.87955669 Ry
     xc contribution           =     -11.17043968 Ry
     ewald contribution        =     -29.89633978 Ry
     smearing contrib. (-TS)   =      -0.00096160 Ry

     convergence has been achieved in   5 iterations

     Forces acting on atoms (cartesian axes, Ry/au):

     atom    1 type  1   force =     0.00000000    0.00000000    0.00000000

     Total force =     0.000000     Total SCF correction =     0.000000


     Computing stress (Cartesian axis) and pressure

          total   stress  (Ry/bohr**3)                   (kbar)     P=    0.52
   0.00000353   0.00000000  -0.00000000          0.52      0.00     -0.00
   0.00000000   0.00000353   0.00000000          0.00      0.52      0.00
  -0.00000000   0.00000000   0.00000353         -0.00      0.00      0.52


     Writing output data file K.save/

     init_run     :      0.23s CPU      0.24s WALL (       1 calls)
     electrons    :      1.38s CPU      1.47s WALL (       1 calls)
     forces       :      0.07s CPU      0.07s WALL (       1 calls)
     stress       :      0.19s CPU      0.19s WALL (       1 calls)

     Called by init_run:
     wfcinit      :      0.04s CPU      0.05s WALL (       1 calls)
     potinit      :      0.01s CPU      0.02s WALL (       1 calls)
     hinit0       :      0.14s CPU      0.14s WALL (       1 calls)

     Called by electrons:
     c_bands      :      0.98s CPU      1.04s WALL (       6 calls)
     sum_band     :      0.27s CPU      0.28s WALL (       6 calls)
     v_of_rho     :      0.06s CPU      0.06s WALL (       6 calls)
     newd         :      0.10s CPU      0.11s WALL (       6 calls)
     mix_rho      :      0.00s CPU      0.00s WALL (       6 calls)

     Called by c_bands:
     init_us_2    :      0.04s CPU      0.04s WALL (     150 calls)
     cegterg      :      0.93s CPU      1.00s WALL (      60 calls)

     Called by sum_band:
     sum_band:bec :      0.00s CPU      0.00s WALL (      60 calls)
     addusdens    :      0.10s CPU      0.10s WALL (       6 calls)

     Called by *egterg:
     h_psi        :      0.73s CPU      0.80s WALL (     299 calls)
     s_psi        :      0.03s CPU      0.03s WALL (     299 calls)
     g_psi        :      0.00s CPU      0.00s WALL (     229 calls)
     cdiaghg      :      0.06s CPU      0.07s WALL (     279 calls)

     Called by h_psi:
     h_psi:pot    :      0.73s CPU      0.79s WALL (     299 calls)
     h_psi:calbec :      0.04s CPU      0.04s WALL (     299 calls)
     vloc_psi     :      0.66s CPU      0.72s WALL (     299 calls)
     add_vuspsi   :      0.03s CPU      0.03s WALL (     299 calls)

     General routines
     calbec       :      0.07s CPU      0.08s WALL (     409 calls)
     fft          :      0.03s CPU      0.03s WALL (      93 calls)
     ffts         :      0.00s CPU      0.00s WALL (       6 calls)
     fftw         :      0.73s CPU      0.79s WALL (    3720 calls)

     Parallel routines
     fft_scatt_xy :      0.06s CPU      0.07s WALL (    3819 calls)
     fft_scatt_yz :      0.19s CPU      0.21s WALL (    3819 calls)

     PWSCF        :     2.59s CPU         2.73s WALL


   This run was terminated on:   0:26:49   8Apr2024            

=------------------------------------------------------------------------------=
   JOB DONE.
=------------------------------------------------------------------------------=
