
     Program PWSCF v.6.3MaX starts on  8Apr2024 at  1:15:14 

     This program is part of the open-source Quantum ESPRESSO suite
     for quantum simulation of materials; please cite
         "P. Giannozzi et al., J. Phys.:Condens. Matter 21 395502 (2009);
         "P. Giannozzi et al., J. Phys.:Condens. Matter 29 465901 (2017);
          URL http://www.quantum-espresso.org", 
     in publications or presentations arising from this work. More details at
     http://www.quantum-espresso.org/quote

     Parallel version (MPI), running on     5 processors

     MPI processes distributed on     1 nodes
     R & G space division:  proc/nbgrp/npool/nimage =       5
     Waiting for input...
     Reading input from standard input

     Current dimensions of program PWSCF are:
     Max number of different atomic species (ntypx) = 10
     Max number of k-points (npk) =  40000
     Max angular momentum in pseudopotentials (lmaxx) =  3
               file K.pz-spn-kjpaw_psl.1.0.0.UPF: wavefunction(s)  3S renormalized

     Subspace diagonalization in iterative solution of the eigenvalue problem:
     a serial algorithm will be used


     Parallelization info
     --------------------
     sticks:   dense  smooth     PW     G-vecs:    dense   smooth      PW
     Min         369     369    107                10119    10119    1560
     Max         370     370    107                10120    10120    1561
     Sum        1849    1849    535                50597    50597    7803



     bravais-lattice index     =            3
     lattice parameter (alat)  =       9.8600  a.u.
     unit-cell volume          =     479.2926 (a.u.)^3
     number of atoms/cell      =            1
     number of atomic types    =            1
     number of electrons       =         9.00
     number of Kohn-Sham states=            9
     kinetic-energy cutoff     =      85.0000  Ry
     charge density cutoff     =     340.0000  Ry
     convergence threshold     =      1.0E-08
     mixing beta               =       0.7000
     number of iterations used =            8  plain     mixing
     Exchange-correlation      = SLA PZ NOGX NOGC ( 1  1  0  0 0 0)

     celldm(1)=   9.860000  celldm(2)=   0.000000  celldm(3)=   0.000000
     celldm(4)=   0.000000  celldm(5)=   0.000000  celldm(6)=   0.000000

     crystal axes: (cart. coord. in units of alat)
               a(1) = (   0.500000   0.500000   0.500000 )  
               a(2) = (  -0.500000   0.500000   0.500000 )  
               a(3) = (  -0.500000  -0.500000   0.500000 )  

     reciprocal axes: (cart. coord. in units 2 pi/alat)
               b(1) = (  1.000000  0.000000  1.000000 )  
               b(2) = ( -1.000000  1.000000  0.000000 )  
               b(3) = (  0.000000 -1.000000  1.000000 )  


     PseudoPot. # 1 for K  read from file:
     /home/lorenzo/pseudos/K/K.pz-spn-kjpaw_psl.1.0.0.UPF
     MD5 check sum: 59b94f4c1a6681f21e103574f2c5fc67
     Pseudo is Projector augmented-wave + core cor, Zval =  9.0
     Generated using "atomic" code by A. Dal Corso v.6.2.2
     Shape of augmentation charge: PSQ
     Using radial grid of 1165 points,  6 beta functions with: 
                l(1) =   0
                l(2) =   0
                l(3) =   1
                l(4) =   1
                l(5) =   2
                l(6) =   2
     Q(r) pseudized with 0 coefficients 


     atomic species   valence    mass     pseudopotential
        K              9.00    39.09830     K ( 1.00)

     48 Sym. Ops., with inversion, found



   Cartesian axes

     site n.     atom                  positions (alat units)
         1           K   tau(   1) = (   0.0000000   0.0000000   0.0000000  )

     number of k points=    47  gaussian smearing, width (Ry)=  0.0100
                       cart. coord. in units 2pi/alat
        k(    1) = (   0.0000000   0.0000000   0.0000000), wk =   0.0020000
        k(    2) = (   0.0000000  -0.1000000   0.1000000), wk =   0.0240000
        k(    3) = (   0.0000000  -0.2000000   0.2000000), wk =   0.0240000
        k(    4) = (   0.0000000  -0.3000000   0.3000000), wk =   0.0240000
        k(    5) = (   0.0000000  -0.4000000   0.4000000), wk =   0.0240000
        k(    6) = (   0.0000000   0.5000000  -0.5000000), wk =   0.0120000
        k(    7) = (  -0.1000000  -0.1000000   0.2000000), wk =   0.0480000
        k(    8) = (  -0.1000000  -0.2000000   0.3000000), wk =   0.0960000
        k(    9) = (  -0.1000000  -0.3000000   0.4000000), wk =   0.0960000
        k(   10) = (  -0.1000000   0.6000000  -0.5000000), wk =   0.0960000
        k(   11) = (  -0.2000000  -0.2000000   0.4000000), wk =   0.0480000
        k(   12) = (  -0.2000000   0.7000000  -0.5000000), wk =   0.0960000
        k(   13) = (  -0.2000000   0.6000000  -0.4000000), wk =   0.0480000
        k(   14) = (  -0.3000000   0.7000000  -0.4000000), wk =   0.0480000
        k(   15) = (   0.0000000   0.0000000   0.2000000), wk =   0.0120000
        k(   16) = (   0.0000000  -0.1000000   0.3000000), wk =   0.0480000
        k(   17) = (   0.0000000  -0.2000000   0.4000000), wk =   0.0480000
        k(   18) = (   0.0000000  -0.3000000   0.5000000), wk =   0.0480000
        k(   19) = (   0.0000000   0.6000000  -0.4000000), wk =   0.0240000
        k(   20) = (  -0.1000000  -0.1000000   0.4000000), wk =   0.0480000
        k(   21) = (  -0.1000000  -0.2000000   0.5000000), wk =   0.0960000
        k(   22) = (  -0.1000000   0.7000000  -0.4000000), wk =   0.0960000
        k(   23) = (  -0.2000000   0.2000000   0.2000000), wk =   0.0160000
        k(   24) = (  -0.2000000   0.8000000  -0.4000000), wk =   0.0480000
        k(   25) = (  -0.2000000   0.7000000  -0.3000000), wk =   0.0480000
        k(   26) = (  -0.3000000   0.3000000   0.2000000), wk =   0.0480000
        k(   27) = (   0.6000000  -0.6000000   0.2000000), wk =   0.0480000
        k(   28) = (   0.6000000  -0.7000000   0.3000000), wk =   0.0480000
        k(   29) = (   0.5000000  -0.5000000   0.2000000), wk =   0.0240000
        k(   30) = (   0.5000000  -0.6000000   0.3000000), wk =   0.0960000
        k(   31) = (   0.4000000  -0.6000000   0.4000000), wk =   0.0160000
        k(   32) = (   0.0000000   0.0000000   0.4000000), wk =   0.0120000
        k(   33) = (   0.0000000  -0.1000000   0.5000000), wk =   0.0480000
        k(   34) = (   0.0000000  -0.2000000   0.6000000), wk =   0.0480000
        k(   35) = (   0.0000000   0.7000000  -0.3000000), wk =   0.0240000
        k(   36) = (  -0.1000000  -0.1000000   0.6000000), wk =   0.0480000
        k(   37) = (  -0.1000000   0.8000000  -0.3000000), wk =   0.0960000
        k(   38) = (  -0.2000000   0.8000000  -0.2000000), wk =   0.0160000
        k(   39) = (   0.6000000  -0.6000000   0.4000000), wk =   0.0160000
        k(   40) = (   0.5000000  -0.5000000   0.4000000), wk =   0.0240000
        k(   41) = (   0.0000000   0.0000000   0.6000000), wk =   0.0120000
        k(   42) = (   0.0000000  -0.1000000   0.7000000), wk =   0.0480000
        k(   43) = (   0.0000000   0.8000000  -0.2000000), wk =   0.0240000
        k(   44) = (  -0.1000000   0.9000000  -0.2000000), wk =   0.0480000
        k(   45) = (   0.0000000   0.0000000   0.8000000), wk =   0.0120000
        k(   46) = (   0.0000000   0.9000000  -0.1000000), wk =   0.0240000
        k(   47) = (   0.0000000   0.0000000  -1.0000000), wk =   0.0020000

     Dense  grid:    50597 G-vectors     FFT dimensions: (  54,  54,  54)

     Estimated max dynamical RAM per process >      48.48 MB

     Estimated total dynamical RAM >     242.38 MB

     Check: negative/imaginary core charge=   -0.000001    0.000000

     Initial potential from superposition of free atoms

     starting charge    8.98437, renormalised to    9.00000
     Starting wfcs are    8 randomized atomic wfcs +    1 random wfcs
     Checking if some PAW data can be deallocated... 

     total cpu time spent up to now is        2.1 secs

     Self-consistent Calculation

     iteration #  1     ecut=    85.00 Ry     beta= 0.70
     Davidson diagonalization with overlap
     ethr =  1.00E-02,  avg # of iterations =  6.4

     Threshold (ethr) on eigenvalues was too large:
     Diagonalizing with lowered threshold

     Davidson diagonalization with overlap
     ethr =  1.22E-05,  avg # of iterations =  6.3

     total cpu time spent up to now is       13.2 secs

     total energy              =    -109.87166490 Ry
     Harris-Foulkes estimate   =    -109.87221997 Ry
     estimated scf accuracy    <       0.00110709 Ry

     iteration #  2     ecut=    85.00 Ry     beta= 0.70
     Davidson diagonalization with overlap
     ethr =  1.23E-05,  avg # of iterations =  2.1

     total cpu time spent up to now is       16.4 secs

     total energy              =    -109.87185144 Ry
     Harris-Foulkes estimate   =    -109.87187644 Ry
     estimated scf accuracy    <       0.00008965 Ry

     iteration #  3     ecut=    85.00 Ry     beta= 0.70
     Davidson diagonalization with overlap
     ethr =  9.96E-07,  avg # of iterations =  2.0

     total cpu time spent up to now is       19.5 secs

     total energy              =    -109.87186280 Ry
     Harris-Foulkes estimate   =    -109.87186253 Ry
     estimated scf accuracy    <       0.00000599 Ry

     iteration #  4     ecut=    85.00 Ry     beta= 0.70
     Davidson diagonalization with overlap
     ethr =  6.65E-08,  avg # of iterations =  1.5

     total cpu time spent up to now is       22.0 secs

     total energy              =    -109.87186350 Ry
     Harris-Foulkes estimate   =    -109.87186349 Ry
     estimated scf accuracy    <       0.00000004 Ry

     iteration #  5     ecut=    85.00 Ry     beta= 0.70
     Davidson diagonalization with overlap
     ethr =  4.49E-10,  avg # of iterations =  2.4

     total cpu time spent up to now is       24.9 secs

     End of self-consistent calculation

          k = 0.0000 0.0000 0.0000 (  6363 PWs)   bands (ev):

   -30.0993 -13.7373 -13.7373 -13.7373  -0.4768   5.9285   5.9285   5.9285
     6.8743

          k = 0.0000-0.1000 0.1000 (  6379 PWs)   bands (ev):

   -30.0988 -13.7450 -13.7399 -13.7373  -0.3483   5.7514   5.7793   6.0313
     6.6896

          k = 0.0000-0.2000 0.2000 (  6361 PWs)   bands (ev):

   -30.0975 -13.7652 -13.7466 -13.7373   0.0284   5.0915   5.4536   6.3349
     6.6424

          k = 0.0000-0.3000 0.3000 (  6374 PWs)   bands (ev):

   -30.0959 -13.7898 -13.7549 -13.7372   0.6265   4.2090   5.1315   6.7114
     6.8256

          k = 0.0000-0.4000 0.4000 (  6328 PWs)   bands (ev):

   -30.0946 -13.8095 -13.7615 -13.7372   1.3995   3.2796   4.9118   6.6279
     7.1255

          k = 0.0000 0.5000-0.5000 (  6300 PWs)   bands (ev):

   -30.0941 -13.8170 -13.7641 -13.7372   2.1430   2.4883   4.8349   6.5318
     7.8345

          k =-0.1000-0.1000 0.2000 (  6368 PWs)   bands (ev):

   -30.0979 -13.7590 -13.7427 -13.7392  -0.0956   5.3777   5.4865   6.2223
     6.5182

          k =-0.1000-0.2000 0.3000 (  6364 PWs)   bands (ev):

   -30.0965 -13.7800 -13.7507 -13.7399   0.3926   4.6513   5.1203   6.5165
     6.5766

          k =-0.1000-0.3000 0.4000 (  6355 PWs)   bands (ev):

   -30.0950 -13.8004 -13.7598 -13.7401   1.0815   3.7820   4.8447   6.5257
     7.0022

          k =-0.1000 0.6000-0.5000 (  6322 PWs)   bands (ev):

   -30.0941 -13.8128 -13.7655 -13.7401   1.9091   2.8736   4.6978   6.3843
     7.2691

          k =-0.2000-0.2000 0.4000 (  6344 PWs)   bands (ev):

   -30.0952 -13.7948 -13.7589 -13.7434   0.9737   4.1552   4.6157   6.5721
     6.6846

          k =-0.2000 0.7000-0.5000 (  6338 PWs)   bands (ev):

   -30.0941 -13.8042 -13.7695 -13.7447   1.7291   3.4563   4.2739   6.3934
     6.8471

          k =-0.2000 0.6000-0.4000 (  6318 PWs)   bands (ev):

   -30.0937 -13.8071 -13.7744 -13.7451   2.5300   2.6590   4.1682   6.2380
     7.1363

          k =-0.3000 0.7000-0.4000 (  6326 PWs)   bands (ev):

   -30.0936 -13.7992 -13.7836 -13.7470   2.5122   3.2011   3.5726   6.2705
     6.8910

          k = 0.0000 0.0000 0.2000 (  6375 PWs)   bands (ev):

   -30.0983 -13.7472 -13.7425 -13.7425  -0.2210   5.7045   5.7045   6.0770
     6.2100

          k = 0.0000-0.1000 0.3000 (  6355 PWs)   bands (ev):

   -30.0971 -13.7651 -13.7493 -13.7436   0.1518   5.1328   5.4411   6.0114
     6.3477

          k = 0.0000-0.2000 0.4000 (  6351 PWs)   bands (ev):

   -30.0955 -13.7887 -13.7577 -13.7432   0.7441   4.2598   5.1517   6.0675
     6.8239

          k = 0.0000-0.3000 0.5000 (  6334 PWs)   bands (ev):

   -30.0942 -13.8077 -13.7645 -13.7429   1.5107   3.3486   4.9487   6.0283
     7.1544

          k = 0.0000 0.6000-0.4000 (  6320 PWs)   bands (ev):

   -30.0937 -13.8149 -13.7670 -13.7428   2.2751   2.5415   4.8770   5.9560
     7.2140

          k =-0.1000-0.1000 0.4000 (  6346 PWs)   bands (ev):

   -30.0957 -13.7809 -13.7571 -13.7477   0.6298   4.6188   5.1006   5.9133
     6.6408

          k =-0.1000-0.2000 0.5000 (  6342 PWs)   bands (ev):

   -30.0943 -13.7982 -13.7665 -13.7483   1.3046   3.8755   4.7667   5.9840
     6.8474

          k =-0.1000 0.7000-0.4000 (  6330 PWs)   bands (ev):

   -30.0934 -13.8090 -13.7726 -13.7482   2.1211   3.0198   4.5832   5.9052
     6.9754

          k =-0.2000 0.2000 0.2000 (  6357 PWs)   bands (ev):

   -30.0968 -13.7770 -13.7432 -13.7432   0.2730   4.9523   4.9523   6.4652
     6.8674

          k =-0.2000 0.8000-0.4000 (  6337 PWs)   bands (ev):

   -30.0933 -13.8026 -13.7791 -13.7503   2.0327   3.5042   4.0980   6.2505
     6.5718

          k =-0.2000 0.7000-0.3000 (  6333 PWs)   bands (ev):

   -30.0929 -13.8021 -13.7864 -13.7506   2.8246   2.8722   3.8091   6.2946
     7.0451

          k =-0.3000 0.3000 0.2000 (  6347 PWs)   bands (ev):

   -30.0955 -13.7939 -13.7533 -13.7438   0.8606   4.2273   4.6223   6.5910
     6.9570

          k = 0.6000-0.6000 0.2000 (  6357 PWs)   bands (ev):

   -30.0944 -13.8052 -13.7638 -13.7443   1.6233   3.4014   4.4184   6.3385
     7.1793

          k = 0.6000-0.7000 0.3000 (  6356 PWs)   bands (ev):

   -30.0946 -13.8008 -13.7613 -13.7494   1.5249   3.8253   4.1193   6.1672
     7.0820

          k = 0.5000-0.5000 0.2000 (  6336 PWs)   bands (ev):

   -30.0940 -13.8090 -13.7683 -13.7445   2.4040   2.6037   4.3496   6.1640
     7.3149

          k = 0.5000-0.6000 0.3000 (  6343 PWs)   bands (ev):

   -30.0940 -13.8002 -13.7726 -13.7512   2.3273   3.1583   3.8896   5.7478
     7.2114

          k = 0.4000-0.6000 0.4000 (  6329 PWs)   bands (ev):

   -30.0938 -13.7872 -13.7872 -13.7537   3.0197   3.0197   3.3245   5.4967
     7.3001

          k = 0.0000 0.0000 0.4000 (  6347 PWs)   bands (ev):

   -30.0959 -13.7686 -13.7563 -13.7563   0.5132   5.1007   5.3493   5.3493
     7.2690

          k = 0.0000-0.1000 0.5000 (  6352 PWs)   bands (ev):

   -30.0944 -13.7862 -13.7650 -13.7586   1.0865   4.3510   5.1831   5.4057
     6.8379

          k = 0.0000-0.2000 0.6000 (  6343 PWs)   bands (ev):

   -30.0932 -13.8029 -13.7721 -13.7577   1.8275   3.5338   5.0416   5.3160
     6.6791

          k = 0.0000 0.7000-0.3000 (  6336 PWs)   bands (ev):

   -30.0927 -13.8093 -13.7747 -13.7573   2.6446   2.6998   4.9883   5.2072
     6.7839

          k =-0.1000-0.1000 0.6000 (  6348 PWs)   bands (ev):

   -30.0931 -13.7960 -13.7755 -13.7623   1.7270   3.9025   4.7464   5.5648
     6.3802

          k =-0.1000 0.8000-0.3000 (  6328 PWs)   bands (ev):

   -30.0923 -13.8031 -13.7831 -13.7622   2.4915   3.2793   4.3705   5.6544
     6.4213

          k =-0.2000 0.8000-0.2000 (  6323 PWs)   bands (ev):

   -30.0920 -13.7959 -13.7959 -13.7626   3.0925   3.0925   3.8044   6.1456
     6.1456

          k = 0.6000-0.6000 0.4000 (  6344 PWs)   bands (ev):

   -30.0941 -13.7967 -13.7632 -13.7632   2.2372   3.6307   3.6307   5.3852
     7.3521

          k = 0.5000-0.5000 0.4000 (  6340 PWs)   bands (ev):

   -30.0939 -13.7886 -13.7750 -13.7639   2.9598   3.0460   3.5666   5.0229
     7.3827

          k = 0.0000 0.0000 0.6000 (  6338 PWs)   bands (ev):

   -30.0930 -13.7862 -13.7741 -13.7741   1.6228   4.1790   5.1784   5.1784
     6.1236

          k = 0.0000-0.1000 0.7000 (  6338 PWs)   bands (ev):

   -30.0919 -13.7970 -13.7814 -13.7758   2.2995   3.6935   4.9831   5.1453
     5.9576

          k = 0.0000 0.8000-0.2000 (  6338 PWs)   bands (ev):

   -30.0915 -13.8025 -13.7842 -13.7751   2.9519   3.1240   4.7695   5.1274
     6.1579

          k =-0.1000 0.9000-0.2000 (  6349 PWs)   bands (ev):

   -30.0912 -13.7982 -13.7909 -13.7778   2.9232   3.4149   4.4763   5.5157
     5.8260

          k = 0.0000 0.0000 0.8000 (  6342 PWs)   bands (ev):

   -30.0909 -13.7936 -13.7890 -13.7890   2.8394   3.5979   5.2167   5.2167
     5.2871

          k = 0.0000 0.9000-0.1000 (  6344 PWs)   bands (ev):

   -30.0905 -13.7969 -13.7919 -13.7894   3.2444   3.3828   4.9305   5.2404
     5.5566

          k = 0.0000 0.0000-1.0000 (  6434 PWs)   bands (ev):

   -30.0901 -13.7948 -13.7948 -13.7948   3.4008   5.2834   5.2834   5.2834
     7.2555

     the Fermi energy is     1.7382 ev

!    total energy              =    -109.87186351 Ry
     Harris-Foulkes estimate   =    -109.87186352 Ry
     estimated scf accuracy    <          3.8E-09 Ry

     total all-electron energy =     -1201.196863 Ry

     The total energy is the sum of the following terms:

     one-electron contribution =     -35.36985258 Ry
     hartree contribution      =      18.82555867 Ry
     xc contribution           =     -11.01682279 Ry
     ewald contribution        =     -29.89633970 Ry
     one-center paw contrib.   =     -52.41375494 Ry
     smearing contrib. (-TS)   =      -0.00065219 Ry

     convergence has been achieved in   5 iterations

     Forces acting on atoms (cartesian axes, Ry/au):

     atom    1 type  1   force =     0.00000000    0.00000000    0.00000000

     Total force =     0.000000     Total SCF correction =     0.000000


     Computing stress (Cartesian axis) and pressure

          total   stress  (Ry/bohr**3)                   (kbar)     P=   -3.92
  -0.00002661   0.00000000   0.00000000         -3.92      0.00      0.00
   0.00000000  -0.00002661   0.00000000          0.00     -3.92      0.00
   0.00000000   0.00000000  -0.00002661          0.00      0.00     -3.92


     Writing output data file K.save/

     init_run     :      1.30s CPU      1.35s WALL (       1 calls)
     electrons    :     22.22s CPU     22.86s WALL (       1 calls)
     forces       :      0.25s CPU      0.26s WALL (       1 calls)
     stress       :      1.04s CPU      1.04s WALL (       1 calls)

     Called by init_run:
     wfcinit      :      0.87s CPU      0.91s WALL (       1 calls)
     potinit      :      0.06s CPU      0.06s WALL (       1 calls)
     hinit0       :      0.25s CPU      0.25s WALL (       1 calls)

     Called by electrons:
     c_bands      :     18.68s CPU     19.22s WALL (       6 calls)
     sum_band     :      3.04s CPU      3.13s WALL (       6 calls)
     v_of_rho     :      0.03s CPU      0.03s WALL (       6 calls)
     newd         :      0.29s CPU      0.30s WALL (       6 calls)
     PAW_pot      :      0.24s CPU      0.24s WALL (       6 calls)
     mix_rho      :      0.01s CPU      0.01s WALL (       6 calls)

     Called by c_bands:
     init_us_2    :      0.56s CPU      0.56s WALL (     705 calls)
     cegterg      :     17.96s CPU     18.49s WALL (     282 calls)

     Called by sum_band:
     sum_band:bec :      0.00s CPU      0.00s WALL (     282 calls)
     addusdens    :      0.28s CPU      0.29s WALL (       6 calls)

     Called by *egterg:
     h_psi        :     15.32s CPU     15.85s WALL (    1304 calls)
     s_psi        :      0.38s CPU      0.38s WALL (    1304 calls)
     g_psi        :      0.04s CPU      0.04s WALL (     975 calls)
     cdiaghg      :      0.37s CPU      0.37s WALL (    1210 calls)

     Called by h_psi:
     h_psi:pot    :     15.24s CPU     15.78s WALL (    1304 calls)
     h_psi:calbec :      0.83s CPU      0.85s WALL (    1304 calls)
     vloc_psi     :     13.98s CPU     14.49s WALL (    1304 calls)
     add_vuspsi   :      0.42s CPU      0.43s WALL (    1304 calls)

     General routines
     calbec       :      1.24s CPU      1.27s WALL (    1821 calls)
     fft          :      0.06s CPU      0.06s WALL (      34 calls)
     ffts         :      0.01s CPU      0.01s WALL (       6 calls)
     fftw         :     14.92s CPU     15.46s WALL (   17730 calls)

     Parallel routines
     fft_scatt_xy :      1.12s CPU      1.16s WALL (   17770 calls)
     fft_scatt_yz :      4.64s CPU      4.82s WALL (   17770 calls)

     PWSCF        :    25.62s CPU        26.48s WALL


   This run was terminated on:   1:15:40   8Apr2024            

=------------------------------------------------------------------------------=
   JOB DONE.
=------------------------------------------------------------------------------=
