
     Program PWSCF v.6.3MaX starts on  8Apr2024 at  0:45:25 

     This program is part of the open-source Quantum ESPRESSO suite
     for quantum simulation of materials; please cite
         "P. Giannozzi et al., J. Phys.:Condens. Matter 21 395502 (2009);
         "P. Giannozzi et al., J. Phys.:Condens. Matter 29 465901 (2017);
          URL http://www.quantum-espresso.org", 
     in publications or presentations arising from this work. More details at
     http://www.quantum-espresso.org/quote

     Parallel version (MPI), running on     5 processors

     MPI processes distributed on     1 nodes
     R & G space division:  proc/nbgrp/npool/nimage =       5
     Waiting for input...
     Reading input from standard input

     Current dimensions of program PWSCF are:
     Max number of different atomic species (ntypx) = 10
     Max number of k-points (npk) =  40000
     Max angular momentum in pseudopotentials (lmaxx) =  3
               file K.pbe-spn-kjpaw_psl.1.0.0.UPF: wavefunction(s)  3S renormalized

     Subspace diagonalization in iterative solution of the eigenvalue problem:
     a serial algorithm will be used


     Parallelization info
     --------------------
     sticks:   dense  smooth     PW     G-vecs:    dense   smooth      PW
     Min         263     263     77                 6018     6018     950
     Max         263     263     78                 6019     6019     951
     Sum        1315    1315    387                30093    30093    4753



     bravais-lattice index     =            3
     lattice parameter (alat)  =       9.8600  a.u.
     unit-cell volume          =     479.2926 (a.u.)^3
     number of atoms/cell      =            1
     number of atomic types    =            1
     number of electrons       =         9.00
     number of Kohn-Sham states=            9
     kinetic-energy cutoff     =      60.0000  Ry
     charge density cutoff     =     240.0000  Ry
     convergence threshold     =      1.0E-08
     mixing beta               =       0.7000
     number of iterations used =            8  plain     mixing
     Exchange-correlation      = SLA PW PBX PBC ( 1  4  3  4 0 0)

     celldm(1)=   9.860000  celldm(2)=   0.000000  celldm(3)=   0.000000
     celldm(4)=   0.000000  celldm(5)=   0.000000  celldm(6)=   0.000000

     crystal axes: (cart. coord. in units of alat)
               a(1) = (   0.500000   0.500000   0.500000 )  
               a(2) = (  -0.500000   0.500000   0.500000 )  
               a(3) = (  -0.500000  -0.500000   0.500000 )  

     reciprocal axes: (cart. coord. in units 2 pi/alat)
               b(1) = (  1.000000  0.000000  1.000000 )  
               b(2) = ( -1.000000  1.000000  0.000000 )  
               b(3) = (  0.000000 -1.000000  1.000000 )  


     PseudoPot. # 1 for K  read from file:
     /home/lorenzo/pseudos/K/K.pbe-spn-kjpaw_psl.1.0.0.UPF
     MD5 check sum: 34cc42130a09071ebe376fd42eb21491
     Pseudo is Projector augmented-wave + core cor, Zval =  9.0
     Generated using "atomic" code by A. Dal Corso v.6.2.2
     Shape of augmentation charge: PSQ
     Using radial grid of 1165 points,  6 beta functions with: 
                l(1) =   0
                l(2) =   0
                l(3) =   1
                l(4) =   1
                l(5) =   2
                l(6) =   2
     Q(r) pseudized with 0 coefficients 


     atomic species   valence    mass     pseudopotential
        K              9.00    39.09830     K ( 1.00)

     48 Sym. Ops., with inversion, found



   Cartesian axes

     site n.     atom                  positions (alat units)
         1           K   tau(   1) = (   0.0000000   0.0000000   0.0000000  )

     number of k points=    16  gaussian smearing, width (Ry)=  0.0100
                       cart. coord. in units 2pi/alat
        k(    1) = (   0.0000000   0.0000000   0.0000000), wk =   0.0092593
        k(    2) = (   0.0000000  -0.1666667   0.1666667), wk =   0.1111111
        k(    3) = (   0.0000000  -0.3333333   0.3333333), wk =   0.1111111
        k(    4) = (   0.0000000   0.5000000  -0.5000000), wk =   0.0555556
        k(    5) = (  -0.1666667  -0.1666667   0.3333333), wk =   0.2222222
        k(    6) = (  -0.1666667   0.6666667  -0.5000000), wk =   0.4444444
        k(    7) = (  -0.3333333   0.6666667  -0.3333333), wk =   0.0740741
        k(    8) = (   0.0000000   0.0000000   0.3333333), wk =   0.0555556
        k(    9) = (   0.0000000  -0.1666667   0.5000000), wk =   0.2222222
        k(   10) = (   0.0000000   0.6666667  -0.3333333), wk =   0.1111111
        k(   11) = (  -0.1666667   0.8333333  -0.3333333), wk =   0.2222222
        k(   12) = (   0.6666667  -0.6666667   0.3333333), wk =   0.0740741
        k(   13) = (   0.5000000  -0.5000000   0.3333333), wk =   0.1111111
        k(   14) = (   0.0000000   0.0000000   0.6666667), wk =   0.0555556
        k(   15) = (   0.0000000   0.8333333  -0.1666667), wk =   0.1111111
        k(   16) = (   0.0000000   0.0000000  -1.0000000), wk =   0.0092593

     Dense  grid:    30093 G-vectors     FFT dimensions: (  45,  45,  45)

     Estimated max dynamical RAM per process >      26.13 MB

     Estimated total dynamical RAM >     130.64 MB

     Check: negative/imaginary core charge=   -0.000003    0.000000

     Initial potential from superposition of free atoms

     starting charge    8.98117, renormalised to    9.00000
     Starting wfcs are    8 randomized atomic wfcs +    1 random wfcs
     Checking if some PAW data can be deallocated... 

     total cpu time spent up to now is        1.5 secs

     Self-consistent Calculation

     iteration #  1     ecut=    60.00 Ry     beta= 0.70
     Davidson diagonalization with overlap
     ethr =  1.00E-02,  avg # of iterations =  6.8

     Threshold (ethr) on eigenvalues was too large:
     Diagonalizing with lowered threshold

     Davidson diagonalization with overlap
     ethr =  1.41E-05,  avg # of iterations =  6.8

     total cpu time spent up to now is        3.8 secs

     total energy              =    -113.00988850 Ry
     Harris-Foulkes estimate   =    -113.01040023 Ry
     estimated scf accuracy    <       0.00124874 Ry

     iteration #  2     ecut=    60.00 Ry     beta= 0.70
     Davidson diagonalization with overlap
     ethr =  1.39E-05,  avg # of iterations =  2.1

     total cpu time spent up to now is        4.5 secs

     total energy              =    -113.01010977 Ry
     Harris-Foulkes estimate   =    -113.01011928 Ry
     estimated scf accuracy    <       0.00010092 Ry

     iteration #  3     ecut=    60.00 Ry     beta= 0.70
     Davidson diagonalization with overlap
     ethr =  1.12E-06,  avg # of iterations =  2.6

     total cpu time spent up to now is        5.3 secs

     total energy              =    -113.01012182 Ry
     Harris-Foulkes estimate   =    -113.01011956 Ry
     estimated scf accuracy    <       0.00000685 Ry

     iteration #  4     ecut=    60.00 Ry     beta= 0.70
     Davidson diagonalization with overlap
     ethr =  7.61E-08,  avg # of iterations =  1.5

     total cpu time spent up to now is        6.0 secs

     total energy              =    -113.01012248 Ry
     Harris-Foulkes estimate   =    -113.01012248 Ry
     estimated scf accuracy    <       0.00000005 Ry

     iteration #  5     ecut=    60.00 Ry     beta= 0.70
     Davidson diagonalization with overlap
     ethr =  5.83E-10,  avg # of iterations =  2.4

     total cpu time spent up to now is        6.8 secs

     End of self-consistent calculation

          k = 0.0000 0.0000 0.0000 (  3781 PWs)   bands (ev):

   -30.1637 -13.6126 -13.6126 -13.6126  -0.2615   6.2634   6.2634   6.2634
     7.1825

          k = 0.0000-0.1667 0.1667 (  3767 PWs)   bands (ev):

   -30.1625 -13.6320 -13.6191 -13.6126   0.0898   5.6329   5.8815   6.5455
     6.9369

          k = 0.0000-0.3333 0.3333 (  3779 PWs)   bands (ev):

   -30.1601 -13.6702 -13.6319 -13.6126   1.0774   4.1199   5.3355   7.0341
     7.2498

          k = 0.0000 0.5000-0.5000 (  3766 PWs)   bands (ev):

   -30.1588 -13.6891 -13.6383 -13.6126   2.3891   2.6488   5.1202   6.8719
     7.9905

          k =-0.1667-0.1667 0.3333 (  3763 PWs)   bands (ev):

   -30.1607 -13.6580 -13.6271 -13.6171   0.7610   4.7937   5.1890   6.8185
     6.9389

          k =-0.1667 0.6667-0.5000 (  3764 PWs)   bands (ev):

   -30.1588 -13.6793 -13.6421 -13.6186   1.9774   3.4682   4.6895   6.6781
     7.3334

          k =-0.3333 0.6667-0.3333 (  3772 PWs)   bands (ev):

   -30.1582 -13.6652 -13.6652 -13.6223   3.1570   3.1570   3.5775   6.5949
     7.3440

          k = 0.0000 0.0000 0.3333 (  3760 PWs)   bands (ev):

   -30.1613 -13.6356 -13.6257 -13.6257   0.4311   5.6997   5.7502   5.7502
     6.6681

          k = 0.0000-0.1667 0.5000 (  3760 PWs)   bands (ev):

   -30.1590 -13.6668 -13.6390 -13.6273   1.3896   4.2596   5.3875   5.8634
     7.2775

          k = 0.0000 0.6667-0.3333 (  3748 PWs)   bands (ev):

   -30.1579 -13.6837 -13.6457 -13.6265   2.7374   2.8022   5.2190   5.7076
     7.2746

          k =-0.1667 0.8333-0.3333 (  3749 PWs)   bands (ev):

   -30.1574 -13.6743 -13.6572 -13.6323   2.5131   3.6521   4.4032   6.2365
     6.7207

          k = 0.6667-0.6667 0.3333 (  3799 PWs)   bands (ev):

   -30.1593 -13.6728 -13.6297 -13.6297   1.6962   4.2249   4.2249   6.4105
     7.5579

          k = 0.5000-0.5000 0.3333 (  3774 PWs)   bands (ev):

   -30.1586 -13.6692 -13.6470 -13.6310   2.9892   3.0443   4.0380   5.7323
     7.6666

          k = 0.0000 0.0000 0.6667 (  3720 PWs)   bands (ev):

   -30.1570 -13.6629 -13.6532 -13.6532   2.2386   4.1500   5.4269   5.4269
     6.0574

          k = 0.0000 0.8333-0.1667 (  3728 PWs)   bands (ev):

   -30.1560 -13.6730 -13.6603 -13.6540   3.2335   3.4576   5.0191   5.4152
     6.2006

          k = 0.0000 0.0000-1.0000 (  3716 PWs)   bands (ev):

   -30.1550 -13.6676 -13.6676 -13.6676   3.5999   5.5109   5.5109   5.5109
     7.6777

     the Fermi energy is     1.9623 ev

!    total energy              =    -113.01012249 Ry
     Harris-Foulkes estimate   =    -113.01012249 Ry
     estimated scf accuracy    <          2.6E-09 Ry

     total all-electron energy =     -1204.248833 Ry

     The total energy is the sum of the following terms:

     one-electron contribution =     -35.40392284 Ry
     hartree contribution      =      18.88108324 Ry
     xc contribution           =     -11.17000495 Ry
     ewald contribution        =     -29.89633971 Ry
     one-center paw contrib.   =     -55.41969270 Ry
     smearing contrib. (-TS)   =      -0.00124554 Ry

     convergence has been achieved in   5 iterations

     Forces acting on atoms (cartesian axes, Ry/au):

     atom    1 type  1   force =     0.00000000    0.00000000    0.00000000

     Total force =     0.000000     Total SCF correction =     0.000000


     Computing stress (Cartesian axis) and pressure

          total   stress  (Ry/bohr**3)                   (kbar)     P=    1.62
   0.00001100   0.00000000  -0.00000000          1.62      0.00     -0.00
   0.00000000   0.00001100   0.00000000          0.00      1.62      0.00
  -0.00000000   0.00000000   0.00001100         -0.00      0.00      1.62


     Writing output data file K.save/

     init_run     :      0.55s CPU      0.59s WALL (       1 calls)
     electrons    :      5.20s CPU      5.39s WALL (       1 calls)
     forces       :      0.10s CPU      0.10s WALL (       1 calls)
     stress       :      0.42s CPU      0.42s WALL (       1 calls)

     Called by init_run:
     wfcinit      :      0.16s CPU      0.17s WALL (       1 calls)
     potinit      :      0.11s CPU      0.14s WALL (       1 calls)
     hinit0       :      0.19s CPU      0.19s WALL (       1 calls)

     Called by electrons:
     c_bands      :      3.66s CPU      3.79s WALL (       6 calls)
     sum_band     :      0.79s CPU      0.82s WALL (       6 calls)
     v_of_rho     :      0.13s CPU      0.13s WALL (       6 calls)
     newd         :      0.18s CPU      0.19s WALL (       6 calls)
     PAW_pot      :      0.55s CPU      0.59s WALL (       6 calls)
     mix_rho      :      0.01s CPU      0.01s WALL (       6 calls)

     Called by c_bands:
     init_us_2    :      0.11s CPU      0.11s WALL (     240 calls)
     cegterg      :      3.50s CPU      3.63s WALL (      96 calls)

     Called by sum_band:
     sum_band:bec :      0.00s CPU      0.00s WALL (      96 calls)
     addusdens    :      0.18s CPU      0.18s WALL (       6 calls)

     Called by *egterg:
     h_psi        :      2.93s CPU      3.06s WALL (     467 calls)
     s_psi        :      0.08s CPU      0.08s WALL (     467 calls)
     g_psi        :      0.01s CPU      0.01s WALL (     355 calls)
     cdiaghg      :      0.13s CPU      0.13s WALL (     435 calls)

     Called by h_psi:
     h_psi:pot    :      2.91s CPU      3.05s WALL (     467 calls)
     h_psi:calbec :      0.19s CPU      0.19s WALL (     467 calls)
     vloc_psi     :      2.64s CPU      2.76s WALL (     467 calls)
     add_vuspsi   :      0.09s CPU      0.09s WALL (     467 calls)

     General routines
     calbec       :      0.28s CPU      0.29s WALL (     643 calls)
     fft          :      0.10s CPU      0.10s WALL (      93 calls)
     ffts         :      0.00s CPU      0.00s WALL (       6 calls)
     fftw         :      2.91s CPU      3.04s WALL (    5982 calls)

     Parallel routines
     fft_scatt_xy :      0.20s CPU      0.21s WALL (    6081 calls)
     fft_scatt_yz :      1.04s CPU      1.09s WALL (    6081 calls)

     PWSCF        :     7.15s CPU         7.46s WALL


   This run was terminated on:   0:45:32   8Apr2024            

=------------------------------------------------------------------------------=
   JOB DONE.
=------------------------------------------------------------------------------=
