
     Program PWSCF v.6.3MaX starts on  8Apr2024 at  0:35:45 

     This program is part of the open-source Quantum ESPRESSO suite
     for quantum simulation of materials; please cite
         "P. Giannozzi et al., J. Phys.:Condens. Matter 21 395502 (2009);
         "P. Giannozzi et al., J. Phys.:Condens. Matter 29 465901 (2017);
          URL http://www.quantum-espresso.org", 
     in publications or presentations arising from this work. More details at
     http://www.quantum-espresso.org/quote

     Parallel version (MPI), running on     5 processors

     MPI processes distributed on     1 nodes
     R & G space division:  proc/nbgrp/npool/nimage =       5
     Waiting for input...
     Reading input from standard input

     Current dimensions of program PWSCF are:
     Max number of different atomic species (ntypx) = 10
     Max number of k-points (npk) =  40000
     Max angular momentum in pseudopotentials (lmaxx) =  3
               file K.pbe-spn-kjpaw_psl.1.0.0.UPF: wavefunction(s)  3S renormalized

     Subspace diagonalization in iterative solution of the eigenvalue problem:
     a serial algorithm will be used


     Parallelization info
     --------------------
     sticks:   dense  smooth     PW     G-vecs:    dense   smooth      PW
     Min         221     221     66                 4575     4575     756
     Max         221     221     67                 4576     4576     757
     Sum        1105    1105    333                22879    22879    3781



     bravais-lattice index     =            3
     lattice parameter (alat)  =       9.8600  a.u.
     unit-cell volume          =     479.2926 (a.u.)^3
     number of atoms/cell      =            1
     number of atomic types    =            1
     number of electrons       =         9.00
     number of Kohn-Sham states=            9
     kinetic-energy cutoff     =      50.0000  Ry
     charge density cutoff     =     200.0000  Ry
     convergence threshold     =      1.0E-08
     mixing beta               =       0.7000
     number of iterations used =            8  plain     mixing
     Exchange-correlation      = SLA PW PBX PBC ( 1  4  3  4 0 0)

     celldm(1)=   9.860000  celldm(2)=   0.000000  celldm(3)=   0.000000
     celldm(4)=   0.000000  celldm(5)=   0.000000  celldm(6)=   0.000000

     crystal axes: (cart. coord. in units of alat)
               a(1) = (   0.500000   0.500000   0.500000 )  
               a(2) = (  -0.500000   0.500000   0.500000 )  
               a(3) = (  -0.500000  -0.500000   0.500000 )  

     reciprocal axes: (cart. coord. in units 2 pi/alat)
               b(1) = (  1.000000  0.000000  1.000000 )  
               b(2) = ( -1.000000  1.000000  0.000000 )  
               b(3) = (  0.000000 -1.000000  1.000000 )  


     PseudoPot. # 1 for K  read from file:
     /home/lorenzo/pseudos/K/K.pbe-spn-kjpaw_psl.1.0.0.UPF
     MD5 check sum: 34cc42130a09071ebe376fd42eb21491
     Pseudo is Projector augmented-wave + core cor, Zval =  9.0
     Generated using "atomic" code by A. Dal Corso v.6.2.2
     Shape of augmentation charge: PSQ
     Using radial grid of 1165 points,  6 beta functions with: 
                l(1) =   0
                l(2) =   0
                l(3) =   1
                l(4) =   1
                l(5) =   2
                l(6) =   2
     Q(r) pseudized with 0 coefficients 


     atomic species   valence    mass     pseudopotential
        K              9.00    39.09830     K ( 1.00)

     48 Sym. Ops., with inversion, found



   Cartesian axes

     site n.     atom                  positions (alat units)
         1           K   tau(   1) = (   0.0000000   0.0000000   0.0000000  )

     number of k points=    29  gaussian smearing, width (Ry)=  0.0100
                       cart. coord. in units 2pi/alat
        k(    1) = (   0.0000000   0.0000000   0.0000000), wk =   0.0039062
        k(    2) = (   0.0000000  -0.1250000   0.1250000), wk =   0.0468750
        k(    3) = (   0.0000000  -0.2500000   0.2500000), wk =   0.0468750
        k(    4) = (   0.0000000  -0.3750000   0.3750000), wk =   0.0468750
        k(    5) = (   0.0000000   0.5000000  -0.5000000), wk =   0.0234375
        k(    6) = (  -0.1250000  -0.1250000   0.2500000), wk =   0.0937500
        k(    7) = (  -0.1250000  -0.2500000   0.3750000), wk =   0.1875000
        k(    8) = (  -0.1250000   0.6250000  -0.5000000), wk =   0.1875000
        k(    9) = (  -0.2500000   0.7500000  -0.5000000), wk =   0.0937500
        k(   10) = (  -0.2500000   0.6250000  -0.3750000), wk =   0.0937500
        k(   11) = (   0.0000000   0.0000000   0.2500000), wk =   0.0234375
        k(   12) = (   0.0000000  -0.1250000   0.3750000), wk =   0.0937500
        k(   13) = (   0.0000000  -0.2500000   0.5000000), wk =   0.0937500
        k(   14) = (   0.0000000   0.6250000  -0.3750000), wk =   0.0468750
        k(   15) = (  -0.1250000  -0.1250000   0.5000000), wk =   0.0937500
        k(   16) = (  -0.1250000   0.7500000  -0.3750000), wk =   0.1875000
        k(   17) = (  -0.2500000   0.2500000   0.2500000), wk =   0.0312500
        k(   18) = (  -0.2500000   0.7500000  -0.2500000), wk =   0.0312500
        k(   19) = (   0.6250000  -0.6250000   0.2500000), wk =   0.0937500
        k(   20) = (   0.5000000  -0.5000000   0.2500000), wk =   0.0468750
        k(   21) = (   0.5000000  -0.6250000   0.3750000), wk =   0.0937500
        k(   22) = (   0.0000000   0.0000000   0.5000000), wk =   0.0234375
        k(   23) = (   0.0000000  -0.1250000   0.6250000), wk =   0.0937500
        k(   24) = (   0.0000000   0.7500000  -0.2500000), wk =   0.0468750
        k(   25) = (  -0.1250000   0.8750000  -0.2500000), wk =   0.0937500
        k(   26) = (   0.5000000  -0.5000000   0.5000000), wk =   0.0078125
        k(   27) = (   0.0000000   0.0000000   0.7500000), wk =   0.0234375
        k(   28) = (   0.0000000   0.8750000  -0.1250000), wk =   0.0468750
        k(   29) = (   0.0000000   0.0000000  -1.0000000), wk =   0.0039062

     Dense  grid:    22879 G-vectors     FFT dimensions: (  40,  40,  40)

     Estimated max dynamical RAM per process >      21.11 MB

     Estimated total dynamical RAM >     105.55 MB

     Check: negative/imaginary core charge=   -0.000006    0.000000

     Initial potential from superposition of free atoms

     starting charge    8.98117, renormalised to    9.00000
     Starting wfcs are    8 randomized atomic wfcs +    1 random wfcs
     Checking if some PAW data can be deallocated... 

     total cpu time spent up to now is        1.3 secs

     Self-consistent Calculation

     iteration #  1     ecut=    50.00 Ry     beta= 0.70
     Davidson diagonalization with overlap
     ethr =  1.00E-02,  avg # of iterations =  6.5

     Threshold (ethr) on eigenvalues was too large:
     Diagonalizing with lowered threshold

     Davidson diagonalization with overlap
     ethr =  1.41E-05,  avg # of iterations =  6.5

     total cpu time spent up to now is        3.6 secs

     total energy              =    -113.01021087 Ry
     Harris-Foulkes estimate   =    -113.01072352 Ry
     estimated scf accuracy    <       0.00125781 Ry

     iteration #  2     ecut=    50.00 Ry     beta= 0.70
     Davidson diagonalization with overlap
     ethr =  1.40E-05,  avg # of iterations =  2.1

     total cpu time spent up to now is        4.5 secs

     total energy              =    -113.01043185 Ry
     Harris-Foulkes estimate   =    -113.01044103 Ry
     estimated scf accuracy    <       0.00010026 Ry

     iteration #  3     ecut=    50.00 Ry     beta= 0.70
     Davidson diagonalization with overlap
     ethr =  1.11E-06,  avg # of iterations =  2.2

     total cpu time spent up to now is        5.2 secs

     total energy              =    -113.01044397 Ry
     Harris-Foulkes estimate   =    -113.01044168 Ry
     estimated scf accuracy    <       0.00000681 Ry

     iteration #  4     ecut=    50.00 Ry     beta= 0.70
     Davidson diagonalization with overlap
     ethr =  7.57E-08,  avg # of iterations =  1.6

     total cpu time spent up to now is        6.0 secs

     total energy              =    -113.01044470 Ry
     Harris-Foulkes estimate   =    -113.01044470 Ry
     estimated scf accuracy    <       0.00000005 Ry

     iteration #  5     ecut=    50.00 Ry     beta= 0.70
     Davidson diagonalization with overlap
     ethr =  6.06E-10,  avg # of iterations =  2.6

     total cpu time spent up to now is        6.7 secs

     End of self-consistent calculation

          k = 0.0000 0.0000 0.0000 (  2899 PWs)   bands (ev):

   -30.1648 -13.6128 -13.6128 -13.6128  -0.2611   6.2641   6.2641   6.2641
     7.1829

          k = 0.0000-0.1250 0.1250 (  2875 PWs)   bands (ev):

   -30.1641 -13.6242 -13.6165 -13.6128  -0.0621   5.9309   6.0268   6.4235
     6.9510

          k = 0.0000-0.2500 0.2500 (  2884 PWs)   bands (ev):

   -30.1624 -13.6514 -13.6256 -13.6128   0.5138   4.9043   5.5845   6.8905
     7.0055

          k = 0.0000-0.3750 0.3750 (  2858 PWs)   bands (ev):

   -30.1606 -13.6781 -13.6346 -13.6127   1.4035   3.7228   5.2436   6.9974
     7.3456

          k = 0.0000 0.5000-0.5000 (  2856 PWs)   bands (ev):

   -30.1599 -13.6891 -13.6383 -13.6127   2.3895   2.6493   5.1209   6.8722
     7.9909

          k =-0.1250-0.1250 0.2500 (  2868 PWs)   bands (ev):

   -30.1629 -13.6428 -13.6208 -13.6155   0.3256   5.3429   5.5706   6.7002
     6.7931

          k =-0.1250-0.2500 0.3750 (  2856 PWs)   bands (ev):

   -30.1611 -13.6668 -13.6317 -13.6165   1.0610   4.3484   5.1173   6.8338
     7.1388

          k =-0.1250 0.6250-0.5000 (  2866 PWs)   bands (ev):

   -30.1599 -13.6831 -13.6405 -13.6168   2.0596   3.2161   4.8794   6.6772
     7.5310

          k =-0.2500 0.7500-0.5000 (  2864 PWs)   bands (ev):

   -30.1599 -13.6751 -13.6447 -13.6206   1.9114   3.8326   4.3662   6.7976
     7.0273

          k =-0.2500 0.6250-0.3750 (  2872 PWs)   bands (ev):

   -30.1594 -13.6748 -13.6544 -13.6216   2.9306   2.9602   4.0529   6.5857
     7.3266

          k = 0.0000 0.0000 0.2500 (  2871 PWs)   bands (ev):

   -30.1634 -13.6270 -13.6204 -13.6204   0.1336   5.9173   5.9173   6.1859
     6.4955

          k = 0.0000-0.1250 0.3750 (  2869 PWs)   bands (ev):

   -30.1617 -13.6505 -13.6297 -13.6218   0.7002   4.9640   5.5815   6.1273
     6.9082

          k = 0.0000-0.2500 0.5000 (  2858 PWs)   bands (ev):

   -30.1600 -13.6756 -13.6389 -13.6212   1.5759   3.8234   5.2878   6.1332
     7.4220

          k = 0.0000 0.6250-0.3750 (  2854 PWs)   bands (ev):

   -30.1593 -13.6860 -13.6426 -13.6209   2.5898   2.7359   5.1788   6.0347
     7.4628

          k =-0.1250-0.1250 0.5000 (  2861 PWs)   bands (ev):

   -30.1601 -13.6664 -13.6409 -13.6265   1.4098   4.3390   5.0560   6.1492
     7.0968

          k =-0.1250 0.7500-0.3750 (  2857 PWs)   bands (ev):

   -30.1590 -13.6781 -13.6512 -13.6269   2.3716   3.4350   4.6252   6.2164
     7.0691

          k =-0.2500 0.2500 0.2500 (  2845 PWs)   bands (ev):

   -30.1616 -13.6627 -13.6219 -13.6219   0.8836   4.8176   4.8176   6.8842
     7.3217

          k =-0.2500 0.7500-0.2500 (  2847 PWs)   bands (ev):

   -30.1585 -13.6684 -13.6684 -13.6279   3.2027   3.2028   3.8063   6.7894
     7.3373

          k = 0.6250-0.6250 0.2500 (  2873 PWs)   bands (ev):

   -30.1603 -13.6748 -13.6361 -13.6230   1.7496   3.8786   4.4958   6.5322
     7.4852

          k = 0.5000-0.5000 0.2500 (  2868 PWs)   bands (ev):

   -30.1598 -13.6775 -13.6442 -13.6235   2.7799   2.8394   4.3883   6.2318
     7.6217

          k = 0.5000-0.6250 0.3750 (  2874 PWs)   bands (ev):

   -30.1597 -13.6685 -13.6485 -13.6302   2.6739   3.5278   3.8490   5.8054
     7.6184

          k = 0.0000 0.0000 0.5000 (  2851 PWs)   bands (ev):

   -30.1602 -13.6524 -13.6394 -13.6394   1.2375   4.8189   5.5072   5.5072
     7.0913

          k = 0.0000-0.1250 0.6250 (  2854 PWs)   bands (ev):

   -30.1586 -13.6697 -13.6491 -13.6413   2.0594   4.0237   5.3781   5.4031
     6.6121

          k = 0.0000 0.7500-0.2500 (  2868 PWs)   bands (ev):

   -30.1580 -13.6785 -13.6531 -13.6405   2.9902   3.1118   5.2009   5.3182
     6.7723

          k =-0.1250 0.8750-0.2500 (  2851 PWs)   bands (ev):

   -30.1576 -13.6723 -13.6619 -13.6442   2.8937   3.6197   4.5736   5.9166
     6.3361

          k = 0.5000-0.5000 0.5000 (  2916 PWs)   bands (ev):

   -30.1597 -13.6501 -13.6501 -13.6501   3.4277   3.4277   3.4277   5.1269
     7.7852

          k = 0.0000 0.0000 0.7500 (  2843 PWs)   bands (ev):

   -30.1572 -13.6657 -13.6592 -13.6592   2.7508   3.9112   5.4397   5.4397
     5.7060

          k = 0.0000 0.8750-0.1250 (  2842 PWs)   bands (ev):

   -30.1567 -13.6708 -13.6634 -13.6598   3.3633   3.5531   5.0980   5.4558
     5.9369

          k = 0.0000 0.0000-1.0000 (  2844 PWs)   bands (ev):

   -30.1561 -13.6677 -13.6677 -13.6677   3.6004   5.5115   5.5115   5.5115
     7.6770

     the Fermi energy is     1.9738 ev

!    total energy              =    -113.01044472 Ry
     Harris-Foulkes estimate   =    -113.01044472 Ry
     estimated scf accuracy    <          2.5E-09 Ry

     total all-electron energy =     -1204.249155 Ry

     The total energy is the sum of the following terms:

     one-electron contribution =     -35.40286939 Ry
     hartree contribution      =      18.87992922 Ry
     xc contribution           =     -11.17019031 Ry
     ewald contribution        =     -29.89633978 Ry
     one-center paw contrib.   =     -55.42020886 Ry
     smearing contrib. (-TS)   =      -0.00076561 Ry

     convergence has been achieved in   5 iterations

     Forces acting on atoms (cartesian axes, Ry/au):

     atom    1 type  1   force =     0.00000000    0.00000000    0.00000000

     Total force =     0.000000     Total SCF correction =     0.000000


     Computing stress (Cartesian axis) and pressure

          total   stress  (Ry/bohr**3)                   (kbar)     P=    0.94
   0.00000641   0.00000000  -0.00000000          0.94      0.00     -0.00
   0.00000000   0.00000641   0.00000000          0.00      0.94      0.00
  -0.00000000   0.00000000   0.00000641         -0.00      0.00      0.94


     Writing output data file K.save/

     init_run     :      0.52s CPU      0.55s WALL (       1 calls)
     electrons    :      5.24s CPU      5.49s WALL (       1 calls)
     forces       :      0.10s CPU      0.10s WALL (       1 calls)
     stress       :      0.39s CPU      0.39s WALL (       1 calls)

     Called by init_run:
     wfcinit      :      0.19s CPU      0.20s WALL (       1 calls)
     potinit      :      0.10s CPU      0.12s WALL (       1 calls)
     hinit0       :      0.18s CPU      0.18s WALL (       1 calls)

     Called by electrons:
     c_bands      :      3.74s CPU      3.94s WALL (       6 calls)
     sum_band     :      0.84s CPU      0.88s WALL (       6 calls)
     v_of_rho     :      0.08s CPU      0.09s WALL (       6 calls)
     newd         :      0.13s CPU      0.14s WALL (       6 calls)
     PAW_pot      :      0.54s CPU      0.56s WALL (       6 calls)
     mix_rho      :      0.01s CPU      0.01s WALL (       6 calls)

     Called by c_bands:
     init_us_2    :      0.15s CPU      0.16s WALL (     435 calls)
     cegterg      :      3.57s CPU      3.76s WALL (     174 calls)

     Called by sum_band:
     sum_band:bec :      0.00s CPU      0.00s WALL (     174 calls)
     addusdens    :      0.14s CPU      0.15s WALL (       6 calls)

     Called by *egterg:
     h_psi        :      2.87s CPU      3.05s WALL (     828 calls)
     s_psi        :      0.10s CPU      0.10s WALL (     828 calls)
     g_psi        :      0.01s CPU      0.01s WALL (     625 calls)
     cdiaghg      :      0.18s CPU      0.19s WALL (     770 calls)

     Called by h_psi:
     h_psi:pot    :      2.85s CPU      3.03s WALL (     828 calls)
     h_psi:calbec :      0.17s CPU      0.18s WALL (     828 calls)
     vloc_psi     :      2.57s CPU      2.73s WALL (     828 calls)
     add_vuspsi   :      0.10s CPU      0.11s WALL (     828 calls)

     General routines
     calbec       :      0.27s CPU      0.29s WALL (    1147 calls)
     fft          :      0.06s CPU      0.06s WALL (      93 calls)
     ffts         :      0.00s CPU      0.00s WALL (       6 calls)
     fftw         :      2.89s CPU      3.07s WALL (   10798 calls)

     Parallel routines
     fft_scatt_xy :      0.23s CPU      0.24s WALL (   10897 calls)
     fft_scatt_yz :      0.78s CPU      0.83s WALL (   10897 calls)

     PWSCF        :     7.04s CPU         7.39s WALL


   This run was terminated on:   0:35:52   8Apr2024            

=------------------------------------------------------------------------------=
   JOB DONE.
=------------------------------------------------------------------------------=
