
     Program PWSCF v.6.3MaX starts on  8Apr2024 at  0:13:31 

     This program is part of the open-source Quantum ESPRESSO suite
     for quantum simulation of materials; please cite
         "P. Giannozzi et al., J. Phys.:Condens. Matter 21 395502 (2009);
         "P. Giannozzi et al., J. Phys.:Condens. Matter 29 465901 (2017);
          URL http://www.quantum-espresso.org", 
     in publications or presentations arising from this work. More details at
     http://www.quantum-espresso.org/quote

     Parallel version (MPI), running on     5 processors

     MPI processes distributed on     1 nodes
     R & G space division:  proc/nbgrp/npool/nimage =       5
     Waiting for input...
     Reading input from standard input

     Current dimensions of program PWSCF are:
     Max number of different atomic species (ntypx) = 10
     Max number of k-points (npk) =  40000
     Max angular momentum in pseudopotentials (lmaxx) =  3
               file K.pz-spn-rrkjus_psl.1.0.0.UPF: wavefunction(s)  3S renormalized

     Subspace diagonalization in iterative solution of the eigenvalue problem:
     a serial algorithm will be used


     Parallelization info
     --------------------
     sticks:   dense  smooth     PW     G-vecs:    dense   smooth      PW
     Min          66      66     20                  756      756     136
     Max          67      67     21                  757      757     137
     Sum         333     333    103                 3781     3781     683



     bravais-lattice index     =            3
     lattice parameter (alat)  =       9.8600  a.u.
     unit-cell volume          =     479.2926 (a.u.)^3
     number of atoms/cell      =            1
     number of atomic types    =            1
     number of electrons       =         9.00
     number of Kohn-Sham states=            9
     kinetic-energy cutoff     =      15.0000  Ry
     charge density cutoff     =      60.0000  Ry
     convergence threshold     =      1.0E-08
     mixing beta               =       0.7000
     number of iterations used =            8  plain     mixing
     Exchange-correlation      = LDA ( 1  1  0  0 0 0)

     celldm(1)=   9.860000  celldm(2)=   0.000000  celldm(3)=   0.000000
     celldm(4)=   0.000000  celldm(5)=   0.000000  celldm(6)=   0.000000

     crystal axes: (cart. coord. in units of alat)
               a(1) = (   0.500000   0.500000   0.500000 )  
               a(2) = (  -0.500000   0.500000   0.500000 )  
               a(3) = (  -0.500000  -0.500000   0.500000 )  

     reciprocal axes: (cart. coord. in units 2 pi/alat)
               b(1) = (  1.000000  0.000000  1.000000 )  
               b(2) = ( -1.000000  1.000000  0.000000 )  
               b(3) = (  0.000000 -1.000000  1.000000 )  


     PseudoPot. # 1 for K  read from file:
     /home/lorenzo/pseudos/K/K.pz-spn-rrkjus_psl.1.0.0.UPF
     MD5 check sum: af434a66a3b91719abff201b8f79bb09
     Pseudo is Ultrasoft + core correction, Zval =  9.0
     Generated using "atomic" code by A. Dal Corso v.6.2.2
     Using radial grid of 1165 points,  6 beta functions with: 
                l(1) =   0
                l(2) =   0
                l(3) =   1
                l(4) =   1
                l(5) =   2
                l(6) =   2
     Q(r) pseudized with 0 coefficients 


     atomic species   valence    mass     pseudopotential
        K              9.00    39.09830     K ( 1.00)

     48 Sym. Ops., with inversion, found



   Cartesian axes

     site n.     atom                  positions (alat units)
         1           K   tau(   1) = (   0.0000000   0.0000000   0.0000000  )

     number of k points=    10  gaussian smearing, width (Ry)=  0.0100
                       cart. coord. in units 2pi/alat
        k(    1) = (   0.0000000   0.0000000   0.0000000), wk =   0.0160000
        k(    2) = (   0.0000000  -0.2000000   0.2000000), wk =   0.1920000
        k(    3) = (   0.0000000  -0.4000000   0.4000000), wk =   0.1920000
        k(    4) = (  -0.2000000  -0.2000000   0.4000000), wk =   0.3840000
        k(    5) = (  -0.2000000   0.6000000  -0.4000000), wk =   0.3840000
        k(    6) = (   0.0000000   0.0000000   0.4000000), wk =   0.0960000
        k(    7) = (   0.0000000  -0.2000000   0.6000000), wk =   0.3840000
        k(    8) = (  -0.2000000   0.8000000  -0.2000000), wk =   0.1280000
        k(    9) = (   0.6000000  -0.6000000   0.4000000), wk =   0.1280000
        k(   10) = (   0.0000000   0.0000000   0.8000000), wk =   0.0960000

     Dense  grid:     3781 G-vectors     FFT dimensions: (  24,  24,  24)

     Estimated max dynamical RAM per process >       3.98 MB

     Estimated total dynamical RAM >      19.89 MB

     Check: negative/imaginary core charge=   -0.000370    0.000000

     Initial potential from superposition of free atoms

     starting charge    8.98437, renormalised to    9.00000
     Starting wfcs are    8 randomized atomic wfcs +    1 random wfcs

     total cpu time spent up to now is        0.8 secs

     Self-consistent Calculation

     iteration #  1     ecut=    15.00 Ry     beta= 0.70
     Davidson diagonalization with overlap
     ethr =  1.00E-02,  avg # of iterations =  6.3

     Threshold (ethr) on eigenvalues was too large:
     Diagonalizing with lowered threshold

     Davidson diagonalization with overlap
     ethr =  4.85E-04,  avg # of iterations =  2.0

     total cpu time spent up to now is        1.0 secs

     total energy              =     -58.34424257 Ry
     Harris-Foulkes estimate   =     -58.37399910 Ry
     estimated scf accuracy    <       0.04467463 Ry

     iteration #  2     ecut=    15.00 Ry     beta= 0.70
     Davidson diagonalization with overlap
     ethr =  4.96E-04,  avg # of iterations =  2.9

     total cpu time spent up to now is        1.0 secs

     total energy              =     -58.35308725 Ry
     Harris-Foulkes estimate   =     -58.35381067 Ry
     estimated scf accuracy    <       0.00220785 Ry

     iteration #  3     ecut=    15.00 Ry     beta= 0.70
     Davidson diagonalization with overlap
     ethr =  2.45E-05,  avg # of iterations =  4.5

     total cpu time spent up to now is        1.1 secs

     total energy              =     -58.35327090 Ry
     Harris-Foulkes estimate   =     -58.35328567 Ry
     estimated scf accuracy    <       0.00013541 Ry

     iteration #  4     ecut=    15.00 Ry     beta= 0.70
     Davidson diagonalization with overlap
     ethr =  1.50E-06,  avg # of iterations =  3.8

     total cpu time spent up to now is        1.1 secs

     total energy              =     -58.35327279 Ry
     Harris-Foulkes estimate   =     -58.35327287 Ry
     estimated scf accuracy    <       0.00000021 Ry

     iteration #  5     ecut=    15.00 Ry     beta= 0.70
     Davidson diagonalization with overlap
     ethr =  2.38E-09,  avg # of iterations =  2.5

     total cpu time spent up to now is        1.2 secs

     total energy              =     -58.35327291 Ry
     Harris-Foulkes estimate   =     -58.35327292 Ry
     estimated scf accuracy    <       0.00000001 Ry

     iteration #  6     ecut=    15.00 Ry     beta= 0.70
     Davidson diagonalization with overlap
     ethr =  1.59E-10,  avg # of iterations =  2.0

     total cpu time spent up to now is        1.3 secs

     End of self-consistent calculation

          k = 0.0000 0.0000 0.0000 (   459 PWs)   bands (ev):

   -31.1108 -13.5361 -13.5361 -13.5361  -0.4272   6.5012   6.5012   6.5012
     7.6256

          k = 0.0000-0.2000 0.2000 (   475 PWs)   bands (ev):

   -31.1096 -13.6730 -13.6395 -13.6035   0.0871   5.4492   5.9032   6.8753
     7.2854

          k = 0.0000-0.4000 0.4000 (   474 PWs)   bands (ev):

   -31.1073 -13.7165 -13.6803 -13.6009   1.4874   3.4525   5.3115   7.1417
     7.6562

          k =-0.2000-0.2000 0.4000 (   465 PWs)   bands (ev):

   -31.1075 -13.6571 -13.5920 -13.5828   1.0541   4.4391   4.9144   7.0434
     7.2017

          k =-0.2000 0.6000-0.4000 (   474 PWs)   bands (ev):

   -31.1065 -13.7120 -13.6733 -13.6447   2.6480   2.8175   4.4167   6.5414
     7.6625

          k = 0.0000 0.0000 0.4000 (   470 PWs)   bands (ev):

   -31.1082 -13.6572 -13.6165 -13.6165   0.5831   5.4631   5.7385   5.7385
     7.1097

          k = 0.0000-0.2000 0.6000 (   468 PWs)   bands (ev):

   -31.1059 -13.6995 -13.6167 -13.6145   1.9329   3.7390   5.3875   5.6078
     7.1914

          k =-0.2000 0.8000-0.2000 (   469 PWs)   bands (ev):

   -31.1050 -13.7006 -13.7006 -13.5969   3.2838   3.2838   3.9157   6.5555
     6.5555

          k = 0.6000-0.6000 0.4000 (   477 PWs)   bands (ev):

   -31.1069 -13.7493 -13.6635 -13.6635   2.3576   3.8643   3.8643   5.4087
     8.1730

          k = 0.0000 0.0000 0.8000 (   466 PWs)   bands (ev):

   -31.1040 -13.6703 -13.6703 -13.6361   3.0222   3.8674   5.4259   5.4259
     5.4853

     the Fermi energy is     1.8858 ev

!    total energy              =     -58.35327291 Ry
     Harris-Foulkes estimate   =     -58.35327291 Ry
     estimated scf accuracy    <          4.3E-11 Ry

     The total energy is the sum of the following terms:

     one-electron contribution =     -35.88902184 Ry
     hartree contribution      =      18.34203926 Ry
     xc contribution           =     -10.90898917 Ry
     ewald contribution        =     -29.89633977 Ry
     smearing contrib. (-TS)   =      -0.00096139 Ry

     convergence has been achieved in   6 iterations

     Forces acting on atoms (cartesian axes, Ry/au):

     atom    1 type  1   force =     0.00000000    0.00000000    0.00000000

     Total force =     0.000000     Total SCF correction =     0.000000


     Computing stress (Cartesian axis) and pressure

          total   stress  (Ry/bohr**3)                   (kbar)     P= -330.27
  -0.00224512   0.00000000  -0.00000000       -330.27      0.00     -0.00
   0.00000000  -0.00224512   0.00000000          0.00   -330.27      0.00
  -0.00000000   0.00000000  -0.00224512         -0.00      0.00   -330.27


     Writing output data file K.save/

     init_run     :      0.11s CPU      0.12s WALL (       1 calls)
     electrons    :      0.43s CPU      0.48s WALL (       1 calls)
     forces       :      0.02s CPU      0.02s WALL (       1 calls)
     stress       :      0.05s CPU      0.05s WALL (       1 calls)

     Called by init_run:
     wfcinit      :      0.02s CPU      0.02s WALL (       1 calls)
     potinit      :      0.00s CPU      0.00s WALL (       1 calls)
     hinit0       :      0.08s CPU      0.09s WALL (       1 calls)

     Called by electrons:
     c_bands      :      0.33s CPU      0.37s WALL (       7 calls)
     sum_band     :      0.08s CPU      0.08s WALL (       7 calls)
     v_of_rho     :      0.00s CPU      0.00s WALL (       7 calls)
     newd         :      0.02s CPU      0.03s WALL (       7 calls)
     mix_rho      :      0.00s CPU      0.00s WALL (       7 calls)

     Called by c_bands:
     init_us_2    :      0.01s CPU      0.01s WALL (     170 calls)
     cegterg      :      0.32s CPU      0.35s WALL (      70 calls)

     Called by sum_band:
     sum_band:bec :      0.00s CPU      0.00s WALL (      70 calls)
     addusdens    :      0.02s CPU      0.02s WALL (       7 calls)

     Called by *egterg:
     h_psi        :      0.23s CPU      0.25s WALL (     320 calls)
     s_psi        :      0.01s CPU      0.01s WALL (     320 calls)
     g_psi        :      0.00s CPU      0.00s WALL (     240 calls)
     cdiaghg      :      0.05s CPU      0.06s WALL (     300 calls)

     Called by h_psi:
     h_psi:pot    :      0.23s CPU      0.25s WALL (     320 calls)
     h_psi:calbec :      0.01s CPU      0.01s WALL (     320 calls)
     vloc_psi     :      0.21s CPU      0.23s WALL (     320 calls)
     add_vuspsi   :      0.01s CPU      0.01s WALL (     320 calls)

     General routines
     calbec       :      0.02s CPU      0.03s WALL (     440 calls)
     fft          :      0.01s CPU      0.01s WALL (      38 calls)
     ffts         :      0.00s CPU      0.00s WALL (       7 calls)
     fftw         :      0.23s CPU      0.25s WALL (    4178 calls)

     Parallel routines
     fft_scatt_xy :      0.02s CPU      0.02s WALL (    4223 calls)
     fft_scatt_yz :      0.06s CPU      0.07s WALL (    4223 calls)

     PWSCF        :     1.31s CPU         1.40s WALL


   This run was terminated on:   0:13:32   8Apr2024            

=------------------------------------------------------------------------------=
   JOB DONE.
=------------------------------------------------------------------------------=
