
     Program PWSCF v.6.3MaX starts on  8Apr2024 at  0:29:24 

     This program is part of the open-source Quantum ESPRESSO suite
     for quantum simulation of materials; please cite
         "P. Giannozzi et al., J. Phys.:Condens. Matter 21 395502 (2009);
         "P. Giannozzi et al., J. Phys.:Condens. Matter 29 465901 (2017);
          URL http://www.quantum-espresso.org", 
     in publications or presentations arising from this work. More details at
     http://www.quantum-espresso.org/quote

     Parallel version (MPI), running on     5 processors

     MPI processes distributed on     1 nodes
     R & G space division:  proc/nbgrp/npool/nimage =       5
     Waiting for input...
     Reading input from standard input

     Current dimensions of program PWSCF are:
     Max number of different atomic species (ntypx) = 10
     Max number of k-points (npk) =  40000
     Max angular momentum in pseudopotentials (lmaxx) =  3
               file K.pz-spn-kjpaw_psl.1.0.0.UPF: wavefunction(s)  3S renormalized

     Subspace diagonalization in iterative solution of the eigenvalue problem:
     a serial algorithm will be used


     Parallelization info
     --------------------
     sticks:   dense  smooth     PW     G-vecs:    dense   smooth      PW
     Min         196     196     57                 3895     3895     630
     Max         197     197     59                 3897     3897     631
     Sum         981     981    291                19477    19477    3151



     bravais-lattice index     =            3
     lattice parameter (alat)  =       9.8600  a.u.
     unit-cell volume          =     479.2926 (a.u.)^3
     number of atoms/cell      =            1
     number of atomic types    =            1
     number of electrons       =         9.00
     number of Kohn-Sham states=            9
     kinetic-energy cutoff     =      45.0000  Ry
     charge density cutoff     =     180.0000  Ry
     convergence threshold     =      1.0E-08
     mixing beta               =       0.7000
     number of iterations used =            8  plain     mixing
     Exchange-correlation      = SLA PZ NOGX NOGC ( 1  1  0  0 0 0)

     celldm(1)=   9.860000  celldm(2)=   0.000000  celldm(3)=   0.000000
     celldm(4)=   0.000000  celldm(5)=   0.000000  celldm(6)=   0.000000

     crystal axes: (cart. coord. in units of alat)
               a(1) = (   0.500000   0.500000   0.500000 )  
               a(2) = (  -0.500000   0.500000   0.500000 )  
               a(3) = (  -0.500000  -0.500000   0.500000 )  

     reciprocal axes: (cart. coord. in units 2 pi/alat)
               b(1) = (  1.000000  0.000000  1.000000 )  
               b(2) = ( -1.000000  1.000000  0.000000 )  
               b(3) = (  0.000000 -1.000000  1.000000 )  


     PseudoPot. # 1 for K  read from file:
     /home/lorenzo/pseudos/K/K.pz-spn-kjpaw_psl.1.0.0.UPF
     MD5 check sum: 59b94f4c1a6681f21e103574f2c5fc67
     Pseudo is Projector augmented-wave + core cor, Zval =  9.0
     Generated using "atomic" code by A. Dal Corso v.6.2.2
     Shape of augmentation charge: PSQ
     Using radial grid of 1165 points,  6 beta functions with: 
                l(1) =   0
                l(2) =   0
                l(3) =   1
                l(4) =   1
                l(5) =   2
                l(6) =   2
     Q(r) pseudized with 0 coefficients 


     atomic species   valence    mass     pseudopotential
        K              9.00    39.09830     K ( 1.00)

     48 Sym. Ops., with inversion, found



   Cartesian axes

     site n.     atom                  positions (alat units)
         1           K   tau(   1) = (   0.0000000   0.0000000   0.0000000  )

     number of k points=    56  gaussian smearing, width (Ry)=  0.0100
                       cart. coord. in units 2pi/alat
        k(    1) = (   0.0000000   0.0000000   0.0000000), wk =   0.0015026
        k(    2) = (   0.0000000  -0.0909091   0.0909091), wk =   0.0180316
        k(    3) = (   0.0000000  -0.1818182   0.1818182), wk =   0.0180316
        k(    4) = (   0.0000000  -0.2727273   0.2727273), wk =   0.0180316
        k(    5) = (   0.0000000  -0.3636364   0.3636364), wk =   0.0180316
        k(    6) = (   0.0000000  -0.4545455   0.4545455), wk =   0.0180316
        k(    7) = (  -0.0909091  -0.0909091   0.1818182), wk =   0.0360631
        k(    8) = (  -0.0909091  -0.1818182   0.2727273), wk =   0.0721262
        k(    9) = (  -0.0909091  -0.2727273   0.3636364), wk =   0.0721262
        k(   10) = (  -0.0909091  -0.3636364   0.4545455), wk =   0.0721262
        k(   11) = (  -0.0909091   0.5454545  -0.4545455), wk =   0.0360631
        k(   12) = (  -0.1818182  -0.1818182   0.3636364), wk =   0.0360631
        k(   13) = (  -0.1818182  -0.2727273   0.4545455), wk =   0.0721262
        k(   14) = (  -0.1818182   0.6363636  -0.4545455), wk =   0.0721262
        k(   15) = (  -0.2727273   0.7272727  -0.4545455), wk =   0.0360631
        k(   16) = (  -0.2727273   0.6363636  -0.3636364), wk =   0.0360631
        k(   17) = (   0.0000000   0.0000000   0.1818182), wk =   0.0090158
        k(   18) = (   0.0000000  -0.0909091   0.2727273), wk =   0.0360631
        k(   19) = (   0.0000000  -0.1818182   0.3636364), wk =   0.0360631
        k(   20) = (   0.0000000  -0.2727273   0.4545455), wk =   0.0360631
        k(   21) = (   0.0000000  -0.3636364   0.5454545), wk =   0.0360631
        k(   22) = (  -0.0909091  -0.0909091   0.3636364), wk =   0.0360631
        k(   23) = (  -0.0909091  -0.1818182   0.4545455), wk =   0.0721262
        k(   24) = (  -0.0909091  -0.2727273   0.5454545), wk =   0.0721262
        k(   25) = (  -0.0909091   0.6363636  -0.3636364), wk =   0.0360631
        k(   26) = (  -0.1818182   0.1818182   0.1818182), wk =   0.0120210
        k(   27) = (  -0.1818182  -0.1818182   0.5454545), wk =   0.0360631
        k(   28) = (  -0.1818182   0.7272727  -0.3636364), wk =   0.0721262
        k(   29) = (  -0.2727273   0.2727273   0.1818182), wk =   0.0360631
        k(   30) = (  -0.2727273   0.7272727  -0.2727273), wk =   0.0120210
        k(   31) = (  -0.3636364   0.3636364   0.1818182), wk =   0.0360631
        k(   32) = (  -0.3636364   0.2727273   0.2727273), wk =   0.0360631
        k(   33) = (   0.5454545  -0.5454545   0.1818182), wk =   0.0360631
        k(   34) = (   0.5454545  -0.6363636   0.2727273), wk =   0.0721262
        k(   35) = (   0.4545455  -0.5454545   0.2727273), wk =   0.0360631
        k(   36) = (   0.4545455  -0.6363636   0.3636364), wk =   0.0360631
        k(   37) = (   0.0000000   0.0000000   0.3636364), wk =   0.0090158
        k(   38) = (   0.0000000  -0.0909091   0.4545455), wk =   0.0360631
        k(   39) = (   0.0000000  -0.1818182   0.5454545), wk =   0.0360631
        k(   40) = (   0.0000000  -0.2727273   0.6363636), wk =   0.0360631
        k(   41) = (  -0.0909091  -0.0909091   0.5454545), wk =   0.0360631
        k(   42) = (  -0.0909091  -0.1818182   0.6363636), wk =   0.0721262
        k(   43) = (  -0.0909091   0.7272727  -0.2727273), wk =   0.0360631
        k(   44) = (  -0.1818182   0.8181818  -0.2727273), wk =   0.0360631
        k(   45) = (   0.6363636  -0.6363636   0.3636364), wk =   0.0120210
        k(   46) = (   0.5454545  -0.5454545   0.3636364), wk =   0.0360631
        k(   47) = (   0.4545455  -0.5454545   0.4545455), wk =   0.0120210
        k(   48) = (   0.0000000   0.0000000   0.5454545), wk =   0.0090158
        k(   49) = (   0.0000000  -0.0909091   0.6363636), wk =   0.0360631
        k(   50) = (   0.0000000  -0.1818182   0.7272727), wk =   0.0360631
        k(   51) = (  -0.0909091  -0.0909091   0.7272727), wk =   0.0360631
        k(   52) = (  -0.0909091   0.8181818  -0.1818182), wk =   0.0360631
        k(   53) = (   0.0000000   0.0000000   0.7272727), wk =   0.0090158
        k(   54) = (   0.0000000  -0.0909091   0.8181818), wk =   0.0360631
        k(   55) = (  -0.0909091   0.9090909  -0.0909091), wk =   0.0120210
        k(   56) = (   0.0000000   0.0000000   0.9090909), wk =   0.0090158

     Dense  grid:    19477 G-vectors     FFT dimensions: (  40,  40,  40)

     Estimated max dynamical RAM per process >      20.09 MB

     Estimated total dynamical RAM >     100.47 MB

     Check: negative/imaginary core charge=   -0.000011    0.000000

     Initial potential from superposition of free atoms

     starting charge    8.98437, renormalised to    9.00000
     Starting wfcs are    8 randomized atomic wfcs +    1 random wfcs
     Checking if some PAW data can be deallocated... 

     total cpu time spent up to now is        1.5 secs

     Self-consistent Calculation

     iteration #  1     ecut=    45.00 Ry     beta= 0.70
     Davidson diagonalization with overlap
     ethr =  1.00E-02,  avg # of iterations =  6.4

     Threshold (ethr) on eigenvalues was too large:
     Diagonalizing with lowered threshold

     Davidson diagonalization with overlap
     ethr =  1.23E-05,  avg # of iterations =  6.5

     total cpu time spent up to now is        5.7 secs

     total energy              =    -109.87083194 Ry
     Harris-Foulkes estimate   =    -109.87138627 Ry
     estimated scf accuracy    <       0.00111433 Ry

     iteration #  2     ecut=    45.00 Ry     beta= 0.70
     Davidson diagonalization with overlap
     ethr =  1.24E-05,  avg # of iterations =  2.0

     total cpu time spent up to now is        7.1 secs

     total energy              =    -109.87101636 Ry
     Harris-Foulkes estimate   =    -109.87104130 Ry
     estimated scf accuracy    <       0.00008785 Ry

     iteration #  3     ecut=    45.00 Ry     beta= 0.70
     Davidson diagonalization with overlap
     ethr =  9.76E-07,  avg # of iterations =  2.1

     total cpu time spent up to now is        8.3 secs

     total energy              =    -109.87102771 Ry
     Harris-Foulkes estimate   =    -109.87102745 Ry
     estimated scf accuracy    <       0.00000594 Ry

     iteration #  4     ecut=    45.00 Ry     beta= 0.70
     Davidson diagonalization with overlap
     ethr =  6.60E-08,  avg # of iterations =  1.5

     total cpu time spent up to now is        9.4 secs

     total energy              =    -109.87102838 Ry
     Harris-Foulkes estimate   =    -109.87102837 Ry
     estimated scf accuracy    <       0.00000004 Ry

     iteration #  5     ecut=    45.00 Ry     beta= 0.70
     Davidson diagonalization with overlap
     ethr =  4.68E-10,  avg # of iterations =  2.5

     total cpu time spent up to now is       10.7 secs

     End of self-consistent calculation

          k = 0.0000 0.0000 0.0000 (  2491 PWs)   bands (ev):

   -30.0982 -13.7358 -13.7358 -13.7358  -0.4765   5.9296   5.9296   5.9296
     6.8755

          k = 0.0000-0.0909 0.0909 (  2447 PWs)   bands (ev):

   -30.0977 -13.7421 -13.7379 -13.7357  -0.3702   5.7880   5.8043   6.0146
     6.7102

          k = 0.0000-0.1818 0.1818 (  2443 PWs)   bands (ev):

   -30.0966 -13.7593 -13.7436 -13.7356  -0.0573   5.2390   5.5177   6.2664
     6.6334

          k = 0.0000-0.2727 0.2727 (  2449 PWs)   bands (ev):

   -30.0951 -13.7817 -13.7511 -13.7356   0.4440   4.4578   5.2129   6.6755
     6.7017

          k = 0.0000-0.3636 0.3636 (  2435 PWs)   bands (ev):

   -30.0938 -13.8019 -13.7579 -13.7355   1.1026   3.6200   4.9773   6.6790
     7.0328

          k = 0.0000-0.4545 0.4545 (  2430 PWs)   bands (ev):

   -30.0930 -13.8139 -13.7620 -13.7355   1.8627   2.7790   4.8518   6.5562
     7.2840

          k =-0.0909-0.0909 0.1818 (  2440 PWs)   bands (ev):

   -30.0969 -13.7540 -13.7401 -13.7372  -0.1605   5.4778   5.5571   6.1752
     6.5395

          k =-0.0909-0.1818 0.2727 (  2440 PWs)   bands (ev):

   -30.0956 -13.7729 -13.7470 -13.7378   0.2470   4.8432   5.2244   6.4701
     6.5255

          k =-0.0909-0.2727 0.3636 (  2437 PWs)   bands (ev):

   -30.0943 -13.7928 -13.7553 -13.7379   0.8287   4.0626   4.9486   6.5547
     6.8836

          k =-0.0909-0.3636 0.4545 (  2439 PWs)   bands (ev):

   -30.0932 -13.8078 -13.7619 -13.7380   1.5461   3.2367   4.7698   6.4625
     7.1883

          k =-0.0909 0.5455-0.4545 (  2442 PWs)   bands (ev):

   -30.0928 -13.8133 -13.7643 -13.7380   2.2260   2.5234   4.7081   6.3754
     7.3347

          k =-0.1818-0.1818 0.3636 (  2437 PWs)   bands (ev):

   -30.0944 -13.7881 -13.7536 -13.7409   0.7361   4.3700   4.7836   6.5366
     6.6707

          k =-0.1818-0.2727 0.4545 (  2439 PWs)   bands (ev):

   -30.0933 -13.8001 -13.7631 -13.7422   1.3815   3.7288   4.4602   6.4865
     6.8024

          k =-0.1818 0.6364-0.4545 (  2438 PWs)   bands (ev):

   -30.0926 -13.8064 -13.7699 -13.7426   2.1360   2.9613   4.3051   6.2767
     7.0819

          k =-0.2727 0.7273-0.4545 (  2442 PWs)   bands (ev):

   -30.0926 -13.8007 -13.7749 -13.7446   2.0678   3.4208   3.8728   6.3496
     6.7915

          k =-0.2727 0.6364-0.3636 (  2453 PWs)   bands (ev):

   -30.0924 -13.7980 -13.7824 -13.7453   2.8106   2.8293   3.6397   6.2474
     6.9754

          k = 0.0000 0.0000 0.1818 (  2431 PWs)   bands (ev):

   -30.0972 -13.7439 -13.7400 -13.7400  -0.2647   5.7386   5.7386   6.0526
     6.3068

          k = 0.0000-0.0909 0.2727 (  2443 PWs)   bands (ev):

   -30.0962 -13.7594 -13.7458 -13.7409   0.0455   5.2730   5.5016   6.0816
     6.2776

          k = 0.0000-0.1818 0.3636 (  2444 PWs)   bands (ev):

   -30.0948 -13.7809 -13.7534 -13.7407   0.5427   4.4967   5.2242   6.1233
     6.6760

          k = 0.0000-0.2727 0.4545 (  2429 PWs)   bands (ev):

   -30.0934 -13.8005 -13.7603 -13.7404   1.1965   3.6723   5.0043   6.1313
     7.1779

          k = 0.0000-0.3636 0.5455 (  2443 PWs)   bands (ev):

   -30.0927 -13.8122 -13.7644 -13.7402   1.9554   2.8388   4.8858   6.0483
     7.2170

          k =-0.0909-0.0909 0.3636 (  2444 PWs)   bands (ev):

   -30.0950 -13.7740 -13.7523 -13.7446   0.4460   4.8103   5.2045   5.9527
     6.5339

          k =-0.0909-0.1818 0.4545 (  2445 PWs)   bands (ev):

   -30.0936 -13.7915 -13.7608 -13.7453   1.0179   4.1251   4.9027   6.0157
     6.8524

          k =-0.0909-0.2727 0.5455 (  2450 PWs)   bands (ev):

   -30.0926 -13.8050 -13.7676 -13.7452   1.7248   3.3485   4.7026   5.9702
     6.9685

          k =-0.0909 0.6364-0.3636 (  2446 PWs)   bands (ev):

   -30.0922 -13.8100 -13.7701 -13.7452   2.4388   2.6120   4.6312   5.9035
     7.0924

          k =-0.1818 0.1818 0.1818 (  2424 PWs)   bands (ev):

   -30.0959 -13.7703 -13.7404 -13.7404   0.1467   5.0946   5.0946   6.3985
     6.8304

          k =-0.1818-0.1818 0.5455 (  2450 PWs)   bands (ev):

   -30.0926 -13.7994 -13.7713 -13.7474   1.6451   3.7304   4.3584   6.1933
     6.6410

          k =-0.1818 0.7273-0.3636 (  2458 PWs)   bands (ev):

   -30.0920 -13.8026 -13.7799 -13.7480   2.3794   3.1360   4.0206   6.2272
     6.7655

          k =-0.2727 0.2727 0.1818 (  2431 PWs)   bands (ev):

   -30.0947 -13.7872 -13.7489 -13.7409   0.6403   4.4424   4.7729   6.6029
     6.8906

          k =-0.2727 0.7273-0.2727 (  2469 PWs)   bands (ev):

   -30.0918 -13.7933 -13.7933 -13.7486   2.9987   2.9987   3.4320   6.6467
     6.8082

          k =-0.3636 0.3636 0.1818 (  2435 PWs)   bands (ev):

   -30.0936 -13.8006 -13.7587 -13.7413   1.2910   3.6970   4.5487   6.5150
     7.0905

          k =-0.3636 0.2727 0.2727 (  2421 PWs)   bands (ev):

   -30.0937 -13.7970 -13.7553 -13.7456   1.2046   4.0399   4.3119   6.4078
     7.0043

          k = 0.5455-0.5455 0.1818 (  2442 PWs)   bands (ev):

   -30.0929 -13.8079 -13.7652 -13.7415   2.0488   2.9000   4.4343   6.2837
     7.3134

          k = 0.5455-0.6364 0.2727 (  2436 PWs)   bands (ev):

   -30.0930 -13.8007 -13.7660 -13.7473   1.9036   3.4308   4.0679   6.0047
     7.1348

          k = 0.4545-0.5455 0.2727 (  2431 PWs)   bands (ev):

   -30.0927 -13.8007 -13.7715 -13.7478   2.6394   2.7165   3.9972   5.8267
     7.2352

          k = 0.4545-0.6364 0.3636 (  2431 PWs)   bands (ev):

   -30.0926 -13.7934 -13.7781 -13.7506   2.6111   3.2153   3.5258   5.6328
     7.2180

          k = 0.0000 0.0000 0.3636 (  2443 PWs)   bands (ev):

   -30.0952 -13.7629 -13.7518 -13.7518   0.3480   5.2973   5.4057   5.4057
     6.4055

          k = 0.0000-0.0909 0.4545 (  2449 PWs)   bands (ev):

   -30.0938 -13.7794 -13.7596 -13.7539   0.8323   4.5678   5.2332   5.4878
     6.7307

          k = 0.0000-0.1818 0.5455 (  2453 PWs)   bands (ev):

   -30.0926 -13.7970 -13.7667 -13.7533   1.4688   3.8074   5.0707   5.4789
     6.7972

          k = 0.0000-0.2727 0.6364 (  2446 PWs)   bands (ev):

   -30.0918 -13.8075 -13.7710 -13.7527   2.2135   3.0188   4.9774   5.3527
     6.8524

          k =-0.0909-0.0909 0.5455 (  2455 PWs)   bands (ev):

   -30.0926 -13.7904 -13.7687 -13.7577   1.3821   4.1222   4.8963   5.5678
     6.5947

          k =-0.0909-0.1818 0.6364 (  2452 PWs)   bands (ev):

   -30.0916 -13.8005 -13.7765 -13.7578   2.0585   3.5271   4.5585   5.6488
     6.4911

          k =-0.0909 0.7273-0.2727 (  2458 PWs)   bands (ev):

   -30.0913 -13.8045 -13.7795 -13.7576   2.7871   2.8220   4.4326   5.6231
     6.6234

          k =-0.1818 0.8182-0.2727 (  2458 PWs)   bands (ev):

   -30.0910 -13.7987 -13.7882 -13.7585   2.7253   3.2731   3.9163   6.0348
     6.3389

          k = 0.6364-0.6364 0.3636 (  2430 PWs)   bands (ev):

   -30.0931 -13.7983 -13.7569 -13.7569   1.8238   3.8225   3.8225   5.7670
     7.2878

          k = 0.5455-0.5455 0.3636 (  2423 PWs)   bands (ev):

   -30.0927 -13.7930 -13.7697 -13.7579   2.5381   3.2432   3.7151   5.2801
     7.3419

          k = 0.4545-0.5455 0.4545 (  2424 PWs)   bands (ev):

   -30.0926 -13.7800 -13.7800 -13.7632   3.1139   3.1139   3.3710   4.9435
     7.4118

          k = 0.0000 0.0000 0.5455 (  2454 PWs)   bands (ev):

   -30.0926 -13.7809 -13.7677 -13.7677   1.2931   4.4003   5.2017   5.2017
     6.4682

          k = 0.0000-0.0909 0.6364 (  2448 PWs)   bands (ev):

   -30.0914 -13.7925 -13.7751 -13.7698   1.8922   3.9047   5.1163   5.1414
     6.1272

          k = 0.0000-0.1818 0.7273 (  2454 PWs)   bands (ev):

   -30.0907 -13.8015 -13.7795 -13.7689   2.5773   3.2877   4.8822   5.0967
     6.2867

          k =-0.0909-0.0909 0.7273 (  2451 PWs)   bands (ev):

   -30.0905 -13.7967 -13.7842 -13.7722   2.4991   3.5891   4.6016   5.4598
     5.9456

          k =-0.0909 0.8182-0.1818 (  2451 PWs)   bands (ev):

   -30.0902 -13.7984 -13.7886 -13.7720   3.0356   3.2078   4.3378   5.5546
     6.0329

          k = 0.0000 0.0000 0.7273 (  2446 PWs)   bands (ev):

   -30.0903 -13.7904 -13.7828 -13.7828   2.4196   3.7665   5.1868   5.1868
     5.4934

          k = 0.0000-0.0909 0.8182 (  2451 PWs)   bands (ev):

   -30.0897 -13.7960 -13.7873 -13.7836   2.9663   3.4681   4.8681   5.2043
     5.6823

          k =-0.0909 0.9091-0.0909 (  2451 PWs)   bands (ev):

   -30.0894 -13.7937 -13.7937 -13.7847   3.3049   3.3049   4.7174   5.5007
     5.5007

          k = 0.0000 0.0000 0.9091 (  2450 PWs)   bands (ev):

   -30.0891 -13.7930 -13.7920 -13.7920   3.2841   3.4422   5.2329   5.2665
     5.2665

     the Fermi energy is     1.7634 ev

!    total energy              =    -109.87102839 Ry
     Harris-Foulkes estimate   =    -109.87102840 Ry
     estimated scf accuracy    <          3.6E-09 Ry

     total all-electron energy =     -1201.196028 Ry

     The total energy is the sum of the following terms:

     one-electron contribution =     -35.36626429 Ry
     hartree contribution      =      18.82442862 Ry
     xc contribution           =     -11.01712236 Ry
     ewald contribution        =     -29.89633975 Ry
     one-center paw contrib.   =     -52.41529082 Ry
     smearing contrib. (-TS)   =      -0.00043979 Ry

     convergence has been achieved in   5 iterations

     Forces acting on atoms (cartesian axes, Ry/au):

     atom    1 type  1   force =     0.00000000    0.00000000    0.00000000

     Total force =     0.000000     Total SCF correction =     0.000000


     Computing stress (Cartesian axis) and pressure

          total   stress  (Ry/bohr**3)                   (kbar)     P=   -4.93
  -0.00003349   0.00000000  -0.00000000         -4.93      0.00     -0.00
   0.00000000  -0.00003349   0.00000000          0.00     -4.93      0.00
  -0.00000000   0.00000000  -0.00003349         -0.00      0.00     -4.93


     Writing output data file K.save/

     init_run     :      0.66s CPU      0.70s WALL (       1 calls)
     electrons    :      8.70s CPU      9.18s WALL (       1 calls)
     forces       :      0.12s CPU      0.12s WALL (       1 calls)
     stress       :      0.48s CPU      0.48s WALL (       1 calls)

     Called by init_run:
     wfcinit      :      0.40s CPU      0.43s WALL (       1 calls)
     potinit      :      0.07s CPU      0.07s WALL (       1 calls)
     hinit0       :      0.16s CPU      0.16s WALL (       1 calls)

     Called by electrons:
     c_bands      :      7.17s CPU      7.57s WALL (       6 calls)
     sum_band     :      1.21s CPU      1.28s WALL (       6 calls)
     v_of_rho     :      0.02s CPU      0.02s WALL (       6 calls)
     newd         :      0.11s CPU      0.12s WALL (       6 calls)
     PAW_pot      :      0.25s CPU      0.25s WALL (       6 calls)
     mix_rho      :      0.00s CPU      0.00s WALL (       6 calls)

     Called by c_bands:
     init_us_2    :      0.24s CPU      0.25s WALL (     840 calls)
     cegterg      :      6.87s CPU      7.26s WALL (     336 calls)

     Called by sum_band:
     sum_band:bec :      0.00s CPU      0.00s WALL (     336 calls)
     addusdens    :      0.11s CPU      0.11s WALL (       6 calls)

     Called by *egterg:
     h_psi        :      5.66s CPU      6.02s WALL (    1570 calls)
     s_psi        :      0.17s CPU      0.18s WALL (    1570 calls)
     g_psi        :      0.02s CPU      0.02s WALL (    1178 calls)
     cdiaghg      :      0.36s CPU      0.38s WALL (    1458 calls)

     Called by h_psi:
     h_psi:pot    :      5.63s CPU      5.99s WALL (    1570 calls)
     h_psi:calbec :      0.30s CPU      0.32s WALL (    1570 calls)
     vloc_psi     :      5.13s CPU      5.46s WALL (    1570 calls)
     add_vuspsi   :      0.19s CPU      0.20s WALL (    1570 calls)

     General routines
     calbec       :      0.47s CPU      0.50s WALL (    2186 calls)
     fft          :      0.02s CPU      0.02s WALL (      34 calls)
     ffts         :      0.00s CPU      0.00s WALL (       6 calls)
     fftw         :      5.61s CPU      5.97s WALL (   21246 calls)

     Parallel routines
     fft_scatt_xy :      0.44s CPU      0.47s WALL (   21286 calls)
     fft_scatt_yz :      1.54s CPU      1.64s WALL (   21286 calls)

     PWSCF        :    10.81s CPU        11.43s WALL


   This run was terminated on:   0:29:36   8Apr2024            

=------------------------------------------------------------------------------=
   JOB DONE.
=------------------------------------------------------------------------------=
