
     Program PWSCF v.6.3MaX starts on  8Apr2024 at  0:30:16 

     This program is part of the open-source Quantum ESPRESSO suite
     for quantum simulation of materials; please cite
         "P. Giannozzi et al., J. Phys.:Condens. Matter 21 395502 (2009);
         "P. Giannozzi et al., J. Phys.:Condens. Matter 29 465901 (2017);
          URL http://www.quantum-espresso.org", 
     in publications or presentations arising from this work. More details at
     http://www.quantum-espresso.org/quote

     Parallel version (MPI), running on     5 processors

     MPI processes distributed on     1 nodes
     R & G space division:  proc/nbgrp/npool/nimage =       5
     Waiting for input...
     Reading input from standard input

     Current dimensions of program PWSCF are:
     Max number of different atomic species (ntypx) = 10
     Max number of k-points (npk) =  40000
     Max angular momentum in pseudopotentials (lmaxx) =  3
               file K.pbe-spn-kjpaw_psl.1.0.0.UPF: wavefunction(s)  3S renormalized

     Subspace diagonalization in iterative solution of the eigenvalue problem:
     a serial algorithm will be used


     Parallelization info
     --------------------
     sticks:   dense  smooth     PW     G-vecs:    dense   smooth      PW
     Min         196     196     57                 3895     3895     630
     Max         197     197     59                 3897     3897     631
     Sum         981     981    291                19477    19477    3151



     bravais-lattice index     =            3
     lattice parameter (alat)  =       9.8600  a.u.
     unit-cell volume          =     479.2926 (a.u.)^3
     number of atoms/cell      =            1
     number of atomic types    =            1
     number of electrons       =         9.00
     number of Kohn-Sham states=            9
     kinetic-energy cutoff     =      45.0000  Ry
     charge density cutoff     =     180.0000  Ry
     convergence threshold     =      1.0E-08
     mixing beta               =       0.7000
     number of iterations used =            8  plain     mixing
     Exchange-correlation      = SLA PW PBX PBC ( 1  4  3  4 0 0)

     celldm(1)=   9.860000  celldm(2)=   0.000000  celldm(3)=   0.000000
     celldm(4)=   0.000000  celldm(5)=   0.000000  celldm(6)=   0.000000

     crystal axes: (cart. coord. in units of alat)
               a(1) = (   0.500000   0.500000   0.500000 )  
               a(2) = (  -0.500000   0.500000   0.500000 )  
               a(3) = (  -0.500000  -0.500000   0.500000 )  

     reciprocal axes: (cart. coord. in units 2 pi/alat)
               b(1) = (  1.000000  0.000000  1.000000 )  
               b(2) = ( -1.000000  1.000000  0.000000 )  
               b(3) = (  0.000000 -1.000000  1.000000 )  


     PseudoPot. # 1 for K  read from file:
     /home/lorenzo/pseudos/K/K.pbe-spn-kjpaw_psl.1.0.0.UPF
     MD5 check sum: 34cc42130a09071ebe376fd42eb21491
     Pseudo is Projector augmented-wave + core cor, Zval =  9.0
     Generated using "atomic" code by A. Dal Corso v.6.2.2
     Shape of augmentation charge: PSQ
     Using radial grid of 1165 points,  6 beta functions with: 
                l(1) =   0
                l(2) =   0
                l(3) =   1
                l(4) =   1
                l(5) =   2
                l(6) =   2
     Q(r) pseudized with 0 coefficients 


     atomic species   valence    mass     pseudopotential
        K              9.00    39.09830     K ( 1.00)

     48 Sym. Ops., with inversion, found



   Cartesian axes

     site n.     atom                  positions (alat units)
         1           K   tau(   1) = (   0.0000000   0.0000000   0.0000000  )

     number of k points=     8  gaussian smearing, width (Ry)=  0.0100
                       cart. coord. in units 2pi/alat
        k(    1) = (   0.0000000   0.0000000   0.0000000), wk =   0.0312500
        k(    2) = (   0.0000000  -0.2500000   0.2500000), wk =   0.3750000
        k(    3) = (   0.0000000   0.5000000  -0.5000000), wk =   0.1875000
        k(    4) = (  -0.2500000   0.7500000  -0.5000000), wk =   0.7500000
        k(    5) = (   0.0000000   0.0000000   0.5000000), wk =   0.1875000
        k(    6) = (   0.0000000   0.7500000  -0.2500000), wk =   0.3750000
        k(    7) = (   0.5000000  -0.5000000   0.5000000), wk =   0.0625000
        k(    8) = (   0.0000000   0.0000000  -1.0000000), wk =   0.0312500

     Dense  grid:    19477 G-vectors     FFT dimensions: (  40,  40,  40)

     Estimated max dynamical RAM per process >      16.88 MB

     Estimated total dynamical RAM >      84.39 MB

     Check: negative/imaginary core charge=   -0.000010    0.000000

     Initial potential from superposition of free atoms

     starting charge    8.98117, renormalised to    9.00000
     Starting wfcs are    8 randomized atomic wfcs +    1 random wfcs
     Checking if some PAW data can be deallocated... 

     total cpu time spent up to now is        1.2 secs

     Self-consistent Calculation

     iteration #  1     ecut=    45.00 Ry     beta= 0.70
     Davidson diagonalization with overlap
     ethr =  1.00E-02,  avg # of iterations =  7.1

     Threshold (ethr) on eigenvalues was too large:
     Diagonalizing with lowered threshold

     Davidson diagonalization with overlap
     ethr =  1.45E-05,  avg # of iterations =  6.2

     total cpu time spent up to now is        2.0 secs

     total energy              =    -113.00604684 Ry
     Harris-Foulkes estimate   =    -113.00652754 Ry
     estimated scf accuracy    <       0.00125519 Ry

     iteration #  2     ecut=    45.00 Ry     beta= 0.70
     Davidson diagonalization with overlap
     ethr =  1.39E-05,  avg # of iterations =  2.1

     total cpu time spent up to now is        2.4 secs

     total energy              =    -113.00626213 Ry
     Harris-Foulkes estimate   =    -113.00626878 Ry
     estimated scf accuracy    <       0.00009974 Ry

     iteration #  3     ecut=    45.00 Ry     beta= 0.70
     Davidson diagonalization with overlap
     ethr =  1.11E-06,  avg # of iterations =  2.2

     total cpu time spent up to now is        2.7 secs

     total energy              =    -113.00627416 Ry
     Harris-Foulkes estimate   =    -113.00627178 Ry
     estimated scf accuracy    <       0.00000683 Ry

     iteration #  4     ecut=    45.00 Ry     beta= 0.70
     Davidson diagonalization with overlap
     ethr =  7.59E-08,  avg # of iterations =  2.4

     total cpu time spent up to now is        3.1 secs

     total energy              =    -113.00627481 Ry
     Harris-Foulkes estimate   =    -113.00627482 Ry
     estimated scf accuracy    <       0.00000006 Ry

     iteration #  5     ecut=    45.00 Ry     beta= 0.70
     Davidson diagonalization with overlap
     ethr =  6.20E-10,  avg # of iterations =  2.2

     total cpu time spent up to now is        3.5 secs

     End of self-consistent calculation

          k = 0.0000 0.0000 0.0000 (  2491 PWs)   bands (ev):

   -30.1631 -13.6111 -13.6111 -13.6111  -0.2598   6.2657   6.2657   6.2657
     7.1835

          k = 0.0000-0.2500 0.2500 (  2445 PWs)   bands (ev):

   -30.1606 -13.6496 -13.6239 -13.6109   0.5151   4.9056   5.5860   6.8921
     7.0065

          k = 0.0000 0.5000-0.5000 (  2422 PWs)   bands (ev):

   -30.1581 -13.6874 -13.6366 -13.6108   2.3909   2.6507   5.1224   6.8732
     7.9915

          k =-0.2500 0.7500-0.5000 (  2438 PWs)   bands (ev):

   -30.1582 -13.6734 -13.6429 -13.6188   1.9128   3.8338   4.3677   6.7991
     7.0284

          k = 0.0000 0.0000 0.5000 (  2459 PWs)   bands (ev):

   -30.1585 -13.6506 -13.6377 -13.6377   1.2388   4.8195   5.5089   5.5089
     7.0921

          k = 0.0000 0.7500-0.2500 (  2458 PWs)   bands (ev):

   -30.1563 -13.6768 -13.6514 -13.6387   2.9914   3.1130   5.2020   5.3201
     6.7738

          k = 0.5000-0.5000 0.5000 (  2448 PWs)   bands (ev):

   -30.1579 -13.6482 -13.6482 -13.6482   3.4291   3.4291   3.4291   5.1287
     7.7861

          k = 0.0000 0.0000-1.0000 (  2454 PWs)   bands (ev):

   -30.1544 -13.6660 -13.6660 -13.6660   3.6009   3.6010   5.5137   5.5137
     5.5137

     the Fermi energy is     1.9229 ev

!    total energy              =    -113.00627483 Ry
     Harris-Foulkes estimate   =    -113.00627483 Ry
     estimated scf accuracy    <          1.6E-09 Ry

     total all-electron energy =     -1204.244985 Ry

     The total energy is the sum of the following terms:

     one-electron contribution =     -35.39629301 Ry
     hartree contribution      =      18.88004251 Ry
     xc contribution           =     -11.17076684 Ry
     ewald contribution        =     -29.89633975 Ry
     one-center paw contrib.   =     -55.42081357 Ry
     smearing contrib. (-TS)   =      -0.00210416 Ry

     convergence has been achieved in   5 iterations

     Forces acting on atoms (cartesian axes, Ry/au):

     atom    1 type  1   force =     0.00000000    0.00000000    0.00000000

     Total force =     0.000000     Total SCF correction =     0.000000


     Computing stress (Cartesian axis) and pressure

          total   stress  (Ry/bohr**3)                   (kbar)     P=    1.43
   0.00000971  -0.00000000   0.00000000          1.43     -0.00      0.00
  -0.00000000   0.00000971  -0.00000000         -0.00      1.43     -0.00
   0.00000000   0.00000000   0.00000971          0.00      0.00      1.43


     Writing output data file K.save/

     init_run     :      0.42s CPU      0.44s WALL (       1 calls)
     electrons    :      2.25s CPU      2.33s WALL (       1 calls)
     forces       :      0.12s CPU      0.12s WALL (       1 calls)
     stress       :      0.27s CPU      0.27s WALL (       1 calls)

     Called by init_run:
     wfcinit      :      0.06s CPU      0.06s WALL (       1 calls)
     potinit      :      0.13s CPU      0.15s WALL (       1 calls)
     hinit0       :      0.16s CPU      0.17s WALL (       1 calls)

     Called by electrons:
     c_bands      :      1.07s CPU      1.12s WALL (       6 calls)
     sum_band     :      0.38s CPU      0.39s WALL (       6 calls)
     v_of_rho     :      0.08s CPU      0.08s WALL (       6 calls)
     newd         :      0.15s CPU      0.15s WALL (       6 calls)
     PAW_pot      :      0.71s CPU      0.73s WALL (       6 calls)
     mix_rho      :      0.01s CPU      0.01s WALL (       6 calls)

     Called by c_bands:
     init_us_2    :      0.04s CPU      0.04s WALL (     120 calls)
     cegterg      :      1.02s CPU      1.07s WALL (      48 calls)

     Called by sum_band:
     sum_band:bec :      0.00s CPU      0.00s WALL (      48 calls)
     addusdens    :      0.15s CPU      0.16s WALL (       6 calls)

     Called by *egterg:
     h_psi        :      0.85s CPU      0.89s WALL (     235 calls)
     s_psi        :      0.03s CPU      0.03s WALL (     235 calls)
     g_psi        :      0.00s CPU      0.00s WALL (     179 calls)
     cdiaghg      :      0.05s CPU      0.06s WALL (     219 calls)

     Called by h_psi:
     h_psi:pot    :      0.85s CPU      0.89s WALL (     235 calls)
     h_psi:calbec :      0.05s CPU      0.05s WALL (     235 calls)
     vloc_psi     :      0.77s CPU      0.81s WALL (     235 calls)
     add_vuspsi   :      0.03s CPU      0.03s WALL (     235 calls)

     General routines
     calbec       :      0.08s CPU      0.08s WALL (     323 calls)
     fft          :      0.09s CPU      0.10s WALL (      93 calls)
     ffts         :      0.00s CPU      0.00s WALL (       6 calls)
     fftw         :      0.84s CPU      0.89s WALL (    2944 calls)

     Parallel routines
     fft_scatt_xy :      0.07s CPU      0.07s WALL (    3043 calls)
     fft_scatt_yz :      0.32s CPU      0.33s WALL (    3043 calls)

     PWSCF        :     3.89s CPU         4.06s WALL


   This run was terminated on:   0:30:20   8Apr2024            

=------------------------------------------------------------------------------=
   JOB DONE.
=------------------------------------------------------------------------------=
