
     Program PWSCF v.6.3MaX starts on  8Apr2024 at  0:12:33 

     This program is part of the open-source Quantum ESPRESSO suite
     for quantum simulation of materials; please cite
         "P. Giannozzi et al., J. Phys.:Condens. Matter 21 395502 (2009);
         "P. Giannozzi et al., J. Phys.:Condens. Matter 29 465901 (2017);
          URL http://www.quantum-espresso.org", 
     in publications or presentations arising from this work. More details at
     http://www.quantum-espresso.org/quote

     Parallel version (MPI), running on     5 processors

     MPI processes distributed on     1 nodes
     R & G space division:  proc/nbgrp/npool/nimage =       5
     Waiting for input...
     Reading input from standard input

     Current dimensions of program PWSCF are:
     Max number of different atomic species (ntypx) = 10
     Max number of k-points (npk) =  40000
     Max angular momentum in pseudopotentials (lmaxx) =  3
               file K.pbe-spn-rrkjus_psl.1.0.0.UPF: wavefunction(s)  3S renormalized

     Subspace diagonalization in iterative solution of the eigenvalue problem:
     a serial algorithm will be used


     Parallelization info
     --------------------
     sticks:   dense  smooth     PW     G-vecs:    dense   smooth      PW
     Min          66      66     20                  756      756     136
     Max          67      67     21                  757      757     137
     Sum         333     333    103                 3781     3781     683



     bravais-lattice index     =            3
     lattice parameter (alat)  =       9.8600  a.u.
     unit-cell volume          =     479.2926 (a.u.)^3
     number of atoms/cell      =            1
     number of atomic types    =            1
     number of electrons       =         9.00
     number of Kohn-Sham states=            9
     kinetic-energy cutoff     =      15.0000  Ry
     charge density cutoff     =      60.0000  Ry
     convergence threshold     =      1.0E-08
     mixing beta               =       0.7000
     number of iterations used =            8  plain     mixing
     Exchange-correlation      = PBE ( 1  4  3  4 0 0)

     celldm(1)=   9.860000  celldm(2)=   0.000000  celldm(3)=   0.000000
     celldm(4)=   0.000000  celldm(5)=   0.000000  celldm(6)=   0.000000

     crystal axes: (cart. coord. in units of alat)
               a(1) = (   0.500000   0.500000   0.500000 )  
               a(2) = (  -0.500000   0.500000   0.500000 )  
               a(3) = (  -0.500000  -0.500000   0.500000 )  

     reciprocal axes: (cart. coord. in units 2 pi/alat)
               b(1) = (  1.000000  0.000000  1.000000 )  
               b(2) = ( -1.000000  1.000000  0.000000 )  
               b(3) = (  0.000000 -1.000000  1.000000 )  


     PseudoPot. # 1 for K  read from file:
     /home/lorenzo/pseudos/K/K.pbe-spn-rrkjus_psl.1.0.0.UPF
     MD5 check sum: 897b700350bb708b0563e904352feb48
     Pseudo is Ultrasoft + core correction, Zval =  9.0
     Generated using "atomic" code by A. Dal Corso v.6.2.2
     Using radial grid of 1165 points,  6 beta functions with: 
                l(1) =   0
                l(2) =   0
                l(3) =   1
                l(4) =   1
                l(5) =   2
                l(6) =   2
     Q(r) pseudized with 0 coefficients 


     atomic species   valence    mass     pseudopotential
        K              9.00    39.09830     K ( 1.00)

     48 Sym. Ops., with inversion, found



   Cartesian axes

     site n.     atom                  positions (alat units)
         1           K   tau(   1) = (   0.0000000   0.0000000   0.0000000  )

     number of k points=    56  gaussian smearing, width (Ry)=  0.0100
                       cart. coord. in units 2pi/alat
        k(    1) = (   0.0000000   0.0000000   0.0000000), wk =   0.0015026
        k(    2) = (   0.0000000  -0.0909091   0.0909091), wk =   0.0180316
        k(    3) = (   0.0000000  -0.1818182   0.1818182), wk =   0.0180316
        k(    4) = (   0.0000000  -0.2727273   0.2727273), wk =   0.0180316
        k(    5) = (   0.0000000  -0.3636364   0.3636364), wk =   0.0180316
        k(    6) = (   0.0000000  -0.4545455   0.4545455), wk =   0.0180316
        k(    7) = (  -0.0909091  -0.0909091   0.1818182), wk =   0.0360631
        k(    8) = (  -0.0909091  -0.1818182   0.2727273), wk =   0.0721262
        k(    9) = (  -0.0909091  -0.2727273   0.3636364), wk =   0.0721262
        k(   10) = (  -0.0909091  -0.3636364   0.4545455), wk =   0.0721262
        k(   11) = (  -0.0909091   0.5454545  -0.4545455), wk =   0.0360631
        k(   12) = (  -0.1818182  -0.1818182   0.3636364), wk =   0.0360631
        k(   13) = (  -0.1818182  -0.2727273   0.4545455), wk =   0.0721262
        k(   14) = (  -0.1818182   0.6363636  -0.4545455), wk =   0.0721262
        k(   15) = (  -0.2727273   0.7272727  -0.4545455), wk =   0.0360631
        k(   16) = (  -0.2727273   0.6363636  -0.3636364), wk =   0.0360631
        k(   17) = (   0.0000000   0.0000000   0.1818182), wk =   0.0090158
        k(   18) = (   0.0000000  -0.0909091   0.2727273), wk =   0.0360631
        k(   19) = (   0.0000000  -0.1818182   0.3636364), wk =   0.0360631
        k(   20) = (   0.0000000  -0.2727273   0.4545455), wk =   0.0360631
        k(   21) = (   0.0000000  -0.3636364   0.5454545), wk =   0.0360631
        k(   22) = (  -0.0909091  -0.0909091   0.3636364), wk =   0.0360631
        k(   23) = (  -0.0909091  -0.1818182   0.4545455), wk =   0.0721262
        k(   24) = (  -0.0909091  -0.2727273   0.5454545), wk =   0.0721262
        k(   25) = (  -0.0909091   0.6363636  -0.3636364), wk =   0.0360631
        k(   26) = (  -0.1818182   0.1818182   0.1818182), wk =   0.0120210
        k(   27) = (  -0.1818182  -0.1818182   0.5454545), wk =   0.0360631
        k(   28) = (  -0.1818182   0.7272727  -0.3636364), wk =   0.0721262
        k(   29) = (  -0.2727273   0.2727273   0.1818182), wk =   0.0360631
        k(   30) = (  -0.2727273   0.7272727  -0.2727273), wk =   0.0120210
        k(   31) = (  -0.3636364   0.3636364   0.1818182), wk =   0.0360631
        k(   32) = (  -0.3636364   0.2727273   0.2727273), wk =   0.0360631
        k(   33) = (   0.5454545  -0.5454545   0.1818182), wk =   0.0360631
        k(   34) = (   0.5454545  -0.6363636   0.2727273), wk =   0.0721262
        k(   35) = (   0.4545455  -0.5454545   0.2727273), wk =   0.0360631
        k(   36) = (   0.4545455  -0.6363636   0.3636364), wk =   0.0360631
        k(   37) = (   0.0000000   0.0000000   0.3636364), wk =   0.0090158
        k(   38) = (   0.0000000  -0.0909091   0.4545455), wk =   0.0360631
        k(   39) = (   0.0000000  -0.1818182   0.5454545), wk =   0.0360631
        k(   40) = (   0.0000000  -0.2727273   0.6363636), wk =   0.0360631
        k(   41) = (  -0.0909091  -0.0909091   0.5454545), wk =   0.0360631
        k(   42) = (  -0.0909091  -0.1818182   0.6363636), wk =   0.0721262
        k(   43) = (  -0.0909091   0.7272727  -0.2727273), wk =   0.0360631
        k(   44) = (  -0.1818182   0.8181818  -0.2727273), wk =   0.0360631
        k(   45) = (   0.6363636  -0.6363636   0.3636364), wk =   0.0120210
        k(   46) = (   0.5454545  -0.5454545   0.3636364), wk =   0.0360631
        k(   47) = (   0.4545455  -0.5454545   0.4545455), wk =   0.0120210
        k(   48) = (   0.0000000   0.0000000   0.5454545), wk =   0.0090158
        k(   49) = (   0.0000000  -0.0909091   0.6363636), wk =   0.0360631
        k(   50) = (   0.0000000  -0.1818182   0.7272727), wk =   0.0360631
        k(   51) = (  -0.0909091  -0.0909091   0.7272727), wk =   0.0360631
        k(   52) = (  -0.0909091   0.8181818  -0.1818182), wk =   0.0360631
        k(   53) = (   0.0000000   0.0000000   0.7272727), wk =   0.0090158
        k(   54) = (   0.0000000  -0.0909091   0.8181818), wk =   0.0360631
        k(   55) = (  -0.0909091   0.9090909  -0.0909091), wk =   0.0120210
        k(   56) = (   0.0000000   0.0000000   0.9090909), wk =   0.0090158

     Dense  grid:     3781 G-vectors     FFT dimensions: (  24,  24,  24)

     Estimated max dynamical RAM per process >       4.57 MB

     Estimated total dynamical RAM >      22.86 MB

     Check: negative/imaginary core charge=   -0.000363    0.000000

     Initial potential from superposition of free atoms

     starting charge    8.98117, renormalised to    9.00000
     Starting wfcs are    8 randomized atomic wfcs +    1 random wfcs

     total cpu time spent up to now is        1.0 secs

     Self-consistent Calculation

     iteration #  1     ecut=    15.00 Ry     beta= 0.70
     Davidson diagonalization with overlap
     ethr =  1.00E-02,  avg # of iterations =  6.8

     Threshold (ethr) on eigenvalues was too large:
     Diagonalizing with lowered threshold

     Davidson diagonalization with overlap
     ethr =  5.02E-04,  avg # of iterations =  1.8

     total cpu time spent up to now is        1.9 secs

     total energy              =     -58.42769048 Ry
     Harris-Foulkes estimate   =     -58.45416154 Ry
     estimated scf accuracy    <       0.04632716 Ry

     iteration #  2     ecut=    15.00 Ry     beta= 0.70
     Davidson diagonalization with overlap
     ethr =  5.15E-04,  avg # of iterations =  2.1

     total cpu time spent up to now is        2.3 secs

     total energy              =     -58.43706060 Ry
     Harris-Foulkes estimate   =     -58.43727699 Ry
     estimated scf accuracy    <       0.00214881 Ry

     iteration #  3     ecut=    15.00 Ry     beta= 0.70
     Davidson diagonalization with overlap
     ethr =  2.39E-05,  avg # of iterations =  4.9

     total cpu time spent up to now is        2.9 secs

     total energy              =     -58.43725464 Ry
     Harris-Foulkes estimate   =     -58.43721083 Ry
     estimated scf accuracy    <       0.00014158 Ry

     iteration #  4     ecut=    15.00 Ry     beta= 0.70
     Davidson diagonalization with overlap
     ethr =  1.57E-06,  avg # of iterations =  3.1

     total cpu time spent up to now is        3.3 secs

     total energy              =     -58.43725714 Ry
     Harris-Foulkes estimate   =     -58.43725725 Ry
     estimated scf accuracy    <       0.00000024 Ry

     iteration #  5     ecut=    15.00 Ry     beta= 0.70
     Davidson diagonalization with overlap
     ethr =  2.65E-09,  avg # of iterations =  2.6

     total cpu time spent up to now is        3.8 secs

     total energy              =     -58.43725733 Ry
     Harris-Foulkes estimate   =     -58.43725734 Ry
     estimated scf accuracy    <       0.00000001 Ry

     iteration #  6     ecut=    15.00 Ry     beta= 0.70
     Davidson diagonalization with overlap
     ethr =  1.12E-10,  avg # of iterations =  1.8

     total cpu time spent up to now is        4.2 secs

     End of self-consistent calculation

          k = 0.0000 0.0000 0.0000 (   459 PWs)   bands (ev):

   -31.2584 -13.4538 -13.4538 -13.4538  -0.5419   6.6443   6.6443   6.6443
     7.7131

          k = 0.0000-0.0909 0.0909 (   463 PWs)   bands (ev):

   -31.2581 -13.5175 -13.4645 -13.4478  -0.4342   6.3956   6.4608   6.7316
     7.4570

          k = 0.0000-0.1818 0.1818 (   469 PWs)   bands (ev):

   -31.2572 -13.5538 -13.5069 -13.5034  -0.1167   5.6241   6.0777   6.9425
     7.3813

          k = 0.0000-0.2727 0.2727 (   469 PWs)   bands (ev):

   -31.2560 -13.5736 -13.5573 -13.4816   0.3929   4.6722   5.7020   7.3741
     7.4199

          k = 0.0000-0.3636 0.3636 (   474 PWs)   bands (ev):

   -31.2549 -13.6272 -13.5979 -13.5166   1.0637   3.7102   5.4226   7.3250
     7.5304

          k = 0.0000-0.4545 0.4545 (   472 PWs)   bands (ev):

   -31.2542 -13.6294 -13.6178 -13.4762   1.8578   2.7828   5.2854   7.1573
     7.7219

          k =-0.0909-0.0909 0.1818 (   469 PWs)   bands (ev):

   -31.2574 -13.5725 -13.4914 -13.4882  -0.2217   5.9403   6.0910   6.8555
     7.2287

          k =-0.0909-0.1818 0.2727 (   472 PWs)   bands (ev):

   -31.2564 -13.5782 -13.5518 -13.5149   0.1924   5.1326   5.6621   7.1195
     7.1921

          k =-0.0909-0.2727 0.3636 (   469 PWs)   bands (ev):

   -31.2552 -13.6072 -13.5553 -13.4826   0.7833   4.2207   5.3430   7.1172
     7.4980

          k =-0.0909-0.3636 0.4545 (   470 PWs)   bands (ev):

   -31.2543 -13.6367 -13.5727 -13.4829   1.5217   3.2889   5.1369   6.9464
     7.7874

          k =-0.0909 0.5455-0.4545 (   471 PWs)   bands (ev):

   -31.2540 -13.6161 -13.5859 -13.5103   2.2578   2.4964   5.0619   6.8441
     8.0119

          k =-0.1818-0.1818 0.3636 (   471 PWs)   bands (ev):

   -31.2554 -13.6127 -13.5323 -13.5199   0.6900   4.5893   5.0770   7.1592
     7.2289

          k =-0.1818-0.2727 0.4545 (   472 PWs)   bands (ev):

   -31.2544 -13.6217 -13.5671 -13.5354   1.3493   3.8498   4.6965   6.8925
     7.4268

          k =-0.1818 0.6364-0.4545 (   472 PWs)   bands (ev):

   -31.2539 -13.6193 -13.5764 -13.5483   2.1337   2.9961   4.5268   6.6540
     7.6974

          k =-0.2727 0.7273-0.4545 (   474 PWs)   bands (ev):

   -31.2538 -13.6295 -13.5893 -13.5661   2.0566   3.5104   3.9983   6.6517
     7.5197

          k =-0.2727 0.6364-0.3636 (   473 PWs)   bands (ev):

   -31.2536 -13.6252 -13.5962 -13.5556   2.8192   2.8724   3.7478   6.5548
     7.7269

          k = 0.0000 0.0000 0.1818 (   462 PWs)   bands (ev):

   -31.2577 -13.5344 -13.4464 -13.4464  -0.3272   6.3343   6.3343   6.7937
     6.8492

          k = 0.0000-0.0909 0.2727 (   473 PWs)   bands (ev):

   -31.2568 -13.6115 -13.5254 -13.5069  -0.0134   5.6452   6.0012   6.6052
     6.9918

          k = 0.0000-0.1818 0.3636 (   468 PWs)   bands (ev):

   -31.2557 -13.5745 -13.5366 -13.5029   0.4936   4.7154   5.6758   6.6024
     7.4110

          k = 0.0000-0.2727 0.4545 (   468 PWs)   bands (ev):

   -31.2546 -13.6090 -13.5281 -13.5142   1.1605   3.7725   5.4272   6.5293
     7.9006

          k = 0.0000-0.3636 0.5455 (   470 PWs)   bands (ev):

   -31.2539 -13.6367 -13.5388 -13.5243   1.9479   2.8553   5.2915   6.4076
     8.1076

          k =-0.0909-0.0909 0.3636 (   464 PWs)   bands (ev):

   -31.2558 -13.5519 -13.5022 -13.4872   0.3951   5.0960   5.6012   6.4716
     7.2725

          k =-0.0909-0.1818 0.4545 (   467 PWs)   bands (ev):

   -31.2547 -13.5979 -13.5213 -13.5111   0.9769   4.2971   5.2139   6.5058
     7.4877

          k =-0.0909-0.2727 0.5455 (   469 PWs)   bands (ev):

   -31.2539 -13.6302 -13.5561 -13.5041   1.7028   3.4170   4.9837   6.4015
     7.6551

          k =-0.0909 0.6364-0.3636 (   471 PWs)   bands (ev):

   -31.2535 -13.6447 -13.5675 -13.5190   2.4723   2.5925   4.8949   6.3255
     7.8881

          k =-0.1818 0.1818 0.1818 (   471 PWs)   bands (ev):

   -31.2567 -13.5596 -13.5596 -13.4986   0.0917   5.4697   5.4697   7.0196
     7.6065

          k =-0.1818-0.1818 0.5455 (   470 PWs)   bands (ev):

   -31.2538 -13.6344 -13.5810 -13.4991   1.6184   3.8572   4.5305   6.7250
     7.2103

          k =-0.1818 0.7273-0.3636 (   468 PWs)   bands (ev):

   -31.2533 -13.6240 -13.5734 -13.5020   2.3806   3.1888   4.1597   6.7603
     7.3768

          k =-0.2727 0.2727 0.1818 (   476 PWs)   bands (ev):

   -31.2556 -13.5985 -13.5875 -13.5538   0.5920   4.6642   5.0883   6.9953
     7.7211

          k =-0.2727 0.7273-0.2727 (   472 PWs)   bands (ev):

   -31.2531 -13.6295 -13.6295 -13.5127   3.0283   3.0283   3.5142   7.2552
     7.3194

          k =-0.3636 0.3636 0.1818 (   478 PWs)   bands (ev):

   -31.2547 -13.6520 -13.5817 -13.5751   1.2548   3.8092   4.8369   6.7480
     7.9313

          k =-0.3636 0.2727 0.2727 (   473 PWs)   bands (ev):

   -31.2548 -13.6238 -13.5657 -13.5370   1.1677   4.2271   4.5345   6.5519
     7.8706

          k = 0.5455-0.5455 0.1818 (   478 PWs)   bands (ev):

   -31.2541 -13.6357 -13.6091 -13.5833   2.0425   2.9251   4.7056   6.5179
     8.1065

          k = 0.5455-0.6364 0.2727 (   475 PWs)   bands (ev):

   -31.2541 -13.6348 -13.5862 -13.5633   1.8859   3.5213   4.2567   6.1284
     8.0395

          k = 0.4545-0.5455 0.2727 (   472 PWs)   bands (ev):

   -31.2539 -13.6021 -13.5868 -13.5558   2.6814   2.7177   4.1800   5.9662
     8.1577

          k = 0.4545-0.6364 0.3636 (   475 PWs)   bands (ev):

   -31.2538 -13.6220 -13.5996 -13.5786   2.6262   3.2829   3.6231   5.7621
     8.1706

          k = 0.0000 0.0000 0.3636 (   470 PWs)   bands (ev):

   -31.2560 -13.5698 -13.5295 -13.5295   0.2943   5.6099   5.8409   5.8409
     7.1687

          k = 0.0000-0.0909 0.4545 (   460 PWs)   bands (ev):

   -31.2549 -13.5422 -13.4964 -13.4697   0.7899   4.8023   5.6234   5.8629
     7.5656

          k = 0.0000-0.1818 0.5455 (   468 PWs)   bands (ev):

   -31.2538 -13.6203 -13.5260 -13.5237   1.4394   3.9287   5.4195   5.7703
     7.4098

          k = 0.0000-0.2727 0.6364 (   468 PWs)   bands (ev):

   -31.2532 -13.6029 -13.5565 -13.5301   2.2112   3.0587   5.3070   5.6106
     7.5083

          k =-0.0909-0.0909 0.5455 (   466 PWs)   bands (ev):

   -31.2538 -13.5874 -13.5364 -13.5169   1.3509   4.3033   5.1401   5.9461
     7.1006

          k =-0.0909-0.1818 0.6364 (   469 PWs)   bands (ev):

   -31.2530 -13.6157 -13.5717 -13.5301   2.0470   3.6252   4.7368   6.0095
     7.0091

          k =-0.0909 0.7273-0.2727 (   467 PWs)   bands (ev):

   -31.2527 -13.6252 -13.5736 -13.4970   2.7910   2.8681   4.6058   5.9846
     7.1578

          k =-0.1818 0.8182-0.2727 (   466 PWs)   bands (ev):

   -31.2525 -13.6082 -13.5973 -13.4854   2.7441   3.3447   4.0114   6.4418
     6.8038

          k = 0.6364-0.6364 0.3636 (   474 PWs)   bands (ev):

   -31.2542 -13.6379 -13.5667 -13.5667   1.8038   3.9799   3.9799   5.8108
     8.3056

          k = 0.5455-0.5455 0.3636 (   476 PWs)   bands (ev):

   -31.2539 -13.6162 -13.6071 -13.5942   2.5491   3.3159   3.8591   5.3376
     8.3544

          k = 0.4545-0.5455 0.4545 (   469 PWs)   bands (ev):

   -31.2539 -13.5718 -13.5718 -13.5673   3.1726   3.1726   3.4694   4.9972
     8.5057

          k = 0.0000 0.0000 0.5455 (   466 PWs)   bands (ev):

   -31.2538 -13.5940 -13.5207 -13.5207   1.2589   4.6236   5.5078   5.5078
     6.8453

          k = 0.0000-0.0909 0.6364 (   465 PWs)   bands (ev):

   -31.2528 -13.5932 -13.5399 -13.5205   1.8761   4.0673   5.3393   5.4022
     6.4962

          k = 0.0000-0.1818 0.7273 (   467 PWs)   bands (ev):

   -31.2523 -13.6281 -13.5728 -13.5105   2.5876   3.3641   5.0755   5.3312
     6.6723

          k =-0.0909-0.0909 0.7273 (   464 PWs)   bands (ev):

   -31.2521 -13.5943 -13.5915 -13.4908   2.5124   3.7191   4.7358   5.6960
     6.2618

          k =-0.0909 0.8182-0.1818 (   468 PWs)   bands (ev):

   -31.2518 -13.6326 -13.6204 -13.5037   3.0825   3.2841   4.4474   5.7866
     6.3158

          k = 0.0000 0.0000 0.7273 (   466 PWs)   bands (ev):

   -31.2519 -13.5791 -13.5791 -13.5504   2.4286   3.9385   5.3540   5.3540
     5.7286

          k = 0.0000-0.0909 0.8182 (   472 PWs)   bands (ev):

   -31.2514 -13.6482 -13.6277 -13.5565   3.0170   3.5955   4.9864   5.3166
     5.8554

          k =-0.0909 0.9091-0.0909 (   478 PWs)   bands (ev):

   -31.2512 -13.6557 -13.6557 -13.6361   3.4094   3.4094   4.7749   5.6083
     5.6083

          k = 0.0000 0.0000 0.9091 (   474 PWs)   bands (ev):

   -31.2509 -13.6543 -13.6157 -13.6157   3.3964   3.5951   5.2978   5.3110
     5.3110

     the Fermi energy is     1.7438 ev

!    total energy              =     -58.43725734 Ry
     Harris-Foulkes estimate   =     -58.43725734 Ry
     estimated scf accuracy    <          3.0E-10 Ry

     The total energy is the sum of the following terms:

     one-electron contribution =     -35.78574451 Ry
     hartree contribution      =      18.37058631 Ry
     xc contribution           =     -11.12534065 Ry
     ewald contribution        =     -29.89633977 Ry
     smearing contrib. (-TS)   =      -0.00041872 Ry

     convergence has been achieved in   6 iterations

     Forces acting on atoms (cartesian axes, Ry/au):

     atom    1 type  1   force =     0.00000000    0.00000000    0.00000000

     Total force =     0.000000     Total SCF correction =     0.000000


     Computing stress (Cartesian axis) and pressure

          total   stress  (Ry/bohr**3)                   (kbar)     P= -285.80
  -0.00194280   0.00000000  -0.00000000       -285.80      0.00     -0.00
   0.00000000  -0.00194280   0.00000000          0.00   -285.80      0.00
  -0.00000000   0.00000000  -0.00194280         -0.00      0.00   -285.80


     Writing output data file K.save/

     init_run     :      0.22s CPU      0.23s WALL (       1 calls)
     electrons    :      3.01s CPU      3.20s WALL (       1 calls)
     forces       :      0.03s CPU      0.03s WALL (       1 calls)
     stress       :      0.12s CPU      0.12s WALL (       1 calls)

     Called by init_run:
     wfcinit      :      0.12s CPU      0.13s WALL (       1 calls)
     potinit      :      0.00s CPU      0.01s WALL (       1 calls)
     hinit0       :      0.09s CPU      0.09s WALL (       1 calls)

     Called by electrons:
     c_bands      :      2.51s CPU      2.66s WALL (       7 calls)
     sum_band     :      0.45s CPU      0.48s WALL (       7 calls)
     v_of_rho     :      0.03s CPU      0.03s WALL (       7 calls)
     newd         :      0.03s CPU      0.03s WALL (       7 calls)
     mix_rho      :      0.00s CPU      0.00s WALL (       7 calls)

     Called by c_bands:
     init_us_2    :      0.06s CPU      0.07s WALL (     952 calls)
     cegterg      :      2.40s CPU      2.54s WALL (     392 calls)

     Called by sum_band:
     sum_band:bec :      0.00s CPU      0.00s WALL (     392 calls)
     addusdens    :      0.02s CPU      0.03s WALL (       7 calls)

     Called by *egterg:
     h_psi        :      1.75s CPU      1.87s WALL (    1732 calls)
     s_psi        :      0.05s CPU      0.05s WALL (    1732 calls)
     g_psi        :      0.01s CPU      0.01s WALL (    1284 calls)
     cdiaghg      :      0.37s CPU      0.38s WALL (    1620 calls)

     Called by h_psi:
     h_psi:pot    :      1.74s CPU      1.86s WALL (    1732 calls)
     h_psi:calbec :      0.10s CPU      0.10s WALL (    1732 calls)
     vloc_psi     :      1.59s CPU      1.70s WALL (    1732 calls)
     add_vuspsi   :      0.04s CPU      0.05s WALL (    1732 calls)

     General routines
     calbec       :      0.16s CPU      0.17s WALL (    2404 calls)
     fft          :      0.02s CPU      0.02s WALL (     104 calls)
     ffts         :      0.00s CPU      0.00s WALL (       7 calls)
     fftw         :      1.80s CPU      1.92s WALL (   22850 calls)

     Parallel routines
     fft_scatt_xy :      0.14s CPU      0.15s WALL (   22961 calls)
     fft_scatt_yz :      0.78s CPU      0.83s WALL (   22961 calls)

     PWSCF        :     4.17s CPU         4.48s WALL


   This run was terminated on:   0:12:38   8Apr2024            

=------------------------------------------------------------------------------=
   JOB DONE.
=------------------------------------------------------------------------------=
