
     Program PWSCF v.6.3MaX starts on  8Apr2024 at  0:28:52 

     This program is part of the open-source Quantum ESPRESSO suite
     for quantum simulation of materials; please cite
         "P. Giannozzi et al., J. Phys.:Condens. Matter 21 395502 (2009);
         "P. Giannozzi et al., J. Phys.:Condens. Matter 29 465901 (2017);
          URL http://www.quantum-espresso.org", 
     in publications or presentations arising from this work. More details at
     http://www.quantum-espresso.org/quote

     Parallel version (MPI), running on     5 processors

     MPI processes distributed on     1 nodes
     R & G space division:  proc/nbgrp/npool/nimage =       5
     Waiting for input...
     Reading input from standard input

     Current dimensions of program PWSCF are:
     Max number of different atomic species (ntypx) = 10
     Max number of k-points (npk) =  40000
     Max angular momentum in pseudopotentials (lmaxx) =  3
               file K.pz-spn-rrkjus_psl.1.0.0.UPF: wavefunction(s)  3S renormalized

     Subspace diagonalization in iterative solution of the eigenvalue problem:
     a serial algorithm will be used


     Parallelization info
     --------------------
     sticks:   dense  smooth     PW     G-vecs:    dense   smooth      PW
     Min         196     196     57                 3895     3895     630
     Max         197     197     59                 3897     3897     631
     Sum         981     981    291                19477    19477    3151



     bravais-lattice index     =            3
     lattice parameter (alat)  =       9.8600  a.u.
     unit-cell volume          =     479.2926 (a.u.)^3
     number of atoms/cell      =            1
     number of atomic types    =            1
     number of electrons       =         9.00
     number of Kohn-Sham states=            9
     kinetic-energy cutoff     =      45.0000  Ry
     charge density cutoff     =     180.0000  Ry
     convergence threshold     =      1.0E-08
     mixing beta               =       0.7000
     number of iterations used =            8  plain     mixing
     Exchange-correlation      = LDA ( 1  1  0  0 0 0)

     celldm(1)=   9.860000  celldm(2)=   0.000000  celldm(3)=   0.000000
     celldm(4)=   0.000000  celldm(5)=   0.000000  celldm(6)=   0.000000

     crystal axes: (cart. coord. in units of alat)
               a(1) = (   0.500000   0.500000   0.500000 )  
               a(2) = (  -0.500000   0.500000   0.500000 )  
               a(3) = (  -0.500000  -0.500000   0.500000 )  

     reciprocal axes: (cart. coord. in units 2 pi/alat)
               b(1) = (  1.000000  0.000000  1.000000 )  
               b(2) = ( -1.000000  1.000000  0.000000 )  
               b(3) = (  0.000000 -1.000000  1.000000 )  


     PseudoPot. # 1 for K  read from file:
     /home/lorenzo/pseudos/K/K.pz-spn-rrkjus_psl.1.0.0.UPF
     MD5 check sum: af434a66a3b91719abff201b8f79bb09
     Pseudo is Ultrasoft + core correction, Zval =  9.0
     Generated using "atomic" code by A. Dal Corso v.6.2.2
     Using radial grid of 1165 points,  6 beta functions with: 
                l(1) =   0
                l(2) =   0
                l(3) =   1
                l(4) =   1
                l(5) =   2
                l(6) =   2
     Q(r) pseudized with 0 coefficients 


     atomic species   valence    mass     pseudopotential
        K              9.00    39.09830     K ( 1.00)

     48 Sym. Ops., with inversion, found



   Cartesian axes

     site n.     atom                  positions (alat units)
         1           K   tau(   1) = (   0.0000000   0.0000000   0.0000000  )

     number of k points=    47  gaussian smearing, width (Ry)=  0.0100
                       cart. coord. in units 2pi/alat
        k(    1) = (   0.0000000   0.0000000   0.0000000), wk =   0.0020000
        k(    2) = (   0.0000000  -0.1000000   0.1000000), wk =   0.0240000
        k(    3) = (   0.0000000  -0.2000000   0.2000000), wk =   0.0240000
        k(    4) = (   0.0000000  -0.3000000   0.3000000), wk =   0.0240000
        k(    5) = (   0.0000000  -0.4000000   0.4000000), wk =   0.0240000
        k(    6) = (   0.0000000   0.5000000  -0.5000000), wk =   0.0120000
        k(    7) = (  -0.1000000  -0.1000000   0.2000000), wk =   0.0480000
        k(    8) = (  -0.1000000  -0.2000000   0.3000000), wk =   0.0960000
        k(    9) = (  -0.1000000  -0.3000000   0.4000000), wk =   0.0960000
        k(   10) = (  -0.1000000   0.6000000  -0.5000000), wk =   0.0960000
        k(   11) = (  -0.2000000  -0.2000000   0.4000000), wk =   0.0480000
        k(   12) = (  -0.2000000   0.7000000  -0.5000000), wk =   0.0960000
        k(   13) = (  -0.2000000   0.6000000  -0.4000000), wk =   0.0480000
        k(   14) = (  -0.3000000   0.7000000  -0.4000000), wk =   0.0480000
        k(   15) = (   0.0000000   0.0000000   0.2000000), wk =   0.0120000
        k(   16) = (   0.0000000  -0.1000000   0.3000000), wk =   0.0480000
        k(   17) = (   0.0000000  -0.2000000   0.4000000), wk =   0.0480000
        k(   18) = (   0.0000000  -0.3000000   0.5000000), wk =   0.0480000
        k(   19) = (   0.0000000   0.6000000  -0.4000000), wk =   0.0240000
        k(   20) = (  -0.1000000  -0.1000000   0.4000000), wk =   0.0480000
        k(   21) = (  -0.1000000  -0.2000000   0.5000000), wk =   0.0960000
        k(   22) = (  -0.1000000   0.7000000  -0.4000000), wk =   0.0960000
        k(   23) = (  -0.2000000   0.2000000   0.2000000), wk =   0.0160000
        k(   24) = (  -0.2000000   0.8000000  -0.4000000), wk =   0.0480000
        k(   25) = (  -0.2000000   0.7000000  -0.3000000), wk =   0.0480000
        k(   26) = (  -0.3000000   0.3000000   0.2000000), wk =   0.0480000
        k(   27) = (   0.6000000  -0.6000000   0.2000000), wk =   0.0480000
        k(   28) = (   0.6000000  -0.7000000   0.3000000), wk =   0.0480000
        k(   29) = (   0.5000000  -0.5000000   0.2000000), wk =   0.0240000
        k(   30) = (   0.5000000  -0.6000000   0.3000000), wk =   0.0960000
        k(   31) = (   0.4000000  -0.6000000   0.4000000), wk =   0.0160000
        k(   32) = (   0.0000000   0.0000000   0.4000000), wk =   0.0120000
        k(   33) = (   0.0000000  -0.1000000   0.5000000), wk =   0.0480000
        k(   34) = (   0.0000000  -0.2000000   0.6000000), wk =   0.0480000
        k(   35) = (   0.0000000   0.7000000  -0.3000000), wk =   0.0240000
        k(   36) = (  -0.1000000  -0.1000000   0.6000000), wk =   0.0480000
        k(   37) = (  -0.1000000   0.8000000  -0.3000000), wk =   0.0960000
        k(   38) = (  -0.2000000   0.8000000  -0.2000000), wk =   0.0160000
        k(   39) = (   0.6000000  -0.6000000   0.4000000), wk =   0.0160000
        k(   40) = (   0.5000000  -0.5000000   0.4000000), wk =   0.0240000
        k(   41) = (   0.0000000   0.0000000   0.6000000), wk =   0.0120000
        k(   42) = (   0.0000000  -0.1000000   0.7000000), wk =   0.0480000
        k(   43) = (   0.0000000   0.8000000  -0.2000000), wk =   0.0240000
        k(   44) = (  -0.1000000   0.9000000  -0.2000000), wk =   0.0480000
        k(   45) = (   0.0000000   0.0000000   0.8000000), wk =   0.0120000
        k(   46) = (   0.0000000   0.9000000  -0.1000000), wk =   0.0240000
        k(   47) = (   0.0000000   0.0000000  -1.0000000), wk =   0.0020000

     Dense  grid:    19477 G-vectors     FFT dimensions: (  40,  40,  40)

     Estimated max dynamical RAM per process >      19.49 MB

     Estimated total dynamical RAM >      97.46 MB

     Check: negative/imaginary core charge=   -0.000011    0.000000

     Initial potential from superposition of free atoms

     starting charge    8.98437, renormalised to    9.00000
     Starting wfcs are    8 randomized atomic wfcs +    1 random wfcs

     total cpu time spent up to now is        1.3 secs

     Self-consistent Calculation

     iteration #  1     ecut=    45.00 Ry     beta= 0.70
     Davidson diagonalization with overlap
     ethr =  1.00E-02,  avg # of iterations =  6.6

     Threshold (ethr) on eigenvalues was too large:
     Diagonalizing with lowered threshold

     Davidson diagonalization with overlap
     ethr =  1.25E-05,  avg # of iterations =  6.8

     total cpu time spent up to now is        4.3 secs

     total energy              =     -58.74194840 Ry
     Harris-Foulkes estimate   =     -58.74251506 Ry
     estimated scf accuracy    <       0.00113118 Ry

     iteration #  2     ecut=    45.00 Ry     beta= 0.70
     Davidson diagonalization with overlap
     ethr =  1.26E-05,  avg # of iterations =  2.0

     total cpu time spent up to now is        5.3 secs

     total energy              =     -58.74214652 Ry
     Harris-Foulkes estimate   =     -58.74216381 Ry
     estimated scf accuracy    <       0.00008933 Ry

     iteration #  3     ecut=    45.00 Ry     beta= 0.70
     Davidson diagonalization with overlap
     ethr =  9.93E-07,  avg # of iterations =  1.8

     total cpu time spent up to now is        6.2 secs

     total energy              =     -58.74215545 Ry
     Harris-Foulkes estimate   =     -58.74215467 Ry
     estimated scf accuracy    <       0.00000567 Ry

     iteration #  4     ecut=    45.00 Ry     beta= 0.70
     Davidson diagonalization with overlap
     ethr =  6.30E-08,  avg # of iterations =  1.6

     total cpu time spent up to now is        7.1 secs

     total energy              =     -58.74215600 Ry
     Harris-Foulkes estimate   =     -58.74215599 Ry
     estimated scf accuracy    <       0.00000003 Ry

     iteration #  5     ecut=    45.00 Ry     beta= 0.70
     Davidson diagonalization with overlap
     ethr =  3.82E-10,  avg # of iterations =  2.1

     total cpu time spent up to now is        8.0 secs

     End of self-consistent calculation

          k = 0.0000 0.0000 0.0000 (  2491 PWs)   bands (ev):

   -30.0976 -13.7355 -13.7355 -13.7355  -0.4765   5.9299   5.9299   5.9299
     6.8759

          k = 0.0000-0.1000 0.1000 (  2439 PWs)   bands (ev):

   -30.0970 -13.7431 -13.7380 -13.7354  -0.3480   5.7527   5.7806   6.0327
     6.6911

          k = 0.0000-0.2000 0.2000 (  2433 PWs)   bands (ev):

   -30.0957 -13.7633 -13.7447 -13.7353   0.0287   5.0924   5.4548   6.3364
     6.6440

          k = 0.0000-0.3000 0.3000 (  2455 PWs)   bands (ev):

   -30.0941 -13.7880 -13.7531 -13.7353   0.6268   4.2096   5.1326   6.7129
     6.8271

          k = 0.0000-0.4000 0.4000 (  2437 PWs)   bands (ev):

   -30.0928 -13.8077 -13.7597 -13.7352   1.3998   3.2800   4.9128   6.6293
     7.1271

          k = 0.0000 0.5000-0.5000 (  2422 PWs)   bands (ev):

   -30.0923 -13.8151 -13.7622 -13.7352   2.1434   2.4886   4.8359   6.5331
     7.3596

          k =-0.1000-0.1000 0.2000 (  2442 PWs)   bands (ev):

   -30.0961 -13.7571 -13.7408 -13.7373  -0.0953   5.3788   5.4876   6.2237
     6.5196

          k =-0.1000-0.2000 0.3000 (  2439 PWs)   bands (ev):

   -30.0947 -13.7782 -13.7488 -13.7380   0.3929   4.6520   5.1213   6.5179
     6.5780

          k =-0.1000-0.3000 0.4000 (  2437 PWs)   bands (ev):

   -30.0932 -13.7985 -13.7579 -13.7381   1.0818   3.7825   4.8456   6.5270
     7.0036

          k =-0.1000 0.6000-0.5000 (  2435 PWs)   bands (ev):

   -30.0923 -13.8109 -13.7636 -13.7381   1.9094   2.8740   4.6987   6.3854
     7.2706

          k =-0.2000-0.2000 0.4000 (  2438 PWs)   bands (ev):

   -30.0934 -13.7929 -13.7571 -13.7415   0.9740   4.1559   4.6164   6.5736
     6.6856

          k =-0.2000 0.7000-0.5000 (  2443 PWs)   bands (ev):

   -30.0923 -13.8024 -13.7677 -13.7428   1.7294   3.4567   4.2746   6.3943
     6.8485

          k =-0.2000 0.6000-0.4000 (  2441 PWs)   bands (ev):

   -30.0919 -13.8053 -13.7725 -13.7431   2.5304   2.6593   4.1689   6.2390
     7.1377

          k =-0.3000 0.7000-0.4000 (  2449 PWs)   bands (ev):

   -30.0918 -13.7974 -13.7817 -13.7451   2.5126   3.2015   3.5731   6.2713
     6.8926

          k = 0.0000 0.0000 0.2000 (  2423 PWs)   bands (ev):

   -30.0965 -13.7452 -13.7406 -13.7406  -0.2208   5.7057   5.7057   6.0784
     6.2112

          k = 0.0000-0.1000 0.3000 (  2446 PWs)   bands (ev):

   -30.0953 -13.7633 -13.7474 -13.7417   0.1521   5.1337   5.4422   6.0125
     6.3491

          k = 0.0000-0.2000 0.4000 (  2451 PWs)   bands (ev):

   -30.0937 -13.7869 -13.7559 -13.7413   0.7444   4.2604   5.1528   6.0686
     6.8255

          k = 0.0000-0.3000 0.5000 (  2443 PWs)   bands (ev):

   -30.0924 -13.8059 -13.7626 -13.7410   1.5110   3.3490   4.9497   6.0293
     7.1564

          k = 0.0000 0.6000-0.4000 (  2446 PWs)   bands (ev):

   -30.0919 -13.8131 -13.7652 -13.7409   2.2755   2.5418   4.8780   5.9570
     7.2157

          k =-0.1000-0.1000 0.4000 (  2446 PWs)   bands (ev):

   -30.0939 -13.7790 -13.7552 -13.7458   0.6301   4.6196   5.1015   5.9144
     6.6423

          k =-0.1000-0.2000 0.5000 (  2444 PWs)   bands (ev):

   -30.0925 -13.7964 -13.7646 -13.7464   1.3049   3.8761   4.7675   5.9851
     6.8489

          k =-0.1000 0.7000-0.4000 (  2447 PWs)   bands (ev):

   -30.0916 -13.8072 -13.7708 -13.7464   2.1215   3.0202   4.5839   5.9063
     6.9770

          k =-0.2000 0.2000 0.2000 (  2430 PWs)   bands (ev):

   -30.0950 -13.7751 -13.7412 -13.7412   0.2733   4.9532   4.9532   6.4665
     6.8691

          k =-0.2000 0.8000-0.4000 (  2439 PWs)   bands (ev):

   -30.0915 -13.8007 -13.7772 -13.7484   2.0331   3.5047   4.0985   6.2517
     6.5731

          k =-0.2000 0.7000-0.3000 (  2459 PWs)   bands (ev):

   -30.0912 -13.8003 -13.7846 -13.7488   2.8249   2.8726   3.8096   6.2956
     6.7904

          k =-0.3000 0.3000 0.2000 (  2427 PWs)   bands (ev):

   -30.0937 -13.7921 -13.7514 -13.7418   0.8608   4.2279   4.6231   6.5919
     6.9588

          k = 0.6000-0.6000 0.2000 (  2441 PWs)   bands (ev):

   -30.0926 -13.8034 -13.7619 -13.7423   1.6236   3.4018   4.4191   6.3392
     7.1811

          k = 0.6000-0.7000 0.3000 (  2438 PWs)   bands (ev):

   -30.0927 -13.7990 -13.7594 -13.7474   1.5252   3.8259   4.1200   6.1676
     7.0838

          k = 0.5000-0.5000 0.2000 (  2440 PWs)   bands (ev):

   -30.0922 -13.8072 -13.7664 -13.7425   2.4044   2.6040   4.3504   6.1647
     7.3166

          k = 0.5000-0.6000 0.3000 (  2430 PWs)   bands (ev):

   -30.0921 -13.7983 -13.7707 -13.7492   2.3276   3.1587   3.8902   5.7483
     7.2135

          k = 0.4000-0.6000 0.4000 (  2427 PWs)   bands (ev):

   -30.0920 -13.7853 -13.7853 -13.7518   3.0201   3.0201   3.3250   5.4973
     7.3021

          k = 0.0000 0.0000 0.4000 (  2447 PWs)   bands (ev):

   -30.0941 -13.7667 -13.7545 -13.7545   0.5135   5.1015   5.3502   5.3502
     6.5000

          k = 0.0000-0.1000 0.5000 (  2449 PWs)   bands (ev):

   -30.0926 -13.7843 -13.7632 -13.7567   1.0867   4.3517   5.1839   5.4066
     6.8393

          k = 0.0000-0.2000 0.6000 (  2465 PWs)   bands (ev):

   -30.0914 -13.8011 -13.7702 -13.7559   1.8279   3.5343   5.0424   5.3168
     6.6805

          k = 0.0000 0.7000-0.3000 (  2454 PWs)   bands (ev):

   -30.0909 -13.8075 -13.7729 -13.7555   2.6450   2.7001   4.9892   5.2080
     6.7852

          k =-0.1000-0.1000 0.6000 (  2455 PWs)   bands (ev):

   -30.0913 -13.7941 -13.7736 -13.7605   1.7273   3.9031   4.7471   5.5657
     6.3814

          k =-0.1000 0.8000-0.3000 (  2452 PWs)   bands (ev):

   -30.0905 -13.8013 -13.7813 -13.7604   2.4919   3.2798   4.3710   5.6553
     6.4224

          k =-0.2000 0.8000-0.2000 (  2451 PWs)   bands (ev):

   -30.0902 -13.7941 -13.7941 -13.7608   3.0930   3.0930   3.8048   6.1466
     6.1466

          k = 0.6000-0.6000 0.4000 (  2418 PWs)   bands (ev):

   -30.0922 -13.7948 -13.7612 -13.7612   2.2376   3.6312   3.6312   5.3855
     7.3542

          k = 0.5000-0.5000 0.4000 (  2422 PWs)   bands (ev):

   -30.0920 -13.7866 -13.7731 -13.7619   2.9602   3.0464   3.5671   5.0233
     7.4163

          k = 0.0000 0.0000 0.6000 (  2446 PWs)   bands (ev):

   -30.0912 -13.7844 -13.7722 -13.7722   1.6232   4.1796   5.1791   5.1791
     6.1246

          k = 0.0000-0.1000 0.7000 (  2444 PWs)   bands (ev):

   -30.0901 -13.7952 -13.7795 -13.7740   2.2999   3.6941   4.9838   5.1459
     5.9585

          k = 0.0000 0.8000-0.2000 (  2456 PWs)   bands (ev):

   -30.0897 -13.8007 -13.7824 -13.7733   2.9523   3.1245   4.7701   5.1280
     6.1587

          k =-0.1000 0.9000-0.2000 (  2456 PWs)   bands (ev):

   -30.0894 -13.7963 -13.7891 -13.7759   2.9237   3.4155   4.4768   5.5163
     5.8267

          k = 0.0000 0.0000 0.8000 (  2454 PWs)   bands (ev):

   -30.0891 -13.7918 -13.7871 -13.7871   2.8398   3.5985   5.2171   5.2172
     5.2877

          k = 0.0000 0.9000-0.1000 (  2450 PWs)   bands (ev):

   -30.0887 -13.7951 -13.7900 -13.7875   3.2449   3.3833   4.9309   5.2408
     5.5571

          k = 0.0000 0.0000-1.0000 (  2454 PWs)   bands (ev):

   -30.0883 -13.7929 -13.7929 -13.7929   3.4014   5.2837   5.2837   5.2837
     7.2559

     the Fermi energy is     1.7386 ev

!    total energy              =     -58.74215601 Ry
     Harris-Foulkes estimate   =     -58.74215601 Ry
     estimated scf accuracy    <          8.7E-10 Ry

     The total energy is the sum of the following terms:

     one-electron contribution =     -36.65273086 Ry
     hartree contribution      =      18.82481190 Ry
     xc contribution           =     -11.01724514 Ry
     ewald contribution        =     -29.89633975 Ry
     smearing contrib. (-TS)   =      -0.00065215 Ry

     convergence has been achieved in   5 iterations

     Forces acting on atoms (cartesian axes, Ry/au):

     atom    1 type  1   force =     0.00000000    0.00000000    0.00000000

     Total force =     0.000000     Total SCF correction =     0.000000


     Computing stress (Cartesian axis) and pressure

          total   stress  (Ry/bohr**3)                   (kbar)     P=   -4.84
  -0.00003292  -0.00000000   0.00000000         -4.84     -0.00      0.00
  -0.00000000  -0.00003292  -0.00000000         -0.00     -4.84     -0.00
   0.00000000  -0.00000000  -0.00003292          0.00     -0.00     -4.84


     Writing output data file K.save/

     init_run     :      0.51s CPU      0.55s WALL (       1 calls)
     electrons    :      6.39s CPU      6.71s WALL (       1 calls)
     forces       :      0.10s CPU      0.10s WALL (       1 calls)
     stress       :      0.39s CPU      0.39s WALL (       1 calls)

     Called by init_run:
     wfcinit      :      0.32s CPU      0.34s WALL (       1 calls)
     potinit      :      0.01s CPU      0.01s WALL (       1 calls)
     hinit0       :      0.16s CPU      0.16s WALL (       1 calls)

     Called by electrons:
     c_bands      :      5.32s CPU      5.59s WALL (       6 calls)
     sum_band     :      0.95s CPU      0.99s WALL (       6 calls)
     v_of_rho     :      0.01s CPU      0.01s WALL (       6 calls)
     newd         :      0.11s CPU      0.11s WALL (       6 calls)
     mix_rho      :      0.00s CPU      0.00s WALL (       6 calls)

     Called by c_bands:
     init_us_2    :      0.20s CPU      0.21s WALL (     705 calls)
     cegterg      :      5.08s CPU      5.34s WALL (     282 calls)

     Called by sum_band:
     sum_band:bec :      0.00s CPU      0.00s WALL (     282 calls)
     addusdens    :      0.10s CPU      0.11s WALL (       6 calls)

     Called by *egterg:
     h_psi        :      4.25s CPU      4.50s WALL (    1307 calls)
     s_psi        :      0.13s CPU      0.14s WALL (    1307 calls)
     g_psi        :      0.01s CPU      0.01s WALL (     978 calls)
     cdiaghg      :      0.28s CPU      0.29s WALL (    1213 calls)

     Called by h_psi:
     h_psi:pot    :      4.23s CPU      4.48s WALL (    1307 calls)
     h_psi:calbec :      0.22s CPU      0.23s WALL (    1307 calls)
     vloc_psi     :      3.86s CPU      4.09s WALL (    1307 calls)
     add_vuspsi   :      0.14s CPU      0.15s WALL (    1307 calls)

     General routines
     calbec       :      0.35s CPU      0.36s WALL (    1824 calls)
     fft          :      0.02s CPU      0.02s WALL (      34 calls)
     ffts         :      0.00s CPU      0.00s WALL (       6 calls)
     fftw         :      4.22s CPU      4.46s WALL (   17286 calls)

     Parallel routines
     fft_scatt_xy :      0.34s CPU      0.35s WALL (   17326 calls)
     fft_scatt_yz :      1.08s CPU      1.15s WALL (   17326 calls)

     PWSCF        :     8.22s CPU         8.69s WALL


   This run was terminated on:   0:29: 1   8Apr2024            

=------------------------------------------------------------------------------=
   JOB DONE.
=------------------------------------------------------------------------------=
