
     Program PWSCF v.6.3MaX starts on  8Apr2024 at  1:35:38 

     This program is part of the open-source Quantum ESPRESSO suite
     for quantum simulation of materials; please cite
         "P. Giannozzi et al., J. Phys.:Condens. Matter 21 395502 (2009);
         "P. Giannozzi et al., J. Phys.:Condens. Matter 29 465901 (2017);
          URL http://www.quantum-espresso.org", 
     in publications or presentations arising from this work. More details at
     http://www.quantum-espresso.org/quote

     Parallel version (MPI), running on     5 processors

     MPI processes distributed on     1 nodes
     R & G space division:  proc/nbgrp/npool/nimage =       5
     Waiting for input...
     Reading input from standard input

     Current dimensions of program PWSCF are:
     Max number of different atomic species (ntypx) = 10
     Max number of k-points (npk) =  40000
     Max angular momentum in pseudopotentials (lmaxx) =  3
               file K.pz-spn-kjpaw_psl.1.0.0.UPF: wavefunction(s)  3S renormalized

     Subspace diagonalization in iterative solution of the eigenvalue problem:
     a serial algorithm will be used


     Parallelization info
     --------------------
     sticks:   dense  smooth     PW     G-vecs:    dense   smooth      PW
     Min         417     417    117                12009    12009    1789
     Max         417     417    118                12010    12010    1790
     Sum        2085    2085    587                60047    60047    8949



     bravais-lattice index     =            3
     lattice parameter (alat)  =       9.8600  a.u.
     unit-cell volume          =     479.2926 (a.u.)^3
     number of atoms/cell      =            1
     number of atomic types    =            1
     number of electrons       =         9.00
     number of Kohn-Sham states=            9
     kinetic-energy cutoff     =      95.0000  Ry
     charge density cutoff     =     380.0000  Ry
     convergence threshold     =      1.0E-08
     mixing beta               =       0.7000
     number of iterations used =            8  plain     mixing
     Exchange-correlation      = SLA PZ NOGX NOGC ( 1  1  0  0 0 0)

     celldm(1)=   9.860000  celldm(2)=   0.000000  celldm(3)=   0.000000
     celldm(4)=   0.000000  celldm(5)=   0.000000  celldm(6)=   0.000000

     crystal axes: (cart. coord. in units of alat)
               a(1) = (   0.500000   0.500000   0.500000 )  
               a(2) = (  -0.500000   0.500000   0.500000 )  
               a(3) = (  -0.500000  -0.500000   0.500000 )  

     reciprocal axes: (cart. coord. in units 2 pi/alat)
               b(1) = (  1.000000  0.000000  1.000000 )  
               b(2) = ( -1.000000  1.000000  0.000000 )  
               b(3) = (  0.000000 -1.000000  1.000000 )  


     PseudoPot. # 1 for K  read from file:
     /home/lorenzo/pseudos/K/K.pz-spn-kjpaw_psl.1.0.0.UPF
     MD5 check sum: 59b94f4c1a6681f21e103574f2c5fc67
     Pseudo is Projector augmented-wave + core cor, Zval =  9.0
     Generated using "atomic" code by A. Dal Corso v.6.2.2
     Shape of augmentation charge: PSQ
     Using radial grid of 1165 points,  6 beta functions with: 
                l(1) =   0
                l(2) =   0
                l(3) =   1
                l(4) =   1
                l(5) =   2
                l(6) =   2
     Q(r) pseudized with 0 coefficients 


     atomic species   valence    mass     pseudopotential
        K              9.00    39.09830     K ( 1.00)

     48 Sym. Ops., with inversion, found



   Cartesian axes

     site n.     atom                  positions (alat units)
         1           K   tau(   1) = (   0.0000000   0.0000000   0.0000000  )

     number of k points=    56  gaussian smearing, width (Ry)=  0.0100
                       cart. coord. in units 2pi/alat
        k(    1) = (   0.0000000   0.0000000   0.0000000), wk =   0.0015026
        k(    2) = (   0.0000000  -0.0909091   0.0909091), wk =   0.0180316
        k(    3) = (   0.0000000  -0.1818182   0.1818182), wk =   0.0180316
        k(    4) = (   0.0000000  -0.2727273   0.2727273), wk =   0.0180316
        k(    5) = (   0.0000000  -0.3636364   0.3636364), wk =   0.0180316
        k(    6) = (   0.0000000  -0.4545455   0.4545455), wk =   0.0180316
        k(    7) = (  -0.0909091  -0.0909091   0.1818182), wk =   0.0360631
        k(    8) = (  -0.0909091  -0.1818182   0.2727273), wk =   0.0721262
        k(    9) = (  -0.0909091  -0.2727273   0.3636364), wk =   0.0721262
        k(   10) = (  -0.0909091  -0.3636364   0.4545455), wk =   0.0721262
        k(   11) = (  -0.0909091   0.5454545  -0.4545455), wk =   0.0360631
        k(   12) = (  -0.1818182  -0.1818182   0.3636364), wk =   0.0360631
        k(   13) = (  -0.1818182  -0.2727273   0.4545455), wk =   0.0721262
        k(   14) = (  -0.1818182   0.6363636  -0.4545455), wk =   0.0721262
        k(   15) = (  -0.2727273   0.7272727  -0.4545455), wk =   0.0360631
        k(   16) = (  -0.2727273   0.6363636  -0.3636364), wk =   0.0360631
        k(   17) = (   0.0000000   0.0000000   0.1818182), wk =   0.0090158
        k(   18) = (   0.0000000  -0.0909091   0.2727273), wk =   0.0360631
        k(   19) = (   0.0000000  -0.1818182   0.3636364), wk =   0.0360631
        k(   20) = (   0.0000000  -0.2727273   0.4545455), wk =   0.0360631
        k(   21) = (   0.0000000  -0.3636364   0.5454545), wk =   0.0360631
        k(   22) = (  -0.0909091  -0.0909091   0.3636364), wk =   0.0360631
        k(   23) = (  -0.0909091  -0.1818182   0.4545455), wk =   0.0721262
        k(   24) = (  -0.0909091  -0.2727273   0.5454545), wk =   0.0721262
        k(   25) = (  -0.0909091   0.6363636  -0.3636364), wk =   0.0360631
        k(   26) = (  -0.1818182   0.1818182   0.1818182), wk =   0.0120210
        k(   27) = (  -0.1818182  -0.1818182   0.5454545), wk =   0.0360631
        k(   28) = (  -0.1818182   0.7272727  -0.3636364), wk =   0.0721262
        k(   29) = (  -0.2727273   0.2727273   0.1818182), wk =   0.0360631
        k(   30) = (  -0.2727273   0.7272727  -0.2727273), wk =   0.0120210
        k(   31) = (  -0.3636364   0.3636364   0.1818182), wk =   0.0360631
        k(   32) = (  -0.3636364   0.2727273   0.2727273), wk =   0.0360631
        k(   33) = (   0.5454545  -0.5454545   0.1818182), wk =   0.0360631
        k(   34) = (   0.5454545  -0.6363636   0.2727273), wk =   0.0721262
        k(   35) = (   0.4545455  -0.5454545   0.2727273), wk =   0.0360631
        k(   36) = (   0.4545455  -0.6363636   0.3636364), wk =   0.0360631
        k(   37) = (   0.0000000   0.0000000   0.3636364), wk =   0.0090158
        k(   38) = (   0.0000000  -0.0909091   0.4545455), wk =   0.0360631
        k(   39) = (   0.0000000  -0.1818182   0.5454545), wk =   0.0360631
        k(   40) = (   0.0000000  -0.2727273   0.6363636), wk =   0.0360631
        k(   41) = (  -0.0909091  -0.0909091   0.5454545), wk =   0.0360631
        k(   42) = (  -0.0909091  -0.1818182   0.6363636), wk =   0.0721262
        k(   43) = (  -0.0909091   0.7272727  -0.2727273), wk =   0.0360631
        k(   44) = (  -0.1818182   0.8181818  -0.2727273), wk =   0.0360631
        k(   45) = (   0.6363636  -0.6363636   0.3636364), wk =   0.0120210
        k(   46) = (   0.5454545  -0.5454545   0.3636364), wk =   0.0360631
        k(   47) = (   0.4545455  -0.5454545   0.4545455), wk =   0.0120210
        k(   48) = (   0.0000000   0.0000000   0.5454545), wk =   0.0090158
        k(   49) = (   0.0000000  -0.0909091   0.6363636), wk =   0.0360631
        k(   50) = (   0.0000000  -0.1818182   0.7272727), wk =   0.0360631
        k(   51) = (  -0.0909091  -0.0909091   0.7272727), wk =   0.0360631
        k(   52) = (  -0.0909091   0.8181818  -0.1818182), wk =   0.0360631
        k(   53) = (   0.0000000   0.0000000   0.7272727), wk =   0.0090158
        k(   54) = (   0.0000000  -0.0909091   0.8181818), wk =   0.0360631
        k(   55) = (  -0.0909091   0.9090909  -0.0909091), wk =   0.0120210
        k(   56) = (   0.0000000   0.0000000   0.9090909), wk =   0.0090158

     Dense  grid:    60047 G-vectors     FFT dimensions: (  54,  54,  54)

     Estimated max dynamical RAM per process >      58.62 MB

     Estimated total dynamical RAM >     293.11 MB

     Check: negative/imaginary core charge=   -0.000001    0.000000

     Initial potential from superposition of free atoms

     starting charge    8.98437, renormalised to    9.00000
     Starting wfcs are    8 randomized atomic wfcs +    1 random wfcs
     Checking if some PAW data can be deallocated... 

     total cpu time spent up to now is        2.4 secs

     Self-consistent Calculation

     iteration #  1     ecut=    95.00 Ry     beta= 0.70
     Davidson diagonalization with overlap
     ethr =  1.00E-02,  avg # of iterations =  6.4

     Threshold (ethr) on eigenvalues was too large:
     Diagonalizing with lowered threshold

     Davidson diagonalization with overlap
     ethr =  1.22E-05,  avg # of iterations =  6.4

     total cpu time spent up to now is       13.2 secs

     total energy              =    -109.87194972 Ry
     Harris-Foulkes estimate   =    -109.87250674 Ry
     estimated scf accuracy    <       0.00110674 Ry

     iteration #  2     ecut=    95.00 Ry     beta= 0.70
     Davidson diagonalization with overlap
     ethr =  1.23E-05,  avg # of iterations =  2.1

     total cpu time spent up to now is       16.9 secs

     total energy              =    -109.87213661 Ry
     Harris-Foulkes estimate   =    -109.87216188 Ry
     estimated scf accuracy    <       0.00008953 Ry

     iteration #  3     ecut=    95.00 Ry     beta= 0.70
     Davidson diagonalization with overlap
     ethr =  9.95E-07,  avg # of iterations =  2.3

     total cpu time spent up to now is       20.5 secs

     total energy              =    -109.87214802 Ry
     Harris-Foulkes estimate   =    -109.87214776 Ry
     estimated scf accuracy    <       0.00000597 Ry

     iteration #  4     ecut=    95.00 Ry     beta= 0.70
     Davidson diagonalization with overlap
     ethr =  6.63E-08,  avg # of iterations =  1.5

     total cpu time spent up to now is       23.5 secs

     total energy              =    -109.87214868 Ry
     Harris-Foulkes estimate   =    -109.87214867 Ry
     estimated scf accuracy    <       0.00000004 Ry

     iteration #  5     ecut=    95.00 Ry     beta= 0.70
     Davidson diagonalization with overlap
     ethr =  4.42E-10,  avg # of iterations =  2.6

     total cpu time spent up to now is       27.0 secs

     End of self-consistent calculation

          k = 0.0000 0.0000 0.0000 (  7419 PWs)   bands (ev):

   -30.0995 -13.7374 -13.7374 -13.7374  -0.4767   5.9285   5.9285   5.9285
     6.8742

          k = 0.0000-0.0909 0.0909 (  7539 PWs)   bands (ev):

   -30.0990 -13.7438 -13.7395 -13.7374  -0.3704   5.7870   5.8033   6.0135
     6.7091

          k = 0.0000-0.1818 0.1818 (  7497 PWs)   bands (ev):

   -30.0979 -13.7610 -13.7453 -13.7374  -0.0575   5.2382   5.5168   6.2653
     6.6321

          k = 0.0000-0.2727 0.2727 (  7478 PWs)   bands (ev):

   -30.0965 -13.7833 -13.7527 -13.7373   0.4437   4.4573   5.2121   6.6744
     6.7006

          k = 0.0000-0.3636 0.3636 (  7486 PWs)   bands (ev):

   -30.0952 -13.8036 -13.7596 -13.7373   1.1024   3.6196   4.9765   6.6778
     7.0315

          k = 0.0000-0.4545 0.4545 (  7514 PWs)   bands (ev):

   -30.0944 -13.8155 -13.7637 -13.7373   1.8624   2.7787   4.8509   6.5550
     7.2826

          k =-0.0909-0.0909 0.1818 (  7516 PWs)   bands (ev):

   -30.0983 -13.7557 -13.7418 -13.7389  -0.1608   5.4769   5.5562   6.1741
     6.5386

          k =-0.0909-0.1818 0.2727 (  7490 PWs)   bands (ev):

   -30.0970 -13.7746 -13.7487 -13.7396   0.2468   4.8425   5.2236   6.4690
     6.5243

          k =-0.0909-0.2727 0.3636 (  7491 PWs)   bands (ev):

   -30.0956 -13.7945 -13.7570 -13.7397   0.8284   4.0621   4.9479   6.5536
     6.8825

          k =-0.0909-0.3636 0.4545 (  7488 PWs)   bands (ev):

   -30.0946 -13.8094 -13.7635 -13.7398   1.5458   3.2364   4.7691   6.4615
     7.1873

          k =-0.0909 0.5455-0.4545 (  7490 PWs)   bands (ev):

   -30.0942 -13.8150 -13.7660 -13.7398   2.2256   2.5231   4.7074   6.3744
     7.6781

          k =-0.1818-0.1818 0.3636 (  7491 PWs)   bands (ev):

   -30.0958 -13.7897 -13.7553 -13.7427   0.7358   4.3694   4.7829   6.5355
     6.6697

          k =-0.1818-0.2727 0.4545 (  7496 PWs)   bands (ev):

   -30.0947 -13.8017 -13.7648 -13.7440   1.3812   3.7284   4.4596   6.4856
     6.8014

          k =-0.1818 0.6364-0.4545 (  7493 PWs)   bands (ev):

   -30.0940 -13.8081 -13.7715 -13.7444   2.1357   2.9610   4.3046   6.2759
     7.0807

          k =-0.2727 0.7273-0.4545 (  7492 PWs)   bands (ev):

   -30.0940 -13.8023 -13.7765 -13.7464   2.0675   3.4204   3.8724   6.3489
     6.7903

          k =-0.2727 0.6364-0.3636 (  7495 PWs)   bands (ev):

   -30.0937 -13.7996 -13.7841 -13.7470   2.8103   2.8290   3.6393   6.2468
     6.9745

          k = 0.0000 0.0000 0.1818 (  7519 PWs)   bands (ev):

   -30.0986 -13.7457 -13.7417 -13.7417  -0.2650   5.7376   5.7376   6.0514
     6.3058

          k = 0.0000-0.0909 0.2727 (  7500 PWs)   bands (ev):

   -30.0976 -13.7611 -13.7475 -13.7426   0.0453   5.2722   5.5007   6.0806
     6.2764

          k = 0.0000-0.1818 0.3636 (  7483 PWs)   bands (ev):

   -30.0961 -13.7826 -13.7550 -13.7424   0.5424   4.4961   5.2234   6.1224
     6.6748

          k = 0.0000-0.2727 0.4545 (  7499 PWs)   bands (ev):

   -30.0948 -13.8022 -13.7620 -13.7421   1.1962   3.6719   5.0035   6.1304
     7.1729

          k = 0.0000-0.3636 0.5455 (  7493 PWs)   bands (ev):

   -30.0941 -13.8138 -13.7661 -13.7420   1.9551   2.8385   4.8851   6.0475
     7.2155

          k =-0.0909-0.0909 0.3636 (  7487 PWs)   bands (ev):

   -30.0963 -13.7757 -13.7540 -13.7463   0.4458   4.8097   5.2037   5.9518
     6.5327

          k =-0.0909-0.1818 0.4545 (  7487 PWs)   bands (ev):

   -30.0950 -13.7932 -13.7624 -13.7470   1.0177   4.1246   4.9021   6.0148
     6.8513

          k =-0.0909-0.2727 0.5455 (  7500 PWs)   bands (ev):

   -30.0940 -13.8066 -13.7693 -13.7470   1.7246   3.3481   4.7020   5.9694
     6.9673

          k =-0.0909 0.6364-0.3636 (  7487 PWs)   bands (ev):

   -30.0936 -13.8117 -13.7718 -13.7469   2.4385   2.6117   4.6306   5.9027
     7.0911

          k =-0.1818 0.1818 0.1818 (  7485 PWs)   bands (ev):

   -30.0973 -13.7720 -13.7422 -13.7422   0.1465   5.0938   5.0938   6.3975
     6.8291

          k =-0.1818-0.1818 0.5455 (  7492 PWs)   bands (ev):

   -30.0939 -13.8011 -13.7730 -13.7491   1.6448   3.7299   4.3579   6.1923
     6.6400

          k =-0.1818 0.7273-0.3636 (  7489 PWs)   bands (ev):

   -30.0933 -13.8042 -13.7815 -13.7496   2.3791   3.1356   4.0201   6.2262
     6.7644

          k =-0.2727 0.2727 0.1818 (  7481 PWs)   bands (ev):

   -30.0961 -13.7889 -13.7507 -13.7426   0.6400   4.4418   4.7722   6.6021
     6.8871

          k =-0.2727 0.7273-0.2727 (  7488 PWs)   bands (ev):

   -30.0931 -13.7949 -13.7949 -13.7502   2.9984   2.9984   3.4316   6.6456
     6.8073

          k =-0.3636 0.3636 0.1818 (  7499 PWs)   bands (ev):

   -30.0950 -13.8023 -13.7604 -13.7431   1.2908   3.6966   4.5481   6.5143
     7.0891

          k =-0.3636 0.2727 0.2727 (  7487 PWs)   bands (ev):

   -30.0951 -13.7987 -13.7571 -13.7473   1.2043   4.0394   4.3113   6.4073
     7.0029

          k = 0.5455-0.5455 0.1818 (  7490 PWs)   bands (ev):

   -30.0943 -13.8096 -13.7668 -13.7433   2.0485   2.8996   4.4337   6.2831
     7.3121

          k = 0.5455-0.6364 0.2727 (  7488 PWs)   bands (ev):

   -30.0943 -13.8024 -13.7677 -13.7491   1.9033   3.4304   4.0674   6.0043
     7.1335

          k = 0.4545-0.5455 0.2727 (  7491 PWs)   bands (ev):

   -30.0941 -13.8024 -13.7732 -13.7496   2.6391   2.7162   3.9967   5.8263
     7.2340

          k = 0.4545-0.6364 0.3636 (  7497 PWs)   bands (ev):

   -30.0940 -13.7951 -13.7798 -13.7523   2.6108   3.2149   3.5254   5.6323
     7.2162

          k = 0.0000 0.0000 0.3636 (  7495 PWs)   bands (ev):

   -30.0965 -13.7647 -13.7534 -13.7534   0.3477   5.2966   5.4049   5.4049
     6.4042

          k = 0.0000-0.0909 0.4545 (  7475 PWs)   bands (ev):

   -30.0952 -13.7811 -13.7612 -13.7556   0.8320   4.5673   5.2325   5.4871
     6.7294

          k = 0.0000-0.1818 0.5455 (  7490 PWs)   bands (ev):

   -30.0939 -13.7987 -13.7684 -13.7550   1.4685   3.8070   5.0700   5.4783
     6.7961

          k = 0.0000-0.2727 0.6364 (  7503 PWs)   bands (ev):

   -30.0932 -13.8092 -13.7726 -13.7544   2.2132   3.0185   4.9768   5.3520
     6.8513

          k =-0.0909-0.0909 0.5455 (  7496 PWs)   bands (ev):

   -30.0939 -13.7921 -13.7703 -13.7594   1.3818   4.1217   4.8957   5.5671
     6.5937

          k =-0.0909-0.1818 0.6364 (  7506 PWs)   bands (ev):

   -30.0930 -13.8022 -13.7782 -13.7594   2.0582   3.5267   4.5580   5.6481
     6.4901

          k =-0.0909 0.7273-0.2727 (  7497 PWs)   bands (ev):

   -30.0926 -13.8061 -13.7812 -13.7592   2.7868   2.8216   4.4321   5.6224
     6.6225

          k =-0.1818 0.8182-0.2727 (  7496 PWs)   bands (ev):

   -30.0924 -13.8004 -13.7898 -13.7601   2.7250   3.2727   3.9159   6.0340
     6.3380

          k = 0.6364-0.6364 0.3636 (  7485 PWs)   bands (ev):

   -30.0945 -13.7999 -13.7587 -13.7587   1.8236   3.8220   3.8220   5.7667
     7.2862

          k = 0.5455-0.5455 0.3636 (  7503 PWs)   bands (ev):

   -30.0941 -13.7947 -13.7714 -13.7597   2.5378   3.2429   3.7147   5.2798
     7.3389

          k = 0.4545-0.5455 0.4545 (  7506 PWs)   bands (ev):

   -30.0940 -13.7817 -13.7817 -13.7650   3.1135   3.1135   3.3706   4.9432
     7.4101

          k = 0.0000 0.0000 0.5455 (  7487 PWs)   bands (ev):

   -30.0939 -13.7825 -13.7693 -13.7693   1.2928   4.3998   5.2011   5.2011
     6.4675

          k = 0.0000-0.0909 0.6364 (  7491 PWs)   bands (ev):

   -30.0927 -13.7942 -13.7768 -13.7715   1.8919   3.9042   5.1157   5.1409
     6.1264

          k = 0.0000-0.1818 0.7273 (  7498 PWs)   bands (ev):

   -30.0921 -13.8032 -13.7812 -13.7706   2.5770   3.2873   4.8816   5.0961
     6.2860

          k =-0.0909-0.0909 0.7273 (  7494 PWs)   bands (ev):

   -30.0918 -13.7983 -13.7859 -13.7738   2.4988   3.5886   4.6011   5.4592
     5.9450

          k =-0.0909 0.8182-0.1818 (  7496 PWs)   bands (ev):

   -30.0915 -13.8000 -13.7902 -13.7736   3.0352   3.2074   4.3374   5.5541
     6.0323

          k = 0.0000 0.0000 0.7273 (  7488 PWs)   bands (ev):

   -30.0917 -13.7921 -13.7844 -13.7844   2.4193   3.7660   5.1864   5.1864
     5.4928

          k = 0.0000-0.0909 0.8182 (  7505 PWs)   bands (ev):

   -30.0910 -13.7977 -13.7890 -13.7853   2.9659   3.4677   4.8677   5.2039
     5.6818

          k =-0.0909 0.9091-0.0909 (  7514 PWs)   bands (ev):

   -30.0907 -13.7954 -13.7954 -13.7863   3.3045   3.3045   4.7170   5.5003
     5.5003

          k = 0.0000 0.0000 0.9091 (  7484 PWs)   bands (ev):

   -30.0904 -13.7947 -13.7936 -13.7936   3.2837   3.4417   5.2326   5.2662
     5.2662

     the Fermi energy is     1.7632 ev

!    total energy              =    -109.87214870 Ry
     Harris-Foulkes estimate   =    -109.87214870 Ry
     estimated scf accuracy    <          3.9E-09 Ry

     total all-electron energy =     -1201.197148 Ry

     The total energy is the sum of the following terms:

     one-electron contribution =     -35.37039380 Ry
     hartree contribution      =      18.82556738 Ry
     xc contribution           =     -11.01680715 Ry
     ewald contribution        =     -29.89633970 Ry
     one-center paw contrib.   =     -52.41373563 Ry
     smearing contrib. (-TS)   =      -0.00043981 Ry

     convergence has been achieved in   5 iterations

     Forces acting on atoms (cartesian axes, Ry/au):

     atom    1 type  1   force =     0.00000000    0.00000000    0.00000000

     Total force =     0.000000     Total SCF correction =     0.000000


     Computing stress (Cartesian axis) and pressure

          total   stress  (Ry/bohr**3)                   (kbar)     P=   -3.89
  -0.00002646   0.00000000  -0.00000000         -3.89      0.00     -0.00
   0.00000000  -0.00002646   0.00000000          0.00     -3.89      0.00
  -0.00000000   0.00000000  -0.00002646         -0.00      0.00     -3.89


     Writing output data file K.save/

     init_run     :      1.55s CPU      1.60s WALL (       1 calls)
     electrons    :     23.92s CPU     24.67s WALL (       1 calls)
     forces       :      0.30s CPU      0.30s WALL (       1 calls)
     stress       :      1.34s CPU      1.35s WALL (       1 calls)

     Called by init_run:
     wfcinit      :      1.06s CPU      1.10s WALL (       1 calls)
     potinit      :      0.07s CPU      0.08s WALL (       1 calls)
     hinit0       :      0.26s CPU      0.26s WALL (       1 calls)

     Called by electrons:
     c_bands      :     19.85s CPU     20.45s WALL (       6 calls)
     sum_band     :      3.52s CPU      3.66s WALL (       6 calls)
     v_of_rho     :      0.04s CPU      0.04s WALL (       6 calls)
     newd         :      0.35s CPU      0.36s WALL (       6 calls)
     PAW_pot      :      0.25s CPU      0.25s WALL (       6 calls)
     mix_rho      :      0.02s CPU      0.02s WALL (       6 calls)

     Called by c_bands:
     init_us_2    :      0.75s CPU      0.77s WALL (     840 calls)
     cegterg      :     18.96s CPU     19.55s WALL (     336 calls)

     Called by sum_band:
     sum_band:bec :      0.00s CPU      0.01s WALL (     336 calls)
     addusdens    :      0.33s CPU      0.35s WALL (       6 calls)

     Called by *egterg:
     h_psi        :     16.02s CPU     16.60s WALL (    1586 calls)
     s_psi        :      0.50s CPU      0.51s WALL (    1586 calls)
     g_psi        :      0.05s CPU      0.05s WALL (    1194 calls)
     cdiaghg      :      0.38s CPU      0.39s WALL (    1474 calls)

     Called by h_psi:
     h_psi:pot    :     15.93s CPU     16.50s WALL (    1586 calls)
     h_psi:calbec :      0.94s CPU      0.96s WALL (    1586 calls)
     vloc_psi     :     14.41s CPU     14.95s WALL (    1586 calls)
     add_vuspsi   :      0.56s CPU      0.57s WALL (    1586 calls)

     General routines
     calbec       :      1.43s CPU      1.46s WALL (    2202 calls)
     fft          :      0.07s CPU      0.07s WALL (      34 calls)
     ffts         :      0.01s CPU      0.01s WALL (       6 calls)
     fftw         :     15.39s CPU     15.99s WALL (   21306 calls)

     Parallel routines
     fft_scatt_xy :      1.27s CPU      1.33s WALL (   21346 calls)
     fft_scatt_yz :      3.24s CPU      3.39s WALL (   21346 calls)

     PWSCF        :    27.94s CPU        28.94s WALL


   This run was terminated on:   1:36: 7   8Apr2024            

=------------------------------------------------------------------------------=
   JOB DONE.
=------------------------------------------------------------------------------=
