
     Program PWSCF v.6.3MaX starts on  8Apr2024 at  1:19:44 

     This program is part of the open-source Quantum ESPRESSO suite
     for quantum simulation of materials; please cite
         "P. Giannozzi et al., J. Phys.:Condens. Matter 21 395502 (2009);
         "P. Giannozzi et al., J. Phys.:Condens. Matter 29 465901 (2017);
          URL http://www.quantum-espresso.org", 
     in publications or presentations arising from this work. More details at
     http://www.quantum-espresso.org/quote

     Parallel version (MPI), running on     5 processors

     MPI processes distributed on     1 nodes
     R & G space division:  proc/nbgrp/npool/nimage =       5
     Waiting for input...
     Reading input from standard input

     Current dimensions of program PWSCF are:
     Max number of different atomic species (ntypx) = 10
     Max number of k-points (npk) =  40000
     Max angular momentum in pseudopotentials (lmaxx) =  3
               file K.pbe-spn-kjpaw_psl.1.0.0.UPF: wavefunction(s)  3S renormalized

     Subspace diagonalization in iterative solution of the eigenvalue problem:
     a serial algorithm will be used


     Parallelization info
     --------------------
     sticks:   dense  smooth     PW     G-vecs:    dense   smooth      PW
     Min         369     369    107                10119    10119    1560
     Max         370     370    107                10120    10120    1561
     Sum        1849    1849    535                50597    50597    7803



     bravais-lattice index     =            3
     lattice parameter (alat)  =       9.8600  a.u.
     unit-cell volume          =     479.2926 (a.u.)^3
     number of atoms/cell      =            1
     number of atomic types    =            1
     number of electrons       =         9.00
     number of Kohn-Sham states=            9
     kinetic-energy cutoff     =      85.0000  Ry
     charge density cutoff     =     340.0000  Ry
     convergence threshold     =      1.0E-08
     mixing beta               =       0.7000
     number of iterations used =            8  plain     mixing
     Exchange-correlation      = SLA PW PBX PBC ( 1  4  3  4 0 0)

     celldm(1)=   9.860000  celldm(2)=   0.000000  celldm(3)=   0.000000
     celldm(4)=   0.000000  celldm(5)=   0.000000  celldm(6)=   0.000000

     crystal axes: (cart. coord. in units of alat)
               a(1) = (   0.500000   0.500000   0.500000 )  
               a(2) = (  -0.500000   0.500000   0.500000 )  
               a(3) = (  -0.500000  -0.500000   0.500000 )  

     reciprocal axes: (cart. coord. in units 2 pi/alat)
               b(1) = (  1.000000  0.000000  1.000000 )  
               b(2) = ( -1.000000  1.000000  0.000000 )  
               b(3) = (  0.000000 -1.000000  1.000000 )  


     PseudoPot. # 1 for K  read from file:
     /home/lorenzo/pseudos/K/K.pbe-spn-kjpaw_psl.1.0.0.UPF
     MD5 check sum: 34cc42130a09071ebe376fd42eb21491
     Pseudo is Projector augmented-wave + core cor, Zval =  9.0
     Generated using "atomic" code by A. Dal Corso v.6.2.2
     Shape of augmentation charge: PSQ
     Using radial grid of 1165 points,  6 beta functions with: 
                l(1) =   0
                l(2) =   0
                l(3) =   1
                l(4) =   1
                l(5) =   2
                l(6) =   2
     Q(r) pseudized with 0 coefficients 


     atomic species   valence    mass     pseudopotential
        K              9.00    39.09830     K ( 1.00)

     48 Sym. Ops., with inversion, found



   Cartesian axes

     site n.     atom                  positions (alat units)
         1           K   tau(   1) = (   0.0000000   0.0000000   0.0000000  )

     number of k points=    16  gaussian smearing, width (Ry)=  0.0100
                       cart. coord. in units 2pi/alat
        k(    1) = (   0.0000000   0.0000000   0.0000000), wk =   0.0092593
        k(    2) = (   0.0000000  -0.1666667   0.1666667), wk =   0.1111111
        k(    3) = (   0.0000000  -0.3333333   0.3333333), wk =   0.1111111
        k(    4) = (   0.0000000   0.5000000  -0.5000000), wk =   0.0555556
        k(    5) = (  -0.1666667  -0.1666667   0.3333333), wk =   0.2222222
        k(    6) = (  -0.1666667   0.6666667  -0.5000000), wk =   0.4444444
        k(    7) = (  -0.3333333   0.6666667  -0.3333333), wk =   0.0740741
        k(    8) = (   0.0000000   0.0000000   0.3333333), wk =   0.0555556
        k(    9) = (   0.0000000  -0.1666667   0.5000000), wk =   0.2222222
        k(   10) = (   0.0000000   0.6666667  -0.3333333), wk =   0.1111111
        k(   11) = (  -0.1666667   0.8333333  -0.3333333), wk =   0.2222222
        k(   12) = (   0.6666667  -0.6666667   0.3333333), wk =   0.0740741
        k(   13) = (   0.5000000  -0.5000000   0.3333333), wk =   0.1111111
        k(   14) = (   0.0000000   0.0000000   0.6666667), wk =   0.0555556
        k(   15) = (   0.0000000   0.8333333  -0.1666667), wk =   0.1111111
        k(   16) = (   0.0000000   0.0000000  -1.0000000), wk =   0.0092593

     Dense  grid:    50597 G-vectors     FFT dimensions: (  54,  54,  54)

     Estimated max dynamical RAM per process >      43.08 MB

     Estimated total dynamical RAM >     215.39 MB

     Check: negative/imaginary core charge=   -0.000001    0.000000

     Initial potential from superposition of free atoms

     starting charge    8.98117, renormalised to    9.00000
     Starting wfcs are    8 randomized atomic wfcs +    1 random wfcs
     Checking if some PAW data can be deallocated... 

     total cpu time spent up to now is        1.5 secs

     Self-consistent Calculation

     iteration #  1     ecut=    85.00 Ry     beta= 0.70
     Davidson diagonalization with overlap
     ethr =  1.00E-02,  avg # of iterations =  6.7

     Threshold (ethr) on eigenvalues was too large:
     Diagonalizing with lowered threshold

     Davidson diagonalization with overlap
     ethr =  1.40E-05,  avg # of iterations =  6.5

     total cpu time spent up to now is        4.8 secs

     total energy              =    -113.01009791 Ry
     Harris-Foulkes estimate   =    -113.01061170 Ry
     estimated scf accuracy    <       0.00124925 Ry

     iteration #  2     ecut=    85.00 Ry     beta= 0.70
     Davidson diagonalization with overlap
     ethr =  1.39E-05,  avg # of iterations =  2.1

     total cpu time spent up to now is        5.9 secs

     total energy              =    -113.01031875 Ry
     Harris-Foulkes estimate   =    -113.01032834 Ry
     estimated scf accuracy    <       0.00010064 Ry

     iteration #  3     ecut=    85.00 Ry     beta= 0.70
     Davidson diagonalization with overlap
     ethr =  1.12E-06,  avg # of iterations =  2.0

     total cpu time spent up to now is        6.9 secs

     total energy              =    -113.01033076 Ry
     Harris-Foulkes estimate   =    -113.01032852 Ry
     estimated scf accuracy    <       0.00000680 Ry

     iteration #  4     ecut=    85.00 Ry     beta= 0.70
     Davidson diagonalization with overlap
     ethr =  7.55E-08,  avg # of iterations =  1.5

     total cpu time spent up to now is        7.8 secs

     total energy              =    -113.01033143 Ry
     Harris-Foulkes estimate   =    -113.01033143 Ry
     estimated scf accuracy    <       0.00000005 Ry

     iteration #  5     ecut=    85.00 Ry     beta= 0.70
     Davidson diagonalization with overlap
     ethr =  5.84E-10,  avg # of iterations =  2.9

     total cpu time spent up to now is        8.9 secs

     End of self-consistent calculation

          k = 0.0000 0.0000 0.0000 (  6363 PWs)   bands (ev):

   -30.1645 -13.6128 -13.6128 -13.6128  -0.2616   6.2633   6.2633   7.1822
     7.1823

          k = 0.0000-0.1667 0.1667 (  6361 PWs)   bands (ev):

   -30.1633 -13.6322 -13.6192 -13.6128   0.0897   5.6327   5.8813   6.5453
     6.9368

          k = 0.0000-0.3333 0.3333 (  6344 PWs)   bands (ev):

   -30.1609 -13.6704 -13.6321 -13.6128   1.0773   4.1197   5.3354   7.0340
     7.2497

          k = 0.0000 0.5000-0.5000 (  6300 PWs)   bands (ev):

   -30.1597 -13.6892 -13.6384 -13.6127   2.3890   2.6486   5.1201   6.8718
     7.9903

          k =-0.1667-0.1667 0.3333 (  6362 PWs)   bands (ev):

   -30.1615 -13.6581 -13.6272 -13.6172   0.7609   4.7936   5.1889   6.8184
     6.9387

          k =-0.1667 0.6667-0.5000 (  6336 PWs)   bands (ev):

   -30.1597 -13.6795 -13.6423 -13.6188   1.9773   3.4680   4.6894   6.6780
     7.3332

          k =-0.3333 0.6667-0.3333 (  6326 PWs)   bands (ev):

   -30.1591 -13.6654 -13.6654 -13.6224   3.1568   3.1568   3.5774   6.5948
     7.3438

          k = 0.0000 0.0000 0.3333 (  6331 PWs)   bands (ev):

   -30.1622 -13.6357 -13.6259 -13.6259   0.4309   5.6996   5.7501   5.7501
     6.6680

          k = 0.0000-0.1667 0.5000 (  6346 PWs)   bands (ev):

   -30.1599 -13.6669 -13.6392 -13.6274   1.3894   4.2595   5.3874   5.8633
     7.2774

          k = 0.0000 0.6667-0.3333 (  6326 PWs)   bands (ev):

   -30.1587 -13.6839 -13.6458 -13.6267   2.7373   2.8020   5.2189   5.7075
     7.2744

          k =-0.1667 0.8333-0.3333 (  6328 PWs)   bands (ev):

   -30.1583 -13.6744 -13.6574 -13.6325   2.5130   3.6519   4.4031   6.2364
     6.7206

          k = 0.6667-0.6667 0.3333 (  6384 PWs)   bands (ev):

   -30.1602 -13.6730 -13.6298 -13.6298   1.6961   4.2247   4.2247   6.4105
     7.5578

          k = 0.5000-0.5000 0.3333 (  6342 PWs)   bands (ev):

   -30.1595 -13.6694 -13.6471 -13.6311   2.9891   3.0441   4.0379   5.7323
     7.6658

          k = 0.0000 0.0000 0.6667 (  6346 PWs)   bands (ev):

   -30.1578 -13.6631 -13.6534 -13.6534   2.2385   4.1498   5.4267   5.4267
     6.0573

          k = 0.0000 0.8333-0.1667 (  6344 PWs)   bands (ev):

   -30.1568 -13.6732 -13.6605 -13.6542   3.2333   3.4575   5.0190   5.4151
     6.2005

          k = 0.0000 0.0000-1.0000 (  6434 PWs)   bands (ev):

   -30.1559 -13.6678 -13.6678 -13.6678   3.5997   3.5997   5.5108   5.5108
     5.5108

     the Fermi energy is     1.9622 ev

!    total energy              =    -113.01033145 Ry
     Harris-Foulkes estimate   =    -113.01033145 Ry
     estimated scf accuracy    <          2.8E-09 Ry

     total all-electron energy =     -1204.249042 Ry

     The total energy is the sum of the following terms:

     one-electron contribution =     -35.40421494 Ry
     hartree contribution      =      18.88102902 Ry
     xc contribution           =     -11.16995304 Ry
     ewald contribution        =     -29.89633970 Ry
     one-center paw contrib.   =     -55.41960725 Ry
     smearing contrib. (-TS)   =      -0.00124554 Ry

     convergence has been achieved in   5 iterations

     Forces acting on atoms (cartesian axes, Ry/au):

     atom    1 type  1   force =     0.00000000    0.00000000    0.00000000

     Total force =     0.000000     Total SCF correction =     0.000000


     Computing stress (Cartesian axis) and pressure

          total   stress  (Ry/bohr**3)                   (kbar)     P=    1.62
   0.00001104   0.00000000   0.00000000          1.62      0.00      0.00
   0.00000000   0.00001104   0.00000000          0.00      1.62      0.00
   0.00000000   0.00000000   0.00001104          0.00      0.00      1.62


     Writing output data file K.save/

     init_run     :      0.76s CPU      0.80s WALL (       1 calls)
     electrons    :      7.21s CPU      7.44s WALL (       1 calls)
     forces       :      0.19s CPU      0.19s WALL (       1 calls)
     stress       :      0.66s CPU      0.66s WALL (       1 calls)

     Called by init_run:
     wfcinit      :      0.28s CPU      0.28s WALL (       1 calls)
     potinit      :      0.13s CPU      0.15s WALL (       1 calls)
     hinit0       :      0.23s CPU      0.23s WALL (       1 calls)

     Called by electrons:
     c_bands      :      5.26s CPU      5.43s WALL (       6 calls)
     sum_band     :      1.11s CPU      1.14s WALL (       6 calls)
     v_of_rho     :      0.19s CPU      0.19s WALL (       6 calls)
     newd         :      0.28s CPU      0.29s WALL (       6 calls)
     PAW_pot      :      0.50s CPU      0.53s WALL (       6 calls)
     mix_rho      :      0.02s CPU      0.02s WALL (       6 calls)

     Called by c_bands:
     init_us_2    :      0.18s CPU      0.19s WALL (     240 calls)
     cegterg      :      5.05s CPU      5.21s WALL (      96 calls)

     Called by sum_band:
     sum_band:bec :      0.00s CPU      0.00s WALL (      96 calls)
     addusdens    :      0.27s CPU      0.28s WALL (       6 calls)

     Called by *egterg:
     h_psi        :      4.34s CPU      4.50s WALL (     459 calls)
     s_psi        :      0.13s CPU      0.13s WALL (     459 calls)
     g_psi        :      0.01s CPU      0.01s WALL (     347 calls)
     cdiaghg      :      0.11s CPU      0.11s WALL (     427 calls)

     Called by h_psi:
     h_psi:pot    :      4.31s CPU      4.47s WALL (     459 calls)
     h_psi:calbec :      0.23s CPU      0.23s WALL (     459 calls)
     vloc_psi     :      3.94s CPU      4.09s WALL (     459 calls)
     add_vuspsi   :      0.14s CPU      0.15s WALL (     459 calls)

     General routines
     calbec       :      0.38s CPU      0.38s WALL (     635 calls)
     fft          :      0.11s CPU      0.12s WALL (      93 calls)
     ffts         :      0.01s CPU      0.01s WALL (       6 calls)
     fftw         :      4.19s CPU      4.35s WALL (    5956 calls)

     Parallel routines
     fft_scatt_xy :      0.35s CPU      0.37s WALL (    6055 calls)
     fft_scatt_yz :      0.85s CPU      0.89s WALL (    6055 calls)

     PWSCF        :     9.57s CPU         9.90s WALL


   This run was terminated on:   1:19:54   8Apr2024            

=------------------------------------------------------------------------------=
   JOB DONE.
=------------------------------------------------------------------------------=
