
     Program PWSCF v.6.3MaX starts on  8Apr2024 at  0:23:31 

     This program is part of the open-source Quantum ESPRESSO suite
     for quantum simulation of materials; please cite
         "P. Giannozzi et al., J. Phys.:Condens. Matter 21 395502 (2009);
         "P. Giannozzi et al., J. Phys.:Condens. Matter 29 465901 (2017);
          URL http://www.quantum-espresso.org", 
     in publications or presentations arising from this work. More details at
     http://www.quantum-espresso.org/quote

     Parallel version (MPI), running on     5 processors

     MPI processes distributed on     1 nodes
     R & G space division:  proc/nbgrp/npool/nimage =       5
     Waiting for input...
     Reading input from standard input

     Current dimensions of program PWSCF are:
     Max number of different atomic species (ntypx) = 10
     Max number of k-points (npk) =  40000
     Max angular momentum in pseudopotentials (lmaxx) =  3
               file K.pbe-spn-kjpaw_psl.1.0.0.UPF: wavefunction(s)  3S renormalized

     Subspace diagonalization in iterative solution of the eigenvalue problem:
     a serial algorithm will be used


     Parallelization info
     --------------------
     sticks:   dense  smooth     PW     G-vecs:    dense   smooth      PW
     Min         153     153     45                 2690     2690     447
     Max         154     154     46                 2691     2691     449
     Sum         769     769    229                13451    13451    2243



     bravais-lattice index     =            3
     lattice parameter (alat)  =       9.8600  a.u.
     unit-cell volume          =     479.2926 (a.u.)^3
     number of atoms/cell      =            1
     number of atomic types    =            1
     number of electrons       =         9.00
     number of Kohn-Sham states=            9
     kinetic-energy cutoff     =      35.0000  Ry
     charge density cutoff     =     140.0000  Ry
     convergence threshold     =      1.0E-08
     mixing beta               =       0.7000
     number of iterations used =            8  plain     mixing
     Exchange-correlation      = SLA PW PBX PBC ( 1  4  3  4 0 0)

     celldm(1)=   9.860000  celldm(2)=   0.000000  celldm(3)=   0.000000
     celldm(4)=   0.000000  celldm(5)=   0.000000  celldm(6)=   0.000000

     crystal axes: (cart. coord. in units of alat)
               a(1) = (   0.500000   0.500000   0.500000 )  
               a(2) = (  -0.500000   0.500000   0.500000 )  
               a(3) = (  -0.500000  -0.500000   0.500000 )  

     reciprocal axes: (cart. coord. in units 2 pi/alat)
               b(1) = (  1.000000  0.000000  1.000000 )  
               b(2) = ( -1.000000  1.000000  0.000000 )  
               b(3) = (  0.000000 -1.000000  1.000000 )  


     PseudoPot. # 1 for K  read from file:
     /home/lorenzo/pseudos/K/K.pbe-spn-kjpaw_psl.1.0.0.UPF
     MD5 check sum: 34cc42130a09071ebe376fd42eb21491
     Pseudo is Projector augmented-wave + core cor, Zval =  9.0
     Generated using "atomic" code by A. Dal Corso v.6.2.2
     Shape of augmentation charge: PSQ
     Using radial grid of 1165 points,  6 beta functions with: 
                l(1) =   0
                l(2) =   0
                l(3) =   1
                l(4) =   1
                l(5) =   2
                l(6) =   2
     Q(r) pseudized with 0 coefficients 


     atomic species   valence    mass     pseudopotential
        K              9.00    39.09830     K ( 1.00)

     48 Sym. Ops., with inversion, found



   Cartesian axes

     site n.     atom                  positions (alat units)
         1           K   tau(   1) = (   0.0000000   0.0000000   0.0000000  )

     number of k points=    16  gaussian smearing, width (Ry)=  0.0100
                       cart. coord. in units 2pi/alat
        k(    1) = (   0.0000000   0.0000000   0.0000000), wk =   0.0092593
        k(    2) = (   0.0000000  -0.1666667   0.1666667), wk =   0.1111111
        k(    3) = (   0.0000000  -0.3333333   0.3333333), wk =   0.1111111
        k(    4) = (   0.0000000   0.5000000  -0.5000000), wk =   0.0555556
        k(    5) = (  -0.1666667  -0.1666667   0.3333333), wk =   0.2222222
        k(    6) = (  -0.1666667   0.6666667  -0.5000000), wk =   0.4444444
        k(    7) = (  -0.3333333   0.6666667  -0.3333333), wk =   0.0740741
        k(    8) = (   0.0000000   0.0000000   0.3333333), wk =   0.0555556
        k(    9) = (   0.0000000  -0.1666667   0.5000000), wk =   0.2222222
        k(   10) = (   0.0000000   0.6666667  -0.3333333), wk =   0.1111111
        k(   11) = (  -0.1666667   0.8333333  -0.3333333), wk =   0.2222222
        k(   12) = (   0.6666667  -0.6666667   0.3333333), wk =   0.0740741
        k(   13) = (   0.5000000  -0.5000000   0.3333333), wk =   0.1111111
        k(   14) = (   0.0000000   0.0000000   0.6666667), wk =   0.0555556
        k(   15) = (   0.0000000   0.8333333  -0.1666667), wk =   0.1111111
        k(   16) = (   0.0000000   0.0000000  -1.0000000), wk =   0.0092593

     Dense  grid:    13451 G-vectors     FFT dimensions: (  36,  36,  36)

     Estimated max dynamical RAM per process >      12.45 MB

     Estimated total dynamical RAM >      62.24 MB

     Check: negative/imaginary core charge=   -0.000007    0.000000

     Initial potential from superposition of free atoms

     starting charge    8.98117, renormalised to    9.00000
     Starting wfcs are    8 randomized atomic wfcs +    1 random wfcs
     Checking if some PAW data can be deallocated... 

     total cpu time spent up to now is        1.2 secs

     Self-consistent Calculation

     iteration #  1     ecut=    35.00 Ry     beta= 0.70
     Davidson diagonalization with overlap
     ethr =  1.00E-02,  avg # of iterations =  6.8

     Threshold (ethr) on eigenvalues was too large:
     Diagonalizing with lowered threshold

     Davidson diagonalization with overlap
     ethr =  1.37E-05,  avg # of iterations =  5.6

     total cpu time spent up to now is        2.1 secs

     total energy              =    -113.00811610 Ry
     Harris-Foulkes estimate   =    -113.00861167 Ry
     estimated scf accuracy    <       0.00125334 Ry

     iteration #  2     ecut=    35.00 Ry     beta= 0.70
     Davidson diagonalization with overlap
     ethr =  1.39E-05,  avg # of iterations =  2.1

     total cpu time spent up to now is        2.5 secs

     total energy              =    -113.00832882 Ry
     Harris-Foulkes estimate   =    -113.00833739 Ry
     estimated scf accuracy    <       0.00009733 Ry

     iteration #  3     ecut=    35.00 Ry     beta= 0.70
     Davidson diagonalization with overlap
     ethr =  1.08E-06,  avg # of iterations =  1.9

     total cpu time spent up to now is        2.8 secs

     total energy              =    -113.00834045 Ry
     Harris-Foulkes estimate   =    -113.00833835 Ry
     estimated scf accuracy    <       0.00000654 Ry

     iteration #  4     ecut=    35.00 Ry     beta= 0.70
     Davidson diagonalization with overlap
     ethr =  7.26E-08,  avg # of iterations =  1.5

     total cpu time spent up to now is        3.2 secs

     total energy              =    -113.00834110 Ry
     Harris-Foulkes estimate   =    -113.00834109 Ry
     estimated scf accuracy    <       0.00000005 Ry

     iteration #  5     ecut=    35.00 Ry     beta= 0.70
     Davidson diagonalization with overlap
     ethr =  5.98E-10,  avg # of iterations =  2.4

     total cpu time spent up to now is        3.6 secs

     End of self-consistent calculation

          k = 0.0000 0.0000 0.0000 (  1721 PWs)   bands (ev):

   -30.1595 -13.6099 -13.6099 -13.6099  -0.2614   6.2648   6.2648   7.1836
     7.1837

          k = 0.0000-0.1667 0.1667 (  1671 PWs)   bands (ev):

   -30.1581 -13.6293 -13.6164 -13.6099   0.0900   5.6340   5.8830   6.5471
     6.9388

          k = 0.0000-0.3333 0.3333 (  1659 PWs)   bands (ev):

   -30.1556 -13.6676 -13.6292 -13.6099   1.0776   4.1206   5.3368   7.0360
     7.2517

          k = 0.0000 0.5000-0.5000 (  1674 PWs)   bands (ev):

   -30.1544 -13.6864 -13.6356 -13.6099   2.3892   2.6495   5.1215   6.8730
     7.9910

          k =-0.1667-0.1667 0.3333 (  1673 PWs)   bands (ev):

   -30.1562 -13.6553 -13.6244 -13.6144   0.7612   4.7945   5.1901   6.8201
     6.9400

          k =-0.1667 0.6667-0.5000 (  1677 PWs)   bands (ev):

   -30.1544 -13.6767 -13.6394 -13.6159   1.9777   3.4687   4.6903   6.6787
     7.3347

          k =-0.3333 0.6667-0.3333 (  1683 PWs)   bands (ev):

   -30.1539 -13.6626 -13.6626 -13.6196   3.1577   3.1577   3.5774   6.5947
     7.3458

          k = 0.0000 0.0000 0.3333 (  1669 PWs)   bands (ev):

   -30.1569 -13.6329 -13.6230 -13.6230   0.4312   5.7010   5.7513   5.7513
     6.6700

          k = 0.0000-0.1667 0.5000 (  1678 PWs)   bands (ev):

   -30.1547 -13.6641 -13.6363 -13.6246   1.3898   4.2604   5.3884   5.8642
     7.2790

          k = 0.0000 0.6667-0.3333 (  1688 PWs)   bands (ev):

   -30.1536 -13.6810 -13.6430 -13.6238   2.7375   2.8029   5.2199   5.7082
     7.2761

          k =-0.1667 0.8333-0.3333 (  1687 PWs)   bands (ev):

   -30.1531 -13.6716 -13.6546 -13.6296   2.5136   3.6528   4.4034   6.2375
     6.7217

          k = 0.6667-0.6667 0.3333 (  1661 PWs)   bands (ev):

   -30.1548 -13.6702 -13.6270 -13.6270   1.6965   4.2257   4.2257   6.4096
     7.5607

          k = 0.5000-0.5000 0.3333 (  1666 PWs)   bands (ev):

   -30.1542 -13.6666 -13.6443 -13.6283   2.9899   3.0446   4.0389   5.7313
     7.6692

          k = 0.0000 0.0000 0.6667 (  1685 PWs)   bands (ev):

   -30.1527 -13.6602 -13.6506 -13.6506   2.2391   4.1509   5.4274   5.4274
     6.0576

          k = 0.0000 0.8333-0.1667 (  1678 PWs)   bands (ev):

   -30.1516 -13.6703 -13.6576 -13.6513   3.2343   3.4582   5.0192   5.4157
     6.2013

          k = 0.0000 0.0000-1.0000 (  1686 PWs)   bands (ev):

   -30.1507 -13.6650 -13.6650 -13.6650   3.6007   5.5111   5.5111   5.5111
     7.6753

     the Fermi energy is     1.9626 ev

!    total energy              =    -113.00834112 Ry
     Harris-Foulkes estimate   =    -113.00834112 Ry
     estimated scf accuracy    <          2.1E-09 Ry

     total all-electron energy =     -1204.247051 Ry

     The total energy is the sum of the following terms:

     one-electron contribution =     -35.39841194 Ry
     hartree contribution      =      18.87983464 Ry
     xc contribution           =     -11.17038961 Ry
     ewald contribution        =     -29.89633975 Ry
     one-center paw contrib.   =     -55.42178892 Ry
     smearing contrib. (-TS)   =      -0.00124553 Ry

     convergence has been achieved in   5 iterations

     Forces acting on atoms (cartesian axes, Ry/au):

     atom    1 type  1   force =     0.00000000    0.00000000    0.00000000

     Total force =     0.000000     Total SCF correction =     0.000000


     Computing stress (Cartesian axis) and pressure

          total   stress  (Ry/bohr**3)                   (kbar)     P=    1.47
   0.00000996   0.00000000   0.00000000          1.47      0.00      0.00
  -0.00000000   0.00000996  -0.00000000         -0.00      1.47     -0.00
   0.00000000   0.00000000   0.00000996          0.00      0.00      1.47


     Writing output data file K.save/

     init_run     :      0.40s CPU      0.42s WALL (       1 calls)
     electrons    :      2.30s CPU      2.43s WALL (       1 calls)
     forces       :      0.07s CPU      0.07s WALL (       1 calls)
     stress       :      0.19s CPU      0.20s WALL (       1 calls)

     Called by init_run:
     wfcinit      :      0.09s CPU      0.10s WALL (       1 calls)
     potinit      :      0.12s CPU      0.13s WALL (       1 calls)
     hinit0       :      0.15s CPU      0.15s WALL (       1 calls)

     Called by electrons:
     c_bands      :      1.41s CPU      1.51s WALL (       6 calls)
     sum_band     :      0.35s CPU      0.37s WALL (       6 calls)
     v_of_rho     :      0.05s CPU      0.05s WALL (       6 calls)
     newd         :      0.08s CPU      0.08s WALL (       6 calls)
     PAW_pot      :      0.53s CPU      0.55s WALL (       6 calls)
     mix_rho      :      0.00s CPU      0.00s WALL (       6 calls)

     Called by c_bands:
     init_us_2    :      0.05s CPU      0.06s WALL (     240 calls)
     cegterg      :      1.35s CPU      1.45s WALL (      96 calls)

     Called by sum_band:
     sum_band:bec :      0.00s CPU      0.00s WALL (      96 calls)
     addusdens    :      0.08s CPU      0.08s WALL (       6 calls)

     Called by *egterg:
     h_psi        :      1.14s CPU      1.22s WALL (     437 calls)
     s_psi        :      0.03s CPU      0.04s WALL (     437 calls)
     g_psi        :      0.00s CPU      0.00s WALL (     325 calls)
     cdiaghg      :      0.09s CPU      0.09s WALL (     405 calls)

     Called by h_psi:
     h_psi:pot    :      1.13s CPU      1.21s WALL (     437 calls)
     h_psi:calbec :      0.05s CPU      0.06s WALL (     437 calls)
     vloc_psi     :      1.04s CPU      1.12s WALL (     437 calls)
     add_vuspsi   :      0.03s CPU      0.04s WALL (     437 calls)

     General routines
     calbec       :      0.09s CPU      0.10s WALL (     613 calls)
     fft          :      0.03s CPU      0.04s WALL (      93 calls)
     ffts         :      0.00s CPU      0.00s WALL (       6 calls)
     fftw         :      1.17s CPU      1.25s WALL (    5874 calls)

     Parallel routines
     fft_scatt_xy :      0.10s CPU      0.11s WALL (    5973 calls)
     fft_scatt_yz :      0.33s CPU      0.36s WALL (    5973 calls)

     PWSCF        :     3.72s CPU         3.93s WALL


   This run was terminated on:   0:23:35   8Apr2024            

=------------------------------------------------------------------------------=
   JOB DONE.
=------------------------------------------------------------------------------=
