
     Program PWSCF v.6.3MaX starts on  8Apr2024 at  0:11:17 

     This program is part of the open-source Quantum ESPRESSO suite
     for quantum simulation of materials; please cite
         "P. Giannozzi et al., J. Phys.:Condens. Matter 21 395502 (2009);
         "P. Giannozzi et al., J. Phys.:Condens. Matter 29 465901 (2017);
          URL http://www.quantum-espresso.org", 
     in publications or presentations arising from this work. More details at
     http://www.quantum-espresso.org/quote

     Parallel version (MPI), running on     5 processors

     MPI processes distributed on     1 nodes
     R & G space division:  proc/nbgrp/npool/nimage =       5
     Waiting for input...
     Reading input from standard input

     Current dimensions of program PWSCF are:
     Max number of different atomic species (ntypx) = 10
     Max number of k-points (npk) =  40000
     Max angular momentum in pseudopotentials (lmaxx) =  3
               file K.pz-spn-rrkjus_psl.1.0.0.UPF: wavefunction(s)  3S renormalized

     Subspace diagonalization in iterative solution of the eigenvalue problem:
     a serial algorithm will be used


     Parallelization info
     --------------------
     sticks:   dense  smooth     PW     G-vecs:    dense   smooth      PW
     Min          43      43     13                  417      417      76
     Max          44      44     14                  420      420      77
     Sum         219     219     69                 2093     2093     381



     bravais-lattice index     =            3
     lattice parameter (alat)  =       9.8600  a.u.
     unit-cell volume          =     479.2926 (a.u.)^3
     number of atoms/cell      =            1
     number of atomic types    =            1
     number of electrons       =         9.00
     number of Kohn-Sham states=            9
     kinetic-energy cutoff     =      10.0000  Ry
     charge density cutoff     =      40.0000  Ry
     convergence threshold     =      1.0E-08
     mixing beta               =       0.7000
     number of iterations used =            8  plain     mixing
     Exchange-correlation      = LDA ( 1  1  0  0 0 0)

     celldm(1)=   9.860000  celldm(2)=   0.000000  celldm(3)=   0.000000
     celldm(4)=   0.000000  celldm(5)=   0.000000  celldm(6)=   0.000000

     crystal axes: (cart. coord. in units of alat)
               a(1) = (   0.500000   0.500000   0.500000 )  
               a(2) = (  -0.500000   0.500000   0.500000 )  
               a(3) = (  -0.500000  -0.500000   0.500000 )  

     reciprocal axes: (cart. coord. in units 2 pi/alat)
               b(1) = (  1.000000  0.000000  1.000000 )  
               b(2) = ( -1.000000  1.000000  0.000000 )  
               b(3) = (  0.000000 -1.000000  1.000000 )  


     PseudoPot. # 1 for K  read from file:
     /home/lorenzo/pseudos/K/K.pz-spn-rrkjus_psl.1.0.0.UPF
     MD5 check sum: af434a66a3b91719abff201b8f79bb09
     Pseudo is Ultrasoft + core correction, Zval =  9.0
     Generated using "atomic" code by A. Dal Corso v.6.2.2
     Using radial grid of 1165 points,  6 beta functions with: 
                l(1) =   0
                l(2) =   0
                l(3) =   1
                l(4) =   1
                l(5) =   2
                l(6) =   2
     Q(r) pseudized with 0 coefficients 


     atomic species   valence    mass     pseudopotential
        K              9.00    39.09830     K ( 1.00)

     48 Sym. Ops., with inversion, found



   Cartesian axes

     site n.     atom                  positions (alat units)
         1           K   tau(   1) = (   0.0000000   0.0000000   0.0000000  )

     number of k points=     4  gaussian smearing, width (Ry)=  0.0100
                       cart. coord. in units 2pi/alat
        k(    1) = (   0.0000000   0.0000000   0.0000000), wk =   0.0740741
        k(    2) = (   0.0000000  -0.3333333   0.3333333), wk =   0.8888889
        k(    3) = (  -0.3333333   0.6666667  -0.3333333), wk =   0.5925926
        k(    4) = (   0.0000000   0.0000000   0.6666667), wk =   0.4444444

     Dense  grid:     2093 G-vectors     FFT dimensions: (  18,  18,  18)

     Estimated max dynamical RAM per process >       2.40 MB

     Estimated total dynamical RAM >      11.99 MB

     Check: negative/imaginary core charge=   -0.001512    0.000000

     Initial potential from superposition of free atoms
     Check: negative starting charge=   -0.000618

     starting charge    8.98437, renormalised to    9.00000

     negative rho (up, down):  6.194E-04 0.000E+00
     Starting wfcs are    8 randomized atomic wfcs +    1 random wfcs

     total cpu time spent up to now is        0.8 secs

     Self-consistent Calculation

     iteration #  1     ecut=    10.00 Ry     beta= 0.70
     Davidson diagonalization with overlap
     ethr =  1.00E-02,  avg # of iterations =  7.5

     total cpu time spent up to now is        0.9 secs

     total energy              =     -57.16460796 Ry
     Harris-Foulkes estimate   =     -57.43511661 Ry
     estimated scf accuracy    <       0.38765645 Ry

     iteration #  2     ecut=    10.00 Ry     beta= 0.70
     Davidson diagonalization with overlap
     ethr =  4.31E-03,  avg # of iterations =  2.0

     total cpu time spent up to now is        0.9 secs

     total energy              =     -57.23411522 Ry
     Harris-Foulkes estimate   =     -57.23678546 Ry
     estimated scf accuracy    <       0.01014613 Ry

     iteration #  3     ecut=    10.00 Ry     beta= 0.70
     Davidson diagonalization with overlap
     ethr =  1.13E-04,  avg # of iterations =  3.2

     total cpu time spent up to now is        0.9 secs

     total energy              =     -57.23440114 Ry
     Harris-Foulkes estimate   =     -57.23448215 Ry
     estimated scf accuracy    <       0.00075577 Ry

     iteration #  4     ecut=    10.00 Ry     beta= 0.70
     Davidson diagonalization with overlap
     ethr =  8.40E-06,  avg # of iterations =  2.2

     total cpu time spent up to now is        1.0 secs

     total energy              =     -57.23441941 Ry
     Harris-Foulkes estimate   =     -57.23442047 Ry
     estimated scf accuracy    <       0.00000238 Ry

     iteration #  5     ecut=    10.00 Ry     beta= 0.70
     Davidson diagonalization with overlap
     ethr =  2.64E-08,  avg # of iterations =  3.8

     total cpu time spent up to now is        1.0 secs

     total energy              =     -57.23441992 Ry
     Harris-Foulkes estimate   =     -57.23442008 Ry
     estimated scf accuracy    <       0.00000022 Ry

     iteration #  6     ecut=    10.00 Ry     beta= 0.70
     Davidson diagonalization with overlap
     ethr =  2.47E-09,  avg # of iterations =  2.0

     total cpu time spent up to now is        1.0 secs

     End of self-consistent calculation

          k = 0.0000 0.0000 0.0000 (   249 PWs)   bands (ev):

   -34.0495 -13.1503 -13.1503 -13.1503  -0.3735   7.0966   7.0966   7.0966
     8.3222

          k = 0.0000-0.3333 0.3333 (   257 PWs)   bands (ev):

   -34.0724 -13.4648 -13.4337 -13.3255   1.0578   4.4008   5.8568   7.9054
     7.9614

          k =-0.3333 0.6667-0.3333 (   249 PWs)   bands (ev):

   -34.0493 -13.3501 -13.1627 -13.1627   3.4689   3.4689   3.5389   6.8127
     8.4710

          k = 0.0000 0.0000 0.6667 (   249 PWs)   bands (ev):

   -34.0621 -13.5921 -13.1459 -13.1459   2.3370   4.5223   5.8742   5.8742
     6.2350

     the Fermi energy is     2.2040 ev

!    total energy              =     -57.23441997 Ry
     Harris-Foulkes estimate   =     -57.23441996 Ry
     estimated scf accuracy    <          1.9E-10 Ry

     The total energy is the sum of the following terms:

     one-electron contribution =     -33.51544876 Ry
     hartree contribution      =      16.80744154 Ry
     xc contribution           =     -10.62959122 Ry
     ewald contribution        =     -29.89633971 Ry
     smearing contrib. (-TS)   =      -0.00048182 Ry

     convergence has been achieved in   6 iterations

     Forces acting on atoms (cartesian axes, Ry/au):

     atom    1 type  1   force =     0.00000000    0.00000000    0.00000000

     Total force =     0.000000     Total SCF correction =     0.000000


     Computing stress (Cartesian axis) and pressure

          total   stress  (Ry/bohr**3)                   (kbar)     P= -810.10
  -0.00550695  -0.00000000   0.00000000       -810.10     -0.00      0.00
  -0.00000000  -0.00550695  -0.00000000         -0.00   -810.10     -0.00
   0.00000000  -0.00000000  -0.00550695          0.00     -0.00   -810.10


     Writing output data file K.save/

     init_run     :      0.07s CPU      0.08s WALL (       1 calls)
     electrons    :      0.16s CPU      0.17s WALL (       1 calls)
     forces       :      0.01s CPU      0.01s WALL (       1 calls)
     stress       :      0.02s CPU      0.02s WALL (       1 calls)

     Called by init_run:
     wfcinit      :      0.01s CPU      0.01s WALL (       1 calls)
     potinit      :      0.00s CPU      0.00s WALL (       1 calls)
     hinit0       :      0.06s CPU      0.06s WALL (       1 calls)

     Called by electrons:
     c_bands      :      0.11s CPU      0.12s WALL (       6 calls)
     sum_band     :      0.03s CPU      0.03s WALL (       6 calls)
     v_of_rho     :      0.00s CPU      0.00s WALL (       7 calls)
     newd         :      0.01s CPU      0.01s WALL (       7 calls)
     mix_rho      :      0.00s CPU      0.00s WALL (       6 calls)

     Called by c_bands:
     init_us_2    :      0.00s CPU      0.00s WALL (      60 calls)
     cegterg      :      0.11s CPU      0.12s WALL (      24 calls)

     Called by sum_band:
     sum_band:bec :      0.00s CPU      0.00s WALL (      24 calls)
     addusdens    :      0.01s CPU      0.01s WALL (       6 calls)

     Called by *egterg:
     h_psi        :      0.07s CPU      0.08s WALL (     111 calls)
     s_psi        :      0.00s CPU      0.00s WALL (     111 calls)
     g_psi        :      0.00s CPU      0.00s WALL (      83 calls)
     cdiaghg      :      0.02s CPU      0.03s WALL (     107 calls)

     Called by h_psi:
     h_psi:pot    :      0.07s CPU      0.08s WALL (     111 calls)
     h_psi:calbec :      0.00s CPU      0.00s WALL (     111 calls)
     vloc_psi     :      0.07s CPU      0.07s WALL (     111 calls)
     add_vuspsi   :      0.00s CPU      0.00s WALL (     111 calls)

     General routines
     calbec       :      0.01s CPU      0.01s WALL (     155 calls)
     fft          :      0.00s CPU      0.00s WALL (      37 calls)
     ffts         :      0.00s CPU      0.00s WALL (       6 calls)
     fftw         :      0.07s CPU      0.08s WALL (    1484 calls)

     Parallel routines
     fft_scatt_xy :      0.01s CPU      0.01s WALL (    1527 calls)
     fft_scatt_yz :      0.03s CPU      0.03s WALL (    1527 calls)

     PWSCF        :     1.02s CPU         1.07s WALL


   This run was terminated on:   0:11:18   8Apr2024            

=------------------------------------------------------------------------------=
   JOB DONE.
=------------------------------------------------------------------------------=
