
     Program PWSCF v.6.3MaX starts on  8Apr2024 at  1:39:56 

     This program is part of the open-source Quantum ESPRESSO suite
     for quantum simulation of materials; please cite
         "P. Giannozzi et al., J. Phys.:Condens. Matter 21 395502 (2009);
         "P. Giannozzi et al., J. Phys.:Condens. Matter 29 465901 (2017);
          URL http://www.quantum-espresso.org", 
     in publications or presentations arising from this work. More details at
     http://www.quantum-espresso.org/quote

     Parallel version (MPI), running on     5 processors

     MPI processes distributed on     1 nodes
     R & G space division:  proc/nbgrp/npool/nimage =       5
     Waiting for input...
     Reading input from standard input

     Current dimensions of program PWSCF are:
     Max number of different atomic species (ntypx) = 10
     Max number of k-points (npk) =  40000
     Max angular momentum in pseudopotentials (lmaxx) =  3
               file K.pbe-spn-kjpaw_psl.1.0.0.UPF: wavefunction(s)  3S renormalized

     Subspace diagonalization in iterative solution of the eigenvalue problem:
     a serial algorithm will be used


     Parallelization info
     --------------------
     sticks:   dense  smooth     PW     G-vecs:    dense   smooth      PW
     Min         417     417    117                12009    12009    1789
     Max         417     417    118                12010    12010    1790
     Sum        2085    2085    587                60047    60047    8949



     bravais-lattice index     =            3
     lattice parameter (alat)  =       9.8600  a.u.
     unit-cell volume          =     479.2926 (a.u.)^3
     number of atoms/cell      =            1
     number of atomic types    =            1
     number of electrons       =         9.00
     number of Kohn-Sham states=            9
     kinetic-energy cutoff     =      95.0000  Ry
     charge density cutoff     =     380.0000  Ry
     convergence threshold     =      1.0E-08
     mixing beta               =       0.7000
     number of iterations used =            8  plain     mixing
     Exchange-correlation      = SLA PW PBX PBC ( 1  4  3  4 0 0)

     celldm(1)=   9.860000  celldm(2)=   0.000000  celldm(3)=   0.000000
     celldm(4)=   0.000000  celldm(5)=   0.000000  celldm(6)=   0.000000

     crystal axes: (cart. coord. in units of alat)
               a(1) = (   0.500000   0.500000   0.500000 )  
               a(2) = (  -0.500000   0.500000   0.500000 )  
               a(3) = (  -0.500000  -0.500000   0.500000 )  

     reciprocal axes: (cart. coord. in units 2 pi/alat)
               b(1) = (  1.000000  0.000000  1.000000 )  
               b(2) = ( -1.000000  1.000000  0.000000 )  
               b(3) = (  0.000000 -1.000000  1.000000 )  


     PseudoPot. # 1 for K  read from file:
     /home/lorenzo/pseudos/K/K.pbe-spn-kjpaw_psl.1.0.0.UPF
     MD5 check sum: 34cc42130a09071ebe376fd42eb21491
     Pseudo is Projector augmented-wave + core cor, Zval =  9.0
     Generated using "atomic" code by A. Dal Corso v.6.2.2
     Shape of augmentation charge: PSQ
     Using radial grid of 1165 points,  6 beta functions with: 
                l(1) =   0
                l(2) =   0
                l(3) =   1
                l(4) =   1
                l(5) =   2
                l(6) =   2
     Q(r) pseudized with 0 coefficients 


     atomic species   valence    mass     pseudopotential
        K              9.00    39.09830     K ( 1.00)

     48 Sym. Ops., with inversion, found



   Cartesian axes

     site n.     atom                  positions (alat units)
         1           K   tau(   1) = (   0.0000000   0.0000000   0.0000000  )

     number of k points=    29  gaussian smearing, width (Ry)=  0.0100
                       cart. coord. in units 2pi/alat
        k(    1) = (   0.0000000   0.0000000   0.0000000), wk =   0.0039062
        k(    2) = (   0.0000000  -0.1250000   0.1250000), wk =   0.0468750
        k(    3) = (   0.0000000  -0.2500000   0.2500000), wk =   0.0468750
        k(    4) = (   0.0000000  -0.3750000   0.3750000), wk =   0.0468750
        k(    5) = (   0.0000000   0.5000000  -0.5000000), wk =   0.0234375
        k(    6) = (  -0.1250000  -0.1250000   0.2500000), wk =   0.0937500
        k(    7) = (  -0.1250000  -0.2500000   0.3750000), wk =   0.1875000
        k(    8) = (  -0.1250000   0.6250000  -0.5000000), wk =   0.1875000
        k(    9) = (  -0.2500000   0.7500000  -0.5000000), wk =   0.0937500
        k(   10) = (  -0.2500000   0.6250000  -0.3750000), wk =   0.0937500
        k(   11) = (   0.0000000   0.0000000   0.2500000), wk =   0.0234375
        k(   12) = (   0.0000000  -0.1250000   0.3750000), wk =   0.0937500
        k(   13) = (   0.0000000  -0.2500000   0.5000000), wk =   0.0937500
        k(   14) = (   0.0000000   0.6250000  -0.3750000), wk =   0.0468750
        k(   15) = (  -0.1250000  -0.1250000   0.5000000), wk =   0.0937500
        k(   16) = (  -0.1250000   0.7500000  -0.3750000), wk =   0.1875000
        k(   17) = (  -0.2500000   0.2500000   0.2500000), wk =   0.0312500
        k(   18) = (  -0.2500000   0.7500000  -0.2500000), wk =   0.0312500
        k(   19) = (   0.6250000  -0.6250000   0.2500000), wk =   0.0937500
        k(   20) = (   0.5000000  -0.5000000   0.2500000), wk =   0.0468750
        k(   21) = (   0.5000000  -0.6250000   0.3750000), wk =   0.0937500
        k(   22) = (   0.0000000   0.0000000   0.5000000), wk =   0.0234375
        k(   23) = (   0.0000000  -0.1250000   0.6250000), wk =   0.0937500
        k(   24) = (   0.0000000   0.7500000  -0.2500000), wk =   0.0468750
        k(   25) = (  -0.1250000   0.8750000  -0.2500000), wk =   0.0937500
        k(   26) = (   0.5000000  -0.5000000   0.5000000), wk =   0.0078125
        k(   27) = (   0.0000000   0.0000000   0.7500000), wk =   0.0234375
        k(   28) = (   0.0000000   0.8750000  -0.1250000), wk =   0.0468750
        k(   29) = (   0.0000000   0.0000000  -1.0000000), wk =   0.0039062

     Dense  grid:    60047 G-vectors     FFT dimensions: (  54,  54,  54)

     Estimated max dynamical RAM per process >      53.07 MB

     Estimated total dynamical RAM >     265.34 MB

     Check: negative/imaginary core charge=   -0.000001    0.000000

     Initial potential from superposition of free atoms

     starting charge    8.98117, renormalised to    9.00000
     Starting wfcs are    8 randomized atomic wfcs +    1 random wfcs
     Checking if some PAW data can be deallocated... 

     total cpu time spent up to now is        2.2 secs

     Self-consistent Calculation

     iteration #  1     ecut=    95.00 Ry     beta= 0.70
     Davidson diagonalization with overlap
     ethr =  1.00E-02,  avg # of iterations =  6.5

     Threshold (ethr) on eigenvalues was too large:
     Diagonalizing with lowered threshold

     Davidson diagonalization with overlap
     ethr =  1.41E-05,  avg # of iterations =  6.5

     total cpu time spent up to now is        7.8 secs

     total energy              =    -113.01081490 Ry
     Harris-Foulkes estimate   =    -113.01133275 Ry
     estimated scf accuracy    <       0.00125606 Ry

     iteration #  2     ecut=    95.00 Ry     beta= 0.70
     Davidson diagonalization with overlap
     ethr =  1.40E-05,  avg # of iterations =  2.1

     total cpu time spent up to now is        9.9 secs

     total energy              =    -113.01103741 Ry
     Harris-Foulkes estimate   =    -113.01104705 Ry
     estimated scf accuracy    <       0.00010131 Ry

     iteration #  3     ecut=    95.00 Ry     beta= 0.70
     Davidson diagonalization with overlap
     ethr =  1.13E-06,  avg # of iterations =  2.3

     total cpu time spent up to now is       12.1 secs

     total energy              =    -113.01104972 Ry
     Harris-Foulkes estimate   =    -113.01104745 Ry
     estimated scf accuracy    <       0.00000681 Ry

     iteration #  4     ecut=    95.00 Ry     beta= 0.70
     Davidson diagonalization with overlap
     ethr =  7.57E-08,  avg # of iterations =  1.6

     total cpu time spent up to now is       14.1 secs

     total energy              =    -113.01105045 Ry
     Harris-Foulkes estimate   =    -113.01105045 Ry
     estimated scf accuracy    <       0.00000005 Ry

     iteration #  5     ecut=    95.00 Ry     beta= 0.70
     Davidson diagonalization with overlap
     ethr =  6.04E-10,  avg # of iterations =  2.5

     total cpu time spent up to now is       16.6 secs

     End of self-consistent calculation

          k = 0.0000 0.0000 0.0000 (  7419 PWs)   bands (ev):

   -30.1655 -13.6136 -13.6136 -13.6136  -0.2616   6.2632   6.2632   7.1818
     7.1818

          k = 0.0000-0.1250 0.1250 (  7513 PWs)   bands (ev):

   -30.1648 -13.6250 -13.6174 -13.6136  -0.0626   5.9300   6.0259   6.4225
     6.9499

          k = 0.0000-0.2500 0.2500 (  7478 PWs)   bands (ev):

   -30.1631 -13.6522 -13.6265 -13.6136   0.5132   4.9035   5.5836   6.8895
     7.0045

          k = 0.0000-0.3750 0.3750 (  7492 PWs)   bands (ev):

   -30.1614 -13.6790 -13.6356 -13.6136   1.4030   3.7221   5.2427   6.9965
     7.3447

          k = 0.0000 0.5000-0.5000 (  7518 PWs)   bands (ev):

   -30.1607 -13.6900 -13.6393 -13.6136   2.3890   2.6485   5.1200   6.8714
     7.7023

          k =-0.1250-0.1250 0.2500 (  7502 PWs)   bands (ev):

   -30.1636 -13.6437 -13.6217 -13.6163   0.3251   5.3420   5.5697   6.6992
     6.7921

          k =-0.1250-0.2500 0.3750 (  7483 PWs)   bands (ev):

   -30.1619 -13.6678 -13.6326 -13.6174   1.0604   4.3476   5.1165   6.8329
     7.1379

          k =-0.1250 0.6250-0.5000 (  7494 PWs)   bands (ev):

   -30.1607 -13.6840 -13.6414 -13.6176   2.0590   3.2153   4.8786   6.6765
     7.5300

          k =-0.2500 0.7500-0.5000 (  7500 PWs)   bands (ev):

   -30.1607 -13.6760 -13.6456 -13.6215   1.9108   3.8318   4.3655   6.7972
     7.0263

          k =-0.2500 0.6250-0.3750 (  7504 PWs)   bands (ev):

   -30.1602 -13.6757 -13.6553 -13.6225   2.9298   2.9596   4.0523   6.5853
     7.3256

          k = 0.0000 0.0000 0.2500 (  7507 PWs)   bands (ev):

   -30.1641 -13.6278 -13.6213 -13.6213   0.1331   5.9164   5.9164   6.1849
     6.4945

          k = 0.0000-0.1250 0.3750 (  7489 PWs)   bands (ev):

   -30.1625 -13.6514 -13.6305 -13.6226   0.6997   4.9631   5.5806   6.1264
     6.9072

          k = 0.0000-0.2500 0.5000 (  7505 PWs)   bands (ev):

   -30.1608 -13.6766 -13.6398 -13.6220   1.5753   3.8226   5.2869   6.1324
     7.4209

          k = 0.0000 0.6250-0.3750 (  7480 PWs)   bands (ev):

   -30.1601 -13.6869 -13.6436 -13.6218   2.5892   2.7351   5.1779   6.0339
     7.4618

          k =-0.1250-0.1250 0.5000 (  7484 PWs)   bands (ev):

   -30.1608 -13.6673 -13.6418 -13.6274   1.4092   4.3382   5.0553   6.1483
     7.0960

          k =-0.1250 0.7500-0.3750 (  7490 PWs)   bands (ev):

   -30.1597 -13.6790 -13.6521 -13.6278   2.3710   3.4342   4.6245   6.2156
     7.0681

          k =-0.2500 0.2500 0.2500 (  7500 PWs)   bands (ev):

   -30.1623 -13.6637 -13.6228 -13.6228   0.8830   4.8167   4.8167   6.8835
     7.3205

          k =-0.2500 0.7500-0.2500 (  7485 PWs)   bands (ev):

   -30.1593 -13.6693 -13.6693 -13.6289   3.2019   3.2020   3.8058   6.7885
     7.3373

          k = 0.6250-0.6250 0.2500 (  7495 PWs)   bands (ev):

   -30.1611 -13.6757 -13.6370 -13.6239   1.7490   3.8778   4.4950   6.5320
     7.4840

          k = 0.5000-0.5000 0.2500 (  7486 PWs)   bands (ev):

   -30.1605 -13.6784 -13.6451 -13.6243   2.7793   2.8386   4.3875   6.2316
     7.6204

          k = 0.5000-0.6250 0.3750 (  7488 PWs)   bands (ev):

   -30.1605 -13.6694 -13.6493 -13.6311   2.6732   3.5270   3.8483   5.8053
     7.6174

          k = 0.0000 0.0000 0.5000 (  7463 PWs)   bands (ev):

   -30.1609 -13.6533 -13.6403 -13.6403   1.2369   4.8180   5.5064   5.5064
     7.0905

          k = 0.0000-0.1250 0.6250 (  7497 PWs)   bands (ev):

   -30.1594 -13.6706 -13.6500 -13.6422   2.0587   4.0229   5.3773   5.4024
     6.6112

          k = 0.0000 0.7500-0.2500 (  7478 PWs)   bands (ev):

   -30.1588 -13.6794 -13.6540 -13.6413   2.9894   3.1111   5.2003   5.3174
     6.7715

          k =-0.1250 0.8750-0.2500 (  7507 PWs)   bands (ev):

   -30.1584 -13.6733 -13.6628 -13.6451   2.8930   3.6189   4.5731   5.9158
     6.3354

          k = 0.5000-0.5000 0.5000 (  7500 PWs)   bands (ev):

   -30.1604 -13.6509 -13.6509 -13.6509   3.4269   3.4269   3.4269   5.1270
     7.7841

          k = 0.0000 0.0000 0.7500 (  7496 PWs)   bands (ev):

   -30.1580 -13.6666 -13.6602 -13.6602   2.7500   3.9104   5.4390   5.4390
     5.7055

          k = 0.0000 0.8750-0.1250 (  7494 PWs)   bands (ev):

   -30.1574 -13.6718 -13.6644 -13.6607   3.3625   3.5523   5.0974   5.4551
     5.9363

          k = 0.0000 0.0000-1.0000 (  7520 PWs)   bands (ev):

   -30.1569 -13.6686 -13.6686 -13.6686   3.5995   5.5109   5.5109   5.5109
     7.6776

     the Fermi energy is     1.9732 ev

!    total energy              =    -113.01105047 Ry
     Harris-Foulkes estimate   =    -113.01105046 Ry
     estimated scf accuracy    <          2.7E-09 Ry

     total all-electron energy =     -1204.249761 Ry

     The total energy is the sum of the following terms:

     one-electron contribution =     -35.40493959 Ry
     hartree contribution      =      18.88048655 Ry
     xc contribution           =     -11.16988061 Ry
     ewald contribution        =     -29.89633970 Ry
     one-center paw contrib.   =     -55.41961150 Ry
     smearing contrib. (-TS)   =      -0.00076562 Ry

     convergence has been achieved in   5 iterations

     Forces acting on atoms (cartesian axes, Ry/au):

     atom    1 type  1   force =     0.00000000    0.00000000    0.00000000

     Total force =     0.000000     Total SCF correction =     0.000000


     Computing stress (Cartesian axis) and pressure

          total   stress  (Ry/bohr**3)                   (kbar)     P=    1.58
   0.00001076  -0.00000000   0.00000000          1.58     -0.00      0.00
  -0.00000000   0.00001076  -0.00000000         -0.00      1.58     -0.00
   0.00000000  -0.00000000   0.00001076          0.00     -0.00      1.58


     Writing output data file K.save/

     init_run     :      1.09s CPU      1.14s WALL (       1 calls)
     electrons    :     14.02s CPU     14.47s WALL (       1 calls)
     forces       :      0.30s CPU      0.30s WALL (       1 calls)
     stress       :      1.06s CPU      1.07s WALL (       1 calls)

     Called by init_run:
     wfcinit      :      0.54s CPU      0.55s WALL (       1 calls)
     potinit      :      0.14s CPU      0.15s WALL (       1 calls)
     hinit0       :      0.24s CPU      0.24s WALL (       1 calls)

     Called by electrons:
     c_bands      :     10.80s CPU     11.14s WALL (       6 calls)
     sum_band     :      2.27s CPU      2.35s WALL (       6 calls)
     v_of_rho     :      0.21s CPU      0.22s WALL (       6 calls)
     newd         :      0.35s CPU      0.37s WALL (       6 calls)
     PAW_pot      :      0.54s CPU      0.57s WALL (       6 calls)
     mix_rho      :      0.02s CPU      0.02s WALL (       6 calls)

     Called by c_bands:
     init_us_2    :      0.41s CPU      0.42s WALL (     435 calls)
     cegterg      :     10.31s CPU     10.64s WALL (     174 calls)

     Called by sum_band:
     sum_band:bec :      0.00s CPU      0.00s WALL (     174 calls)
     addusdens    :      0.36s CPU      0.37s WALL (       6 calls)

     Called by *egterg:
     h_psi        :      8.76s CPU      9.09s WALL (     829 calls)
     s_psi        :      0.26s CPU      0.27s WALL (     829 calls)
     g_psi        :      0.03s CPU      0.03s WALL (     626 calls)
     cdiaghg      :      0.21s CPU      0.21s WALL (     771 calls)

     Called by h_psi:
     h_psi:pot    :      8.72s CPU      9.04s WALL (     829 calls)
     h_psi:calbec :      0.49s CPU      0.50s WALL (     829 calls)
     vloc_psi     :      7.91s CPU      8.23s WALL (     829 calls)
     add_vuspsi   :      0.30s CPU      0.31s WALL (     829 calls)

     General routines
     calbec       :      0.83s CPU      0.85s WALL (    1148 calls)
     fft          :      0.16s CPU      0.18s WALL (      93 calls)
     ffts         :      0.01s CPU      0.01s WALL (       6 calls)
     fftw         :      8.58s CPU      8.93s WALL (   10828 calls)

     Parallel routines
     fft_scatt_xy :      0.67s CPU      0.70s WALL (   10927 calls)
     fft_scatt_yz :      2.32s CPU      2.42s WALL (   10927 calls)

     PWSCF        :    17.62s CPU        18.25s WALL


   This run was terminated on:   1:40:14   8Apr2024            

=------------------------------------------------------------------------------=
   JOB DONE.
=------------------------------------------------------------------------------=
