
     Program PWSCF v.6.3MaX starts on  8Apr2024 at  0:12:16 

     This program is part of the open-source Quantum ESPRESSO suite
     for quantum simulation of materials; please cite
         "P. Giannozzi et al., J. Phys.:Condens. Matter 21 395502 (2009);
         "P. Giannozzi et al., J. Phys.:Condens. Matter 29 465901 (2017);
          URL http://www.quantum-espresso.org", 
     in publications or presentations arising from this work. More details at
     http://www.quantum-espresso.org/quote

     Parallel version (MPI), running on     5 processors

     MPI processes distributed on     1 nodes
     R & G space division:  proc/nbgrp/npool/nimage =       5
     Waiting for input...
     Reading input from standard input

     Current dimensions of program PWSCF are:
     Max number of different atomic species (ntypx) = 10
     Max number of k-points (npk) =  40000
     Max angular momentum in pseudopotentials (lmaxx) =  3
               file K.pbe-spn-rrkjus_psl.1.0.0.UPF: wavefunction(s)  3S renormalized

     Subspace diagonalization in iterative solution of the eigenvalue problem:
     a serial algorithm will be used


     Parallelization info
     --------------------
     sticks:   dense  smooth     PW     G-vecs:    dense   smooth      PW
     Min          66      66     23                  756      756     153
     Max          67      67     24                  757      757     154
     Sum         333     333    117                 3781     3781     767



     bravais-lattice index     =            3
     lattice parameter (alat)  =       9.8600  a.u.
     unit-cell volume          =     479.2926 (a.u.)^3
     number of atoms/cell      =            1
     number of atomic types    =            1
     number of electrons       =         9.00
     number of Kohn-Sham states=            9
     kinetic-energy cutoff     =      15.0000  Ry
     charge density cutoff     =      60.0000  Ry
     convergence threshold     =      1.0E-08
     mixing beta               =       0.7000
     number of iterations used =            8  plain     mixing
     Exchange-correlation      = PBE ( 1  4  3  4 0 0)

     celldm(1)=   9.860000  celldm(2)=   0.000000  celldm(3)=   0.000000
     celldm(4)=   0.000000  celldm(5)=   0.000000  celldm(6)=   0.000000

     crystal axes: (cart. coord. in units of alat)
               a(1) = (   0.500000   0.500000   0.500000 )  
               a(2) = (  -0.500000   0.500000   0.500000 )  
               a(3) = (  -0.500000  -0.500000   0.500000 )  

     reciprocal axes: (cart. coord. in units 2 pi/alat)
               b(1) = (  1.000000  0.000000  1.000000 )  
               b(2) = ( -1.000000  1.000000  0.000000 )  
               b(3) = (  0.000000 -1.000000  1.000000 )  


     PseudoPot. # 1 for K  read from file:
     /home/lorenzo/pseudos/K/K.pbe-spn-rrkjus_psl.1.0.0.UPF
     MD5 check sum: 897b700350bb708b0563e904352feb48
     Pseudo is Ultrasoft + core correction, Zval =  9.0
     Generated using "atomic" code by A. Dal Corso v.6.2.2
     Using radial grid of 1165 points,  6 beta functions with: 
                l(1) =   0
                l(2) =   0
                l(3) =   1
                l(4) =   1
                l(5) =   2
                l(6) =   2
     Q(r) pseudized with 0 coefficients 


     atomic species   valence    mass     pseudopotential
        K              9.00    39.09830     K ( 1.00)

     48 Sym. Ops., with inversion, found



   Cartesian axes

     site n.     atom                  positions (alat units)
         1           K   tau(   1) = (   0.0000000   0.0000000   0.0000000  )

     number of k points=    47  gaussian smearing, width (Ry)=  0.0100
                       cart. coord. in units 2pi/alat
        k(    1) = (   0.0000000   0.0000000   0.0000000), wk =   0.0020000
        k(    2) = (   0.0000000  -0.1000000   0.1000000), wk =   0.0240000
        k(    3) = (   0.0000000  -0.2000000   0.2000000), wk =   0.0240000
        k(    4) = (   0.0000000  -0.3000000   0.3000000), wk =   0.0240000
        k(    5) = (   0.0000000  -0.4000000   0.4000000), wk =   0.0240000
        k(    6) = (   0.0000000   0.5000000  -0.5000000), wk =   0.0120000
        k(    7) = (  -0.1000000  -0.1000000   0.2000000), wk =   0.0480000
        k(    8) = (  -0.1000000  -0.2000000   0.3000000), wk =   0.0960000
        k(    9) = (  -0.1000000  -0.3000000   0.4000000), wk =   0.0960000
        k(   10) = (  -0.1000000   0.6000000  -0.5000000), wk =   0.0960000
        k(   11) = (  -0.2000000  -0.2000000   0.4000000), wk =   0.0480000
        k(   12) = (  -0.2000000   0.7000000  -0.5000000), wk =   0.0960000
        k(   13) = (  -0.2000000   0.6000000  -0.4000000), wk =   0.0480000
        k(   14) = (  -0.3000000   0.7000000  -0.4000000), wk =   0.0480000
        k(   15) = (   0.0000000   0.0000000   0.2000000), wk =   0.0120000
        k(   16) = (   0.0000000  -0.1000000   0.3000000), wk =   0.0480000
        k(   17) = (   0.0000000  -0.2000000   0.4000000), wk =   0.0480000
        k(   18) = (   0.0000000  -0.3000000   0.5000000), wk =   0.0480000
        k(   19) = (   0.0000000   0.6000000  -0.4000000), wk =   0.0240000
        k(   20) = (  -0.1000000  -0.1000000   0.4000000), wk =   0.0480000
        k(   21) = (  -0.1000000  -0.2000000   0.5000000), wk =   0.0960000
        k(   22) = (  -0.1000000   0.7000000  -0.4000000), wk =   0.0960000
        k(   23) = (  -0.2000000   0.2000000   0.2000000), wk =   0.0160000
        k(   24) = (  -0.2000000   0.8000000  -0.4000000), wk =   0.0480000
        k(   25) = (  -0.2000000   0.7000000  -0.3000000), wk =   0.0480000
        k(   26) = (  -0.3000000   0.3000000   0.2000000), wk =   0.0480000
        k(   27) = (   0.6000000  -0.6000000   0.2000000), wk =   0.0480000
        k(   28) = (   0.6000000  -0.7000000   0.3000000), wk =   0.0480000
        k(   29) = (   0.5000000  -0.5000000   0.2000000), wk =   0.0240000
        k(   30) = (   0.5000000  -0.6000000   0.3000000), wk =   0.0960000
        k(   31) = (   0.4000000  -0.6000000   0.4000000), wk =   0.0160000
        k(   32) = (   0.0000000   0.0000000   0.4000000), wk =   0.0120000
        k(   33) = (   0.0000000  -0.1000000   0.5000000), wk =   0.0480000
        k(   34) = (   0.0000000  -0.2000000   0.6000000), wk =   0.0480000
        k(   35) = (   0.0000000   0.7000000  -0.3000000), wk =   0.0240000
        k(   36) = (  -0.1000000  -0.1000000   0.6000000), wk =   0.0480000
        k(   37) = (  -0.1000000   0.8000000  -0.3000000), wk =   0.0960000
        k(   38) = (  -0.2000000   0.8000000  -0.2000000), wk =   0.0160000
        k(   39) = (   0.6000000  -0.6000000   0.4000000), wk =   0.0160000
        k(   40) = (   0.5000000  -0.5000000   0.4000000), wk =   0.0240000
        k(   41) = (   0.0000000   0.0000000   0.6000000), wk =   0.0120000
        k(   42) = (   0.0000000  -0.1000000   0.7000000), wk =   0.0480000
        k(   43) = (   0.0000000   0.8000000  -0.2000000), wk =   0.0240000
        k(   44) = (  -0.1000000   0.9000000  -0.2000000), wk =   0.0480000
        k(   45) = (   0.0000000   0.0000000   0.8000000), wk =   0.0120000
        k(   46) = (   0.0000000   0.9000000  -0.1000000), wk =   0.0240000
        k(   47) = (   0.0000000   0.0000000  -1.0000000), wk =   0.0020000

     Dense  grid:     3781 G-vectors     FFT dimensions: (  24,  24,  24)

     Estimated max dynamical RAM per process >       4.46 MB

     Estimated total dynamical RAM >      22.28 MB

     Check: negative/imaginary core charge=   -0.000363    0.000000

     Initial potential from superposition of free atoms

     starting charge    8.98117, renormalised to    9.00000
     Starting wfcs are    8 randomized atomic wfcs +    1 random wfcs

     total cpu time spent up to now is        0.9 secs

     Self-consistent Calculation

     iteration #  1     ecut=    15.00 Ry     beta= 0.70
     Davidson diagonalization with overlap
     ethr =  1.00E-02,  avg # of iterations =  6.6

     Threshold (ethr) on eigenvalues was too large:
     Diagonalizing with lowered threshold

     Davidson diagonalization with overlap
     ethr =  5.01E-04,  avg # of iterations =  1.9

     total cpu time spent up to now is        1.7 secs

     total energy              =     -58.42728850 Ry
     Harris-Foulkes estimate   =     -58.45376671 Ry
     estimated scf accuracy    <       0.04634397 Ry

     iteration #  2     ecut=    15.00 Ry     beta= 0.70
     Davidson diagonalization with overlap
     ethr =  5.15E-04,  avg # of iterations =  2.1

     total cpu time spent up to now is        2.0 secs

     total energy              =     -58.43666496 Ry
     Harris-Foulkes estimate   =     -58.43688071 Ry
     estimated scf accuracy    <       0.00214826 Ry

     iteration #  3     ecut=    15.00 Ry     beta= 0.70
     Davidson diagonalization with overlap
     ethr =  2.39E-05,  avg # of iterations =  4.6

     total cpu time spent up to now is        2.3 secs

     total energy              =     -58.43686295 Ry
     Harris-Foulkes estimate   =     -58.43681932 Ry
     estimated scf accuracy    <       0.00014183 Ry

     iteration #  4     ecut=    15.00 Ry     beta= 0.70
     Davidson diagonalization with overlap
     ethr =  1.58E-06,  avg # of iterations =  3.3

     total cpu time spent up to now is        2.7 secs

     total energy              =     -58.43686545 Ry
     Harris-Foulkes estimate   =     -58.43686555 Ry
     estimated scf accuracy    <       0.00000024 Ry

     iteration #  5     ecut=    15.00 Ry     beta= 0.70
     Davidson diagonalization with overlap
     ethr =  2.64E-09,  avg # of iterations =  2.6

     total cpu time spent up to now is        3.1 secs

     End of self-consistent calculation

          k = 0.0000 0.0000 0.0000 (   459 PWs)   bands (ev):

   -31.2591 -13.4543 -13.4543 -13.4543  -0.5419   6.6443   6.6443   6.6443
     7.7131

          k = 0.0000-0.1000 0.1000 (   463 PWs)   bands (ev):

   -31.2586 -13.5207 -13.4650 -13.4490  -0.4116   6.3377   6.4274   6.7481
     7.4357

          k = 0.0000-0.2000 0.2000 (   475 PWs)   bands (ev):

   -31.2576 -13.5913 -13.5575 -13.5216  -0.0300   5.4287   5.9801   7.0057
     7.3898

          k = 0.0000-0.3000 0.3000 (   468 PWs)   bands (ev):

   -31.2562 -13.6035 -13.5382 -13.4723   0.5769   4.3868   5.6135   7.4524
     7.5251

          k = 0.0000-0.4000 0.4000 (   474 PWs)   bands (ev):

   -31.2552 -13.6350 -13.5983 -13.5190   1.3705   3.3322   5.3480   7.2478
     7.6005

          k = 0.0000 0.5000-0.5000 (   476 PWs)   bands (ev):

   -31.2547 -13.6412 -13.6385 -13.5102   2.1722   2.4546   5.2574   7.1286
     7.7783

          k =-0.1000-0.1000 0.2000 (   471 PWs)   bands (ev):

   -31.2579 -13.5813 -13.5226 -13.4893  -0.1555   5.8030   5.9924   6.8877
     7.2085

          k =-0.1000-0.2000 0.3000 (   468 PWs)   bands (ev):

   -31.2567 -13.5552 -13.5422 -13.4975   0.3416   4.9126   5.5377   7.1418
     7.2474

          k =-0.1000-0.3000 0.4000 (   471 PWs)   bands (ev):

   -31.2555 -13.6276 -13.5717 -13.4945   1.0420   3.8994   5.2131   7.0466
     7.5839

          k =-0.1000 0.6000-0.5000 (   470 PWs)   bands (ev):

   -31.2547 -13.6373 -13.5640 -13.4966   1.9010   2.8921   5.0475   6.8461
     7.9002

          k =-0.2000-0.2000 0.4000 (   465 PWs)   bands (ev):

   -31.2556 -13.5756 -13.5102 -13.5010   0.9332   4.3532   4.8795   7.0905
     7.2849

          k =-0.2000 0.7000-0.5000 (   473 PWs)   bands (ev):

   -31.2547 -13.6311 -13.5707 -13.5544   1.7067   3.5439   4.4766   6.7533
     7.5061

          k =-0.2000 0.6000-0.4000 (   474 PWs)   bands (ev):

   -31.2544 -13.6303 -13.5915 -13.5628   2.5687   2.6488   4.3592   6.6031
     7.7347

          k =-0.3000 0.7000-0.4000 (   471 PWs)   bands (ev):

   -31.2543 -13.5987 -13.5964 -13.5498   2.5240   3.2617   3.6705   6.5727
     7.6519

          k = 0.0000 0.0000 0.2000 (   470 PWs)   bands (ev):

   -31.2582 -13.5657 -13.4987 -13.4987  -0.2828   6.2689   6.2689   6.7076
     6.8014

          k = 0.0000-0.1000 0.3000 (   470 PWs)   bands (ev):

   -31.2572 -13.5850 -13.5135 -13.5106   0.0951   5.4701   5.9315   6.5215
     7.0798

          k = 0.0000-0.2000 0.4000 (   468 PWs)   bands (ev):

   -31.2559 -13.5814 -13.5402 -13.5082   0.6982   4.4437   5.5832   6.5109
     7.5522

          k = 0.0000-0.3000 0.5000 (   472 PWs)   bands (ev):

   -31.2548 -13.6375 -13.5554 -13.5351   1.4842   3.4119   5.3516   6.3872
     7.9968

          k = 0.0000 0.6000-0.4000 (   472 PWs)   bands (ev):

   -31.2544 -13.6414 -13.5558 -13.5387   2.3045   2.5122   5.2733   6.2962
     8.1240

          k =-0.1000-0.1000 0.4000 (   464 PWs)   bands (ev):

   -31.2560 -13.5579 -13.5079 -13.4919   0.5829   4.8695   5.4557   6.4168
     7.3681

          k =-0.1000-0.2000 0.5000 (   470 PWs)   bands (ev):

   -31.2549 -13.6225 -13.5549 -13.5186   1.2698   4.0106   5.0380   6.4499
     7.4650

          k =-0.1000 0.7000-0.4000 (   467 PWs)   bands (ev):

   -31.2542 -13.6223 -13.5490 -13.5005   2.1163   3.0583   4.8336   6.3450
     7.6969

          k =-0.2000 0.2000 0.2000 (   477 PWs)   bands (ev):

   -31.2570 -13.5876 -13.5876 -13.5544   0.2192   5.2896   5.2896   7.0271
     7.6475

          k =-0.2000 0.8000-0.4000 (   468 PWs)   bands (ev):

   -31.2541 -13.6057 -13.5917 -13.5000   2.0212   3.6013   4.2322   6.7774
     7.1587

          k =-0.2000 0.7000-0.3000 (   472 PWs)   bands (ev):

   -31.2538 -13.6500 -13.6023 -13.5183   2.8316   2.9157   3.9220   6.8295
     7.4232

          k =-0.3000 0.3000 0.2000 (   471 PWs)   bands (ev):

   -31.2559 -13.5759 -13.5618 -13.5378   0.8181   4.4310   4.9148   6.8697
     7.8317

          k = 0.6000-0.6000 0.2000 (   474 PWs)   bands (ev):

   -31.2550 -13.6308 -13.5679 -13.5590   1.5991   3.4803   4.6863   6.5317
     8.0425

          k = 0.6000-0.7000 0.3000 (   478 PWs)   bands (ev):

   -31.2551 -13.6423 -13.6079 -13.5751   1.4950   3.9759   4.3063   6.2686
     7.9808

          k = 0.5000-0.5000 0.2000 (   472 PWs)   bands (ev):

   -31.2546 -13.5837 -13.5834 -13.5685   2.4402   2.5924   4.6050   6.3669
     8.1481

          k = 0.5000-0.6000 0.3000 (   477 PWs)   bands (ev):

   -31.2546 -13.6210 -13.6116 -13.5940   2.3284   3.2177   4.0455   5.8634
     8.1398

          k = 0.4000-0.6000 0.4000 (   475 PWs)   bands (ev):

   -31.2544 -13.6383 -13.5841 -13.5841   3.0615   3.0615   3.4075   5.6197
     8.3075

          k = 0.0000 0.0000 0.4000 (   470 PWs)   bands (ev):

   -31.2562 -13.5757 -13.5347 -13.5347   0.4628   5.3897   5.7518   5.7518
     7.2794

          k = 0.0000-0.1000 0.5000 (   463 PWs)   bands (ev):

   -31.2550 -13.5582 -13.5176 -13.4988   1.0494   4.5578   5.5372   5.7418
     7.3787

          k = 0.0000-0.2000 0.6000 (   468 PWs)   bands (ev):

   -31.2540 -13.6179 -13.5348 -13.5327   1.8074   3.6254   5.3659   5.5742
     7.2577

          k = 0.0000 0.7000-0.3000 (   464 PWs)   bands (ev):

   -31.2536 -13.6213 -13.5316 -13.4834   2.6861   2.6952   5.3195   5.4501
     7.3904

          k =-0.1000-0.1000 0.6000 (   467 PWs)   bands (ev):

   -31.2539 -13.6051 -13.5675 -13.5042   1.7056   4.0554   4.9441   5.9179
     6.8466

          k =-0.1000 0.8000-0.3000 (   466 PWs)   bands (ev):

   -31.2532 -13.6063 -13.5765 -13.5028   2.4995   3.3534   4.5195   5.9993
     6.8954

          k =-0.2000 0.8000-0.2000 (   469 PWs)   bands (ev):

   -31.2530 -13.6189 -13.6189 -13.5151   3.1404   3.1404   3.8849   6.5384
     6.5384

          k = 0.6000-0.6000 0.4000 (   477 PWs)   bands (ev):

   -31.2547 -13.6674 -13.5817 -13.5817   2.2304   3.7584   3.7584   5.4242
     8.3938

          k = 0.5000-0.5000 0.4000 (   474 PWs)   bands (ev):

   -31.2545 -13.6086 -13.6072 -13.5754   2.9953   3.1064   3.6853   5.0734
     8.4368

          k = 0.0000 0.0000 0.6000 (   462 PWs)   bands (ev):

   -31.2538 -13.5605 -13.5164 -13.5164   1.6009   4.3880   5.4487   5.4487
     6.4453

          k = 0.0000-0.1000 0.7000 (   466 PWs)   bands (ev):

   -31.2529 -13.6053 -13.5818 -13.5109   2.3006   3.8319   5.1687   5.3566
     6.2765

          k = 0.0000 0.8000-0.2000 (   470 PWs)   bands (ev):

   -31.2526 -13.6467 -13.6100 -13.5242   2.9839   3.1922   4.9435   5.3189
     6.4662

          k =-0.1000 0.9000-0.2000 (   468 PWs)   bands (ev):

   -31.2523 -13.6401 -13.6136 -13.5106   2.9648   3.5292   4.5750   5.7062
     6.0616

          k = 0.0000 0.0000 0.8000 (   466 PWs)   bands (ev):

   -31.2520 -13.5885 -13.5885 -13.5545   2.8889   3.7608   5.3267   5.3267
     5.4622

          k = 0.0000 0.9000-0.1000 (   478 PWs)   bands (ev):

   -31.2517 -13.6596 -13.6446 -13.6436   3.3403   3.5032   5.0063   5.3084
     5.6581

          k = 0.0000 0.0000-1.0000 (   466 PWs)   bands (ev):

   -31.2514 -13.5877 -13.5877 -13.5877   3.5618   5.3135   5.3137   5.3137
     7.3218

     the Fermi energy is     1.7171 ev

!    total energy              =     -58.43686563 Ry
     Harris-Foulkes estimate   =     -58.43686563 Ry
     estimated scf accuracy    <          9.8E-09 Ry

     The total energy is the sum of the following terms:

     one-electron contribution =     -35.78507932 Ry
     hartree contribution      =      18.37057060 Ry
     xc contribution           =     -11.12538477 Ry
     ewald contribution        =     -29.89633977 Ry
     smearing contrib. (-TS)   =      -0.00063237 Ry

     convergence has been achieved in   5 iterations

     Forces acting on atoms (cartesian axes, Ry/au):

     atom    1 type  1   force =     0.00000000    0.00000000    0.00000000

     Total force =     0.000000     Total SCF correction =     0.000000


     Computing stress (Cartesian axis) and pressure

          total   stress  (Ry/bohr**3)                   (kbar)     P= -285.75
  -0.00194252  -0.00000000   0.00000000       -285.75     -0.00      0.00
  -0.00000000  -0.00194252  -0.00000000         -0.00   -285.75     -0.00
   0.00000000  -0.00000000  -0.00194252          0.00     -0.00   -285.75


     Writing output data file K.save/

     init_run     :      0.17s CPU      0.18s WALL (       1 calls)
     electrons    :      2.01s CPU      2.14s WALL (       1 calls)
     forces       :      0.04s CPU      0.04s WALL (       1 calls)
     stress       :      0.11s CPU      0.11s WALL (       1 calls)

     Called by init_run:
     wfcinit      :      0.08s CPU      0.08s WALL (       1 calls)
     potinit      :      0.01s CPU      0.01s WALL (       1 calls)
     hinit0       :      0.08s CPU      0.09s WALL (       1 calls)

     Called by electrons:
     c_bands      :      1.71s CPU      1.82s WALL (       6 calls)
     sum_band     :      0.26s CPU      0.28s WALL (       6 calls)
     v_of_rho     :      0.02s CPU      0.02s WALL (       6 calls)
     newd         :      0.02s CPU      0.03s WALL (       6 calls)
     mix_rho      :      0.00s CPU      0.00s WALL (       6 calls)

     Called by c_bands:
     init_us_2    :      0.06s CPU      0.06s WALL (     705 calls)
     cegterg      :      1.64s CPU      1.75s WALL (     282 calls)

     Called by sum_band:
     sum_band:bec :      0.00s CPU      0.00s WALL (     282 calls)
     addusdens    :      0.02s CPU      0.03s WALL (       6 calls)

     Called by *egterg:
     h_psi        :      1.21s CPU      1.30s WALL (    1319 calls)
     s_psi        :      0.03s CPU      0.03s WALL (    1319 calls)
     g_psi        :      0.00s CPU      0.00s WALL (     990 calls)
     cdiaghg      :      0.25s CPU      0.27s WALL (    1225 calls)

     Called by h_psi:
     h_psi:pot    :      1.20s CPU      1.29s WALL (    1319 calls)
     h_psi:calbec :      0.07s CPU      0.08s WALL (    1319 calls)
     vloc_psi     :      1.09s CPU      1.16s WALL (    1319 calls)
     add_vuspsi   :      0.03s CPU      0.03s WALL (    1319 calls)

     General routines
     calbec       :      0.13s CPU      0.13s WALL (    1836 calls)
     fft          :      0.01s CPU      0.01s WALL (      93 calls)
     ffts         :      0.00s CPU      0.00s WALL (       6 calls)
     fftw         :      1.19s CPU      1.27s WALL (   16914 calls)

     Parallel routines
     fft_scatt_xy :      0.10s CPU      0.10s WALL (   17013 calls)
     fft_scatt_yz :      0.44s CPU      0.46s WALL (   17013 calls)

     PWSCF        :     3.12s CPU         3.35s WALL


   This run was terminated on:   0:12:20   8Apr2024            

=------------------------------------------------------------------------------=
   JOB DONE.
=------------------------------------------------------------------------------=
