
     Program PWSCF v.6.3MaX starts on  8Apr2024 at  0:34:57 

     This program is part of the open-source Quantum ESPRESSO suite
     for quantum simulation of materials; please cite
         "P. Giannozzi et al., J. Phys.:Condens. Matter 21 395502 (2009);
         "P. Giannozzi et al., J. Phys.:Condens. Matter 29 465901 (2017);
          URL http://www.quantum-espresso.org", 
     in publications or presentations arising from this work. More details at
     http://www.quantum-espresso.org/quote

     Parallel version (MPI), running on     5 processors

     MPI processes distributed on     1 nodes
     R & G space division:  proc/nbgrp/npool/nimage =       5
     Waiting for input...
     Reading input from standard input

     Current dimensions of program PWSCF are:
     Max number of different atomic species (ntypx) = 10
     Max number of k-points (npk) =  40000
     Max angular momentum in pseudopotentials (lmaxx) =  3
               file K.pz-spn-rrkjus_psl.1.0.0.UPF: wavefunction(s)  3S renormalized

     Subspace diagonalization in iterative solution of the eigenvalue problem:
     a serial algorithm will be used


     Parallelization info
     --------------------
     sticks:   dense  smooth     PW     G-vecs:    dense   smooth      PW
     Min         221     221     63                 4575     4575     717
     Max         221     221     65                 4576     4576     718
     Sum        1105    1105    321                22879    22879    3589



     bravais-lattice index     =            3
     lattice parameter (alat)  =       9.8600  a.u.
     unit-cell volume          =     479.2926 (a.u.)^3
     number of atoms/cell      =            1
     number of atomic types    =            1
     number of electrons       =         9.00
     number of Kohn-Sham states=            9
     kinetic-energy cutoff     =      50.0000  Ry
     charge density cutoff     =     200.0000  Ry
     convergence threshold     =      1.0E-08
     mixing beta               =       0.7000
     number of iterations used =            8  plain     mixing
     Exchange-correlation      = LDA ( 1  1  0  0 0 0)

     celldm(1)=   9.860000  celldm(2)=   0.000000  celldm(3)=   0.000000
     celldm(4)=   0.000000  celldm(5)=   0.000000  celldm(6)=   0.000000

     crystal axes: (cart. coord. in units of alat)
               a(1) = (   0.500000   0.500000   0.500000 )  
               a(2) = (  -0.500000   0.500000   0.500000 )  
               a(3) = (  -0.500000  -0.500000   0.500000 )  

     reciprocal axes: (cart. coord. in units 2 pi/alat)
               b(1) = (  1.000000  0.000000  1.000000 )  
               b(2) = ( -1.000000  1.000000  0.000000 )  
               b(3) = (  0.000000 -1.000000  1.000000 )  


     PseudoPot. # 1 for K  read from file:
     /home/lorenzo/pseudos/K/K.pz-spn-rrkjus_psl.1.0.0.UPF
     MD5 check sum: af434a66a3b91719abff201b8f79bb09
     Pseudo is Ultrasoft + core correction, Zval =  9.0
     Generated using "atomic" code by A. Dal Corso v.6.2.2
     Using radial grid of 1165 points,  6 beta functions with: 
                l(1) =   0
                l(2) =   0
                l(3) =   1
                l(4) =   1
                l(5) =   2
                l(6) =   2
     Q(r) pseudized with 0 coefficients 


     atomic species   valence    mass     pseudopotential
        K              9.00    39.09830     K ( 1.00)

     48 Sym. Ops., with inversion, found



   Cartesian axes

     site n.     atom                  positions (alat units)
         1           K   tau(   1) = (   0.0000000   0.0000000   0.0000000  )

     number of k points=    10  gaussian smearing, width (Ry)=  0.0100
                       cart. coord. in units 2pi/alat
        k(    1) = (   0.0000000   0.0000000   0.0000000), wk =   0.0160000
        k(    2) = (   0.0000000  -0.2000000   0.2000000), wk =   0.1920000
        k(    3) = (   0.0000000  -0.4000000   0.4000000), wk =   0.1920000
        k(    4) = (  -0.2000000  -0.2000000   0.4000000), wk =   0.3840000
        k(    5) = (  -0.2000000   0.6000000  -0.4000000), wk =   0.3840000
        k(    6) = (   0.0000000   0.0000000   0.4000000), wk =   0.0960000
        k(    7) = (   0.0000000  -0.2000000   0.6000000), wk =   0.3840000
        k(    8) = (  -0.2000000   0.8000000  -0.2000000), wk =   0.1280000
        k(    9) = (   0.6000000  -0.6000000   0.4000000), wk =   0.1280000
        k(   10) = (   0.0000000   0.0000000   0.8000000), wk =   0.0960000

     Dense  grid:    22879 G-vectors     FFT dimensions: (  40,  40,  40)

     Estimated max dynamical RAM per process >      19.62 MB

     Estimated total dynamical RAM >      98.09 MB

     Check: negative/imaginary core charge=   -0.000006    0.000000

     Initial potential from superposition of free atoms

     starting charge    8.98437, renormalised to    9.00000
     Starting wfcs are    8 randomized atomic wfcs +    1 random wfcs

     total cpu time spent up to now is        1.0 secs

     Self-consistent Calculation

     iteration #  1     ecut=    50.00 Ry     beta= 0.70
     Davidson diagonalization with overlap
     ethr =  1.00E-02,  avg # of iterations =  6.9

     Threshold (ethr) on eigenvalues was too large:
     Diagonalizing with lowered threshold

     Davidson diagonalization with overlap
     ethr =  1.22E-05,  avg # of iterations =  6.1

     total cpu time spent up to now is        1.7 secs

     total energy              =     -58.74288442 Ry
     Harris-Foulkes estimate   =     -58.74345268 Ry
     estimated scf accuracy    <       0.00111972 Ry

     iteration #  2     ecut=    50.00 Ry     beta= 0.70
     Davidson diagonalization with overlap
     ethr =  1.24E-05,  avg # of iterations =  2.4

     total cpu time spent up to now is        2.0 secs

     total energy              =     -58.74308229 Ry
     Harris-Foulkes estimate   =     -58.74309973 Ry
     estimated scf accuracy    <       0.00008845 Ry

     iteration #  3     ecut=    50.00 Ry     beta= 0.70
     Davidson diagonalization with overlap
     ethr =  9.83E-07,  avg # of iterations =  2.3

     total cpu time spent up to now is        2.3 secs

     total energy              =     -58.74309114 Ry
     Harris-Foulkes estimate   =     -58.74309037 Ry
     estimated scf accuracy    <       0.00000564 Ry

     iteration #  4     ecut=    50.00 Ry     beta= 0.70
     Davidson diagonalization with overlap
     ethr =  6.26E-08,  avg # of iterations =  1.7

     total cpu time spent up to now is        2.5 secs

     total energy              =     -58.74309164 Ry
     Harris-Foulkes estimate   =     -58.74309163 Ry
     estimated scf accuracy    <       0.00000003 Ry

     iteration #  5     ecut=    50.00 Ry     beta= 0.70
     Davidson diagonalization with overlap
     ethr =  3.78E-10,  avg # of iterations =  1.8

     total cpu time spent up to now is        2.8 secs

     End of self-consistent calculation

          k = 0.0000 0.0000 0.0000 (  2899 PWs)   bands (ev):

   -30.0974 -13.7356 -13.7356 -13.7356  -0.4763   5.9300   5.9300   5.9300
     6.8758

          k = 0.0000-0.2000 0.2000 (  2872 PWs)   bands (ev):

   -30.0956 -13.7634 -13.7448 -13.7355   0.0289   5.0926   5.4550   6.3365
     6.6440

          k = 0.0000-0.4000 0.4000 (  2872 PWs)   bands (ev):

   -30.0927 -13.8078 -13.7598 -13.7355   1.4000   3.2802   4.9130   6.6292
     7.1270

          k =-0.2000-0.2000 0.4000 (  2848 PWs)   bands (ev):

   -30.0932 -13.7930 -13.7571 -13.7416   0.9742   4.1561   4.6167   6.5736
     6.6857

          k =-0.2000 0.6000-0.4000 (  2876 PWs)   bands (ev):

   -30.0918 -13.8054 -13.7726 -13.7433   2.5306   2.6596   4.1691   6.2391
     7.1377

          k = 0.0000 0.0000 0.4000 (  2867 PWs)   bands (ev):

   -30.0939 -13.7668 -13.7546 -13.7546   0.5137   5.1015   5.3504   5.3504
     6.5001

          k = 0.0000-0.2000 0.6000 (  2849 PWs)   bands (ev):

   -30.0912 -13.8011 -13.7702 -13.7560   1.8281   3.5345   5.0427   5.3169
     6.6805

          k =-0.2000 0.8000-0.2000 (  2871 PWs)   bands (ev):

   -30.0900 -13.7942 -13.7942 -13.7609   3.0932   3.0932   3.8050   6.1467
     6.1467

          k = 0.6000-0.6000 0.4000 (  2866 PWs)   bands (ev):

   -30.0921 -13.7949 -13.7614 -13.7614   2.2378   3.6315   3.6315   5.3856
     7.3540

          k = 0.0000 0.0000 0.8000 (  2835 PWs)   bands (ev):

   -30.0889 -13.7918 -13.7871 -13.7871   2.8400   3.5987   5.2174   5.2174
     5.2879

     the Fermi energy is     1.7811 ev

!    total energy              =     -58.74309164 Ry
     Harris-Foulkes estimate   =     -58.74309164 Ry
     estimated scf accuracy    <          6.8E-10 Ry

     The total energy is the sum of the following terms:

     one-electron contribution =     -36.65431024 Ry
     hartree contribution      =      18.82561008 Ry
     xc contribution           =     -11.01709018 Ry
     ewald contribution        =     -29.89633978 Ry
     smearing contrib. (-TS)   =      -0.00096152 Ry

     convergence has been achieved in   5 iterations

     Forces acting on atoms (cartesian axes, Ry/au):

     atom    1 type  1   force =     0.00000000    0.00000000    0.00000000

     Total force =     0.000000     Total SCF correction =     0.000000


     Computing stress (Cartesian axis) and pressure

          total   stress  (Ry/bohr**3)                   (kbar)     P=   -4.71
  -0.00003201   0.00000000  -0.00000000         -4.71      0.00     -0.00
   0.00000000  -0.00003201   0.00000000          0.00     -4.71      0.00
  -0.00000000   0.00000000  -0.00003201         -0.00      0.00     -4.71


     Writing output data file K.save/

     init_run     :      0.28s CPU      0.30s WALL (       1 calls)
     electrons    :      1.71s CPU      1.79s WALL (       1 calls)
     forces       :      0.06s CPU      0.06s WALL (       1 calls)
     stress       :      0.23s CPU      0.23s WALL (       1 calls)

     Called by init_run:
     wfcinit      :      0.07s CPU      0.08s WALL (       1 calls)
     potinit      :      0.01s CPU      0.01s WALL (       1 calls)
     hinit0       :      0.16s CPU      0.16s WALL (       1 calls)

     Called by electrons:
     c_bands      :      1.23s CPU      1.29s WALL (       6 calls)
     sum_band     :      0.34s CPU      0.36s WALL (       6 calls)
     v_of_rho     :      0.01s CPU      0.02s WALL (       6 calls)
     newd         :      0.13s CPU      0.14s WALL (       6 calls)
     mix_rho      :      0.01s CPU      0.01s WALL (       6 calls)

     Called by c_bands:
     init_us_2    :      0.05s CPU      0.05s WALL (     150 calls)
     cegterg      :      1.17s CPU      1.23s WALL (      60 calls)

     Called by sum_band:
     sum_band:bec :      0.00s CPU      0.00s WALL (      60 calls)
     addusdens    :      0.12s CPU      0.13s WALL (       6 calls)

     Called by *egterg:
     h_psi        :      0.96s CPU      1.02s WALL (     282 calls)
     s_psi        :      0.03s CPU      0.04s WALL (     282 calls)
     g_psi        :      0.00s CPU      0.00s WALL (     212 calls)
     cdiaghg      :      0.06s CPU      0.06s WALL (     262 calls)

     Called by h_psi:
     h_psi:pot    :      0.95s CPU      1.01s WALL (     282 calls)
     h_psi:calbec :      0.05s CPU      0.06s WALL (     282 calls)
     vloc_psi     :      0.86s CPU      0.92s WALL (     282 calls)
     add_vuspsi   :      0.04s CPU      0.04s WALL (     282 calls)

     General routines
     calbec       :      0.08s CPU      0.09s WALL (     392 calls)
     fft          :      0.02s CPU      0.02s WALL (      34 calls)
     ffts         :      0.00s CPU      0.00s WALL (       6 calls)
     fftw         :      0.94s CPU      1.00s WALL (    3694 calls)

     Parallel routines
     fft_scatt_xy :      0.08s CPU      0.08s WALL (    3734 calls)
     fft_scatt_yz :      0.24s CPU      0.26s WALL (    3734 calls)

     PWSCF        :     2.97s CPU         3.11s WALL


   This run was terminated on:   0:35: 0   8Apr2024            

=------------------------------------------------------------------------------=
   JOB DONE.
=------------------------------------------------------------------------------=
