
     Program PWSCF v.6.3MaX starts on  8Apr2024 at  0:32: 3 

     This program is part of the open-source Quantum ESPRESSO suite
     for quantum simulation of materials; please cite
         "P. Giannozzi et al., J. Phys.:Condens. Matter 21 395502 (2009);
         "P. Giannozzi et al., J. Phys.:Condens. Matter 29 465901 (2017);
          URL http://www.quantum-espresso.org", 
     in publications or presentations arising from this work. More details at
     http://www.quantum-espresso.org/quote

     Parallel version (MPI), running on     5 processors

     MPI processes distributed on     1 nodes
     R & G space division:  proc/nbgrp/npool/nimage =       5
     Waiting for input...
     Reading input from standard input

     Current dimensions of program PWSCF are:
     Max number of different atomic species (ntypx) = 10
     Max number of k-points (npk) =  40000
     Max angular momentum in pseudopotentials (lmaxx) =  3
               file K.pbe-spn-rrkjus_psl.1.0.0.UPF: wavefunction(s)  3S renormalized

     Subspace diagonalization in iterative solution of the eigenvalue problem:
     a serial algorithm will be used


     Parallelization info
     --------------------
     sticks:   dense  smooth     PW     G-vecs:    dense   smooth      PW
     Min         196     196     56                 3895     3895     619
     Max         197     197     57                 3897     3897     622
     Sum         981     981    283                19477    19477    3103



     bravais-lattice index     =            3
     lattice parameter (alat)  =       9.8600  a.u.
     unit-cell volume          =     479.2926 (a.u.)^3
     number of atoms/cell      =            1
     number of atomic types    =            1
     number of electrons       =         9.00
     number of Kohn-Sham states=            9
     kinetic-energy cutoff     =      45.0000  Ry
     charge density cutoff     =     180.0000  Ry
     convergence threshold     =      1.0E-08
     mixing beta               =       0.7000
     number of iterations used =            8  plain     mixing
     Exchange-correlation      = PBE ( 1  4  3  4 0 0)

     celldm(1)=   9.860000  celldm(2)=   0.000000  celldm(3)=   0.000000
     celldm(4)=   0.000000  celldm(5)=   0.000000  celldm(6)=   0.000000

     crystal axes: (cart. coord. in units of alat)
               a(1) = (   0.500000   0.500000   0.500000 )  
               a(2) = (  -0.500000   0.500000   0.500000 )  
               a(3) = (  -0.500000  -0.500000   0.500000 )  

     reciprocal axes: (cart. coord. in units 2 pi/alat)
               b(1) = (  1.000000  0.000000  1.000000 )  
               b(2) = ( -1.000000  1.000000  0.000000 )  
               b(3) = (  0.000000 -1.000000  1.000000 )  


     PseudoPot. # 1 for K  read from file:
     /home/lorenzo/pseudos/K/K.pbe-spn-rrkjus_psl.1.0.0.UPF
     MD5 check sum: 897b700350bb708b0563e904352feb48
     Pseudo is Ultrasoft + core correction, Zval =  9.0
     Generated using "atomic" code by A. Dal Corso v.6.2.2
     Using radial grid of 1165 points,  6 beta functions with: 
                l(1) =   0
                l(2) =   0
                l(3) =   1
                l(4) =   1
                l(5) =   2
                l(6) =   2
     Q(r) pseudized with 0 coefficients 


     atomic species   valence    mass     pseudopotential
        K              9.00    39.09830     K ( 1.00)

     48 Sym. Ops., with inversion, found



   Cartesian axes

     site n.     atom                  positions (alat units)
         1           K   tau(   1) = (   0.0000000   0.0000000   0.0000000  )

     number of k points=    35  gaussian smearing, width (Ry)=  0.0100
                       cart. coord. in units 2pi/alat
        k(    1) = (   0.0000000   0.0000000   0.0000000), wk =   0.0027435
        k(    2) = (   0.0000000  -0.1111111   0.1111111), wk =   0.0329218
        k(    3) = (   0.0000000  -0.2222222   0.2222222), wk =   0.0329218
        k(    4) = (   0.0000000  -0.3333333   0.3333333), wk =   0.0329218
        k(    5) = (   0.0000000  -0.4444444   0.4444444), wk =   0.0329218
        k(    6) = (  -0.1111111  -0.1111111   0.2222222), wk =   0.0658436
        k(    7) = (  -0.1111111  -0.2222222   0.3333333), wk =   0.1316872
        k(    8) = (  -0.1111111  -0.3333333   0.4444444), wk =   0.1316872
        k(    9) = (  -0.1111111   0.5555556  -0.4444444), wk =   0.0658436
        k(   10) = (  -0.2222222  -0.2222222   0.4444444), wk =   0.0658436
        k(   11) = (  -0.2222222   0.6666667  -0.4444444), wk =   0.1316872
        k(   12) = (  -0.3333333   0.6666667  -0.3333333), wk =   0.0219479
        k(   13) = (   0.0000000   0.0000000   0.2222222), wk =   0.0164609
        k(   14) = (   0.0000000  -0.1111111   0.3333333), wk =   0.0658436
        k(   15) = (   0.0000000  -0.2222222   0.4444444), wk =   0.0658436
        k(   16) = (   0.0000000  -0.3333333   0.5555556), wk =   0.0658436
        k(   17) = (  -0.1111111  -0.1111111   0.4444444), wk =   0.0658436
        k(   18) = (  -0.1111111  -0.2222222   0.5555556), wk =   0.1316872
        k(   19) = (  -0.1111111   0.6666667  -0.3333333), wk =   0.0658436
        k(   20) = (  -0.2222222   0.2222222   0.2222222), wk =   0.0219479
        k(   21) = (  -0.2222222   0.7777778  -0.3333333), wk =   0.0658436
        k(   22) = (  -0.3333333   0.3333333   0.2222222), wk =   0.0658436
        k(   23) = (   0.5555556  -0.5555556   0.2222222), wk =   0.0658436
        k(   24) = (   0.5555556  -0.6666667   0.3333333), wk =   0.0658436
        k(   25) = (   0.4444444  -0.5555556   0.3333333), wk =   0.0658436
        k(   26) = (   0.0000000   0.0000000   0.4444444), wk =   0.0164609
        k(   27) = (   0.0000000  -0.1111111   0.5555556), wk =   0.0658436
        k(   28) = (   0.0000000  -0.2222222   0.6666667), wk =   0.0658436
        k(   29) = (  -0.1111111  -0.1111111   0.6666667), wk =   0.0658436
        k(   30) = (  -0.1111111   0.7777778  -0.2222222), wk =   0.0658436
        k(   31) = (   0.5555556  -0.5555556   0.4444444), wk =   0.0219479
        k(   32) = (   0.0000000   0.0000000   0.6666667), wk =   0.0164609
        k(   33) = (   0.0000000  -0.1111111   0.7777778), wk =   0.0658436
        k(   34) = (  -0.1111111   0.8888889  -0.1111111), wk =   0.0219479
        k(   35) = (   0.0000000   0.0000000   0.8888889), wk =   0.0164609

     Dense  grid:    19477 G-vectors     FFT dimensions: (  40,  40,  40)

     Estimated max dynamical RAM per process >      18.69 MB

     Estimated total dynamical RAM >      93.44 MB

     Check: negative/imaginary core charge=   -0.000010    0.000000

     Initial potential from superposition of free atoms

     starting charge    8.98117, renormalised to    9.00000
     Starting wfcs are    8 randomized atomic wfcs +    1 random wfcs

     total cpu time spent up to now is        1.2 secs

     Self-consistent Calculation

     iteration #  1     ecut=    45.00 Ry     beta= 0.70
     Davidson diagonalization with overlap
     ethr =  1.00E-02,  avg # of iterations =  6.8

     Threshold (ethr) on eigenvalues was too large:
     Diagonalizing with lowered threshold

     Davidson diagonalization with overlap
     ethr =  1.43E-05,  avg # of iterations =  7.0

     total cpu time spent up to now is        3.6 secs

     total energy              =     -58.77308421 Ry
     Harris-Foulkes estimate   =     -58.77360368 Ry
     estimated scf accuracy    <       0.00127984 Ry

     iteration #  2     ecut=    45.00 Ry     beta= 0.70
     Davidson diagonalization with overlap
     ethr =  1.42E-05,  avg # of iterations =  2.2

     total cpu time spent up to now is        4.5 secs

     total energy              =     -58.77331638 Ry
     Harris-Foulkes estimate   =     -58.77331881 Ry
     estimated scf accuracy    <       0.00010056 Ry

     iteration #  3     ecut=    45.00 Ry     beta= 0.70
     Davidson diagonalization with overlap
     ethr =  1.12E-06,  avg # of iterations =  2.2

     total cpu time spent up to now is        5.3 secs

     total energy              =     -58.77332614 Ry
     Harris-Foulkes estimate   =     -58.77332361 Ry
     estimated scf accuracy    <       0.00000689 Ry

     iteration #  4     ecut=    45.00 Ry     beta= 0.70
     Davidson diagonalization with overlap
     ethr =  7.65E-08,  avg # of iterations =  1.7

     total cpu time spent up to now is        6.2 secs

     total energy              =     -58.77332681 Ry
     Harris-Foulkes estimate   =     -58.77332680 Ry
     estimated scf accuracy    <       0.00000005 Ry

     iteration #  5     ecut=    45.00 Ry     beta= 0.70
     Davidson diagonalization with overlap
     ethr =  5.40E-10,  avg # of iterations =  2.2

     total cpu time spent up to now is        7.1 secs

     End of self-consistent calculation

          k = 0.0000 0.0000 0.0000 (  2491 PWs)   bands (ev):

   -30.1646 -13.6126 -13.6126 -13.6126  -0.2594   6.2654   6.2654   7.1828
     7.1828

          k = 0.0000-0.1111 0.1111 (  2443 PWs)   bands (ev):

   -30.1639 -13.6216 -13.6155 -13.6125  -0.1019   6.0124   6.0724   6.3915
     6.9692

          k = 0.0000-0.2222 0.2222 (  2441 PWs)   bands (ev):

   -30.1625 -13.6445 -13.6232 -13.6124   0.3575   5.1593   5.6826   6.7627
     6.9785

          k = 0.0000-0.3333 0.3333 (  2431 PWs)   bands (ev):

   -30.1608 -13.6701 -13.6318 -13.6124   1.0796   4.1221   5.3377   7.0350
     7.2507

          k = 0.0000-0.4444 0.4444 (  2426 PWs)   bands (ev):

   -30.1598 -13.6867 -13.6374 -13.6123   1.9939   3.0654   5.1471   6.9052
     7.5620

          k =-0.1111-0.1111 0.2222 (  2448 PWs)   bands (ev):

   -30.1629 -13.6374 -13.6189 -13.6147   0.2067   5.5243   5.6946   6.6191
     6.8021

          k =-0.1111-0.2222 0.3333 (  2432 PWs)   bands (ev):

   -30.1614 -13.6596 -13.6280 -13.6155   0.7987   4.6525   5.2758   6.8322
     7.0178

          k =-0.1111-0.3333 0.4444 (  2439 PWs)   bands (ev):

   -30.1600 -13.6785 -13.6371 -13.6157   1.6225   3.6498   5.0043   6.7754
     7.4264

          k =-0.1111 0.5556-0.4444 (  2444 PWs)   bands (ev):

   -30.1595 -13.6859 -13.6408 -13.6157   2.5115   2.7058   4.9097   6.6553
     7.6649

          k =-0.2222-0.2222 0.4444 (  2444 PWs)   bands (ev):

   -30.1602 -13.6721 -13.6380 -13.6193   1.4953   4.1256   4.6566   6.9404
     6.9454

          k =-0.2222 0.6667-0.4444 (  2445 PWs)   bands (ev):

   -30.1593 -13.6770 -13.6488 -13.6205   2.3818   3.3374   4.2993   6.6277
     7.2557

          k =-0.3333 0.6667-0.3333 (  2457 PWs)   bands (ev):

   -30.1591 -13.6651 -13.6651 -13.6221   3.1594   3.1594   3.5794   6.5962
     7.3449

          k = 0.0000 0.0000 0.2222 (  2435 PWs)   bands (ev):

   -30.1634 -13.6240 -13.6186 -13.6186   0.0536   5.9760   5.9760   6.3475
     6.4490

          k = 0.0000-0.1111 0.3333 (  2449 PWs)   bands (ev):

   -30.1620 -13.6441 -13.6264 -13.6198   0.5072   5.2055   5.6688   6.2149
     6.7790

          k = 0.0000-0.2222 0.4444 (  2445 PWs)   bands (ev):

   -30.1604 -13.6685 -13.6352 -13.6193   1.2201   4.1913   5.3646   6.2644
     7.3546

          k = 0.0000-0.3333 0.5556 (  2437 PWs)   bands (ev):

   -30.1593 -13.6843 -13.6408 -13.6190   2.1259   3.1587   5.1913   6.1763
     7.4866

          k =-0.1111-0.1111 0.4444 (  2443 PWs)   bands (ev):

   -30.1605 -13.6600 -13.6354 -13.6242   1.0832   4.6181   5.2425   6.1671
     7.0924

          k =-0.1111-0.2222 0.5556 (  2449 PWs)   bands (ev):

   -30.1593 -13.6753 -13.6453 -13.6247   1.8844   3.7910   4.8535   6.2383
     7.1118

          k =-0.1111 0.6667-0.3333 (  2456 PWs)   bands (ev):

   -30.1588 -13.6814 -13.6494 -13.6247   2.8143   2.8438   4.7159   6.1759
     7.2780

          k =-0.2222 0.2222 0.2222 (  2430 PWs)   bands (ev):

   -30.1618 -13.6562 -13.6195 -13.6195   0.6545   5.0388   5.0388   6.8565
     7.2435

          k =-0.2222 0.7778-0.3333 (  2460 PWs)   bands (ev):

   -30.1585 -13.6739 -13.6598 -13.6263   2.7177   3.4566   4.0421   6.6409
     6.8920

          k =-0.3333 0.3333 0.2222 (  2425 PWs)   bands (ev):

   -30.1605 -13.6714 -13.6313 -13.6203   1.3611   4.1965   4.7005   6.7969
     7.3795

          k = 0.5556-0.5556 0.2222 (  2434 PWs)   bands (ev):

   -30.1596 -13.6788 -13.6414 -13.6208   2.2594   3.2504   4.5291   6.4493
     7.5925

          k = 0.5556-0.6667 0.3333 (  2433 PWs)   bands (ev):

   -30.1597 -13.6730 -13.6409 -13.6266   2.1450   3.7972   4.1251   6.1714
     7.5129

          k = 0.4444-0.5556 0.3333 (  2420 PWs)   bands (ev):

   -30.1594 -13.6686 -13.6506 -13.6281   3.0103   3.0776   3.9324   5.8713
     7.6162

          k = 0.0000 0.0000 0.4444 (  2447 PWs)   bands (ev):

   -30.1607 -13.6470 -13.6344 -13.6344   0.9427   5.0935   5.5728   5.5728
     6.9622

          k = 0.0000-0.1111 0.5556 (  2454 PWs)   bands (ev):

   -30.1592 -13.6646 -13.6436 -13.6366   1.6245   4.3157   5.4126   5.5656
     6.8817

          k = 0.0000-0.2222 0.6667 (  2450 PWs)   bands (ev):

   -30.1582 -13.6782 -13.6495 -13.6356   2.4846   3.4222   5.3013   5.3852
     6.9047

          k =-0.1111-0.1111 0.6667 (  2453 PWs)   bands (ev):

   -30.1580 -13.6716 -13.6550 -13.6399   2.3645   3.8689   4.8067   5.8570
     6.5029

          k =-0.1111 0.7778-0.2222 (  2453 PWs)   bands (ev):

   -30.1576 -13.6744 -13.6609 -13.6397   3.1119   3.2842   4.4729   5.9675
     6.5800

          k = 0.5556-0.5556 0.4444 (  2415 PWs)   bands (ev):

   -30.1594 -13.6622 -13.6428 -13.6428   2.9350   3.6357   3.6357   5.3484
     7.7574

          k = 0.0000 0.0000 0.6667 (  2442 PWs)   bands (ev):

   -30.1578 -13.6628 -13.6531 -13.6531   2.2408   4.1514   5.4296   5.4296
     6.0583

          k = 0.0000-0.1111 0.7778 (  2447 PWs)   bands (ev):

   -30.1569 -13.6713 -13.6594 -13.6542   2.9673   3.6855   5.1095   5.4204
     6.1159

          k =-0.1111 0.8889-0.1111 (  2457 PWs)   bands (ev):

   -30.1565 -13.6682 -13.6682 -13.6557   3.4587   3.4587   4.7995   5.8470
     5.8470

          k = 0.0000 0.0000 0.8889 (  2458 PWs)   bands (ev):

   -30.1561 -13.6673 -13.6658 -13.6658   3.4205   3.6630   5.4820   5.4930
     5.4930

     the Fermi energy is     1.9593 ev

!    total energy              =     -58.77332682 Ry
     Harris-Foulkes estimate   =     -58.77332682 Ry
     estimated scf accuracy    <          1.1E-09 Ry

     The total energy is the sum of the following terms:

     one-electron contribution =     -36.58542474 Ry
     hartree contribution      =      18.87926166 Ry
     xc contribution           =     -11.17038895 Ry
     ewald contribution        =     -29.89633975 Ry
     smearing contrib. (-TS)   =      -0.00043503 Ry

     convergence has been achieved in   5 iterations

     Forces acting on atoms (cartesian axes, Ry/au):

     atom    1 type  1   force =     0.00000000    0.00000000    0.00000000

     Total force =     0.000000     Total SCF correction =     0.000000


     Computing stress (Cartesian axis) and pressure

          total   stress  (Ry/bohr**3)                   (kbar)     P=    0.41
   0.00000282  -0.00000000   0.00000000          0.41     -0.00      0.00
   0.00000000   0.00000282  -0.00000000          0.00      0.41     -0.00
   0.00000000   0.00000000   0.00000282          0.00      0.00      0.41


     Writing output data file K.save/

     init_run     :      0.46s CPU      0.47s WALL (       1 calls)
     electrons    :      5.66s CPU      5.94s WALL (       1 calls)
     forces       :      0.10s CPU      0.10s WALL (       1 calls)
     stress       :      0.39s CPU      0.39s WALL (       1 calls)

     Called by init_run:
     wfcinit      :      0.23s CPU      0.25s WALL (       1 calls)
     potinit      :      0.03s CPU      0.03s WALL (       1 calls)
     hinit0       :      0.15s CPU      0.16s WALL (       1 calls)

     Called by electrons:
     c_bands      :      4.59s CPU      4.83s WALL (       6 calls)
     sum_band     :      0.90s CPU      0.93s WALL (       6 calls)
     v_of_rho     :      0.08s CPU      0.08s WALL (       6 calls)
     newd         :      0.12s CPU      0.12s WALL (       6 calls)
     mix_rho      :      0.01s CPU      0.01s WALL (       6 calls)

     Called by c_bands:
     init_us_2    :      0.17s CPU      0.18s WALL (     525 calls)
     cegterg      :      4.38s CPU      4.61s WALL (     210 calls)

     Called by sum_band:
     sum_band:bec :      0.00s CPU      0.00s WALL (     210 calls)
     addusdens    :      0.11s CPU      0.11s WALL (       6 calls)

     Called by *egterg:
     h_psi        :      3.61s CPU      3.84s WALL (    1016 calls)
     s_psi        :      0.10s CPU      0.11s WALL (    1016 calls)
     g_psi        :      0.01s CPU      0.01s WALL (     771 calls)
     cdiaghg      :      0.23s CPU      0.24s WALL (     946 calls)

     Called by h_psi:
     h_psi:pot    :      3.59s CPU      3.82s WALL (    1016 calls)
     h_psi:calbec :      0.22s CPU      0.23s WALL (    1016 calls)
     vloc_psi     :      3.25s CPU      3.46s WALL (    1016 calls)
     add_vuspsi   :      0.11s CPU      0.12s WALL (    1016 calls)

     General routines
     calbec       :      0.36s CPU      0.37s WALL (    1401 calls)
     fft          :      0.05s CPU      0.05s WALL (      93 calls)
     ffts         :      0.00s CPU      0.00s WALL (       6 calls)
     fftw         :      3.60s CPU      3.82s WALL (   12926 calls)

     Parallel routines
     fft_scatt_xy :      0.27s CPU      0.28s WALL (   13025 calls)
     fft_scatt_yz :      1.18s CPU      1.26s WALL (   13025 calls)

     PWSCF        :     7.34s CPU         7.73s WALL


   This run was terminated on:   0:32:11   8Apr2024            

=------------------------------------------------------------------------------=
   JOB DONE.
=------------------------------------------------------------------------------=
