
     Program PWSCF v.6.3MaX starts on  8Apr2024 at  0:13:18 

     This program is part of the open-source Quantum ESPRESSO suite
     for quantum simulation of materials; please cite
         "P. Giannozzi et al., J. Phys.:Condens. Matter 21 395502 (2009);
         "P. Giannozzi et al., J. Phys.:Condens. Matter 29 465901 (2017);
          URL http://www.quantum-espresso.org", 
     in publications or presentations arising from this work. More details at
     http://www.quantum-espresso.org/quote

     Parallel version (MPI), running on     5 processors

     MPI processes distributed on     1 nodes
     R & G space division:  proc/nbgrp/npool/nimage =       5
     Waiting for input...
     Reading input from standard input

     Current dimensions of program PWSCF are:
     Max number of different atomic species (ntypx) = 10
     Max number of k-points (npk) =  40000
     Max angular momentum in pseudopotentials (lmaxx) =  3
               file K.pz-spn-kjpaw_psl.1.0.0.UPF: wavefunction(s)  3S renormalized

     Subspace diagonalization in iterative solution of the eigenvalue problem:
     a serial algorithm will be used


     Parallelization info
     --------------------
     sticks:   dense  smooth     PW     G-vecs:    dense   smooth      PW
     Min          66      66     23                  756      756     153
     Max          67      67     24                  757      757     154
     Sum         333     333    117                 3781     3781     767



     bravais-lattice index     =            3
     lattice parameter (alat)  =       9.8600  a.u.
     unit-cell volume          =     479.2926 (a.u.)^3
     number of atoms/cell      =            1
     number of atomic types    =            1
     number of electrons       =         9.00
     number of Kohn-Sham states=            9
     kinetic-energy cutoff     =      15.0000  Ry
     charge density cutoff     =      60.0000  Ry
     convergence threshold     =      1.0E-08
     mixing beta               =       0.7000
     number of iterations used =            8  plain     mixing
     Exchange-correlation      = SLA PZ NOGX NOGC ( 1  1  0  0 0 0)

     celldm(1)=   9.860000  celldm(2)=   0.000000  celldm(3)=   0.000000
     celldm(4)=   0.000000  celldm(5)=   0.000000  celldm(6)=   0.000000

     crystal axes: (cart. coord. in units of alat)
               a(1) = (   0.500000   0.500000   0.500000 )  
               a(2) = (  -0.500000   0.500000   0.500000 )  
               a(3) = (  -0.500000  -0.500000   0.500000 )  

     reciprocal axes: (cart. coord. in units 2 pi/alat)
               b(1) = (  1.000000  0.000000  1.000000 )  
               b(2) = ( -1.000000  1.000000  0.000000 )  
               b(3) = (  0.000000 -1.000000  1.000000 )  


     PseudoPot. # 1 for K  read from file:
     /home/lorenzo/pseudos/K/K.pz-spn-kjpaw_psl.1.0.0.UPF
     MD5 check sum: 59b94f4c1a6681f21e103574f2c5fc67
     Pseudo is Projector augmented-wave + core cor, Zval =  9.0
     Generated using "atomic" code by A. Dal Corso v.6.2.2
     Shape of augmentation charge: PSQ
     Using radial grid of 1165 points,  6 beta functions with: 
                l(1) =   0
                l(2) =   0
                l(3) =   1
                l(4) =   1
                l(5) =   2
                l(6) =   2
     Q(r) pseudized with 0 coefficients 


     atomic species   valence    mass     pseudopotential
        K              9.00    39.09830     K ( 1.00)

     48 Sym. Ops., with inversion, found



   Cartesian axes

     site n.     atom                  positions (alat units)
         1           K   tau(   1) = (   0.0000000   0.0000000   0.0000000  )

     number of k points=     8  gaussian smearing, width (Ry)=  0.0100
                       cart. coord. in units 2pi/alat
        k(    1) = (   0.0000000   0.0000000   0.0000000), wk =   0.0312500
        k(    2) = (   0.0000000  -0.2500000   0.2500000), wk =   0.3750000
        k(    3) = (   0.0000000   0.5000000  -0.5000000), wk =   0.1875000
        k(    4) = (  -0.2500000   0.7500000  -0.5000000), wk =   0.7500000
        k(    5) = (   0.0000000   0.0000000   0.5000000), wk =   0.1875000
        k(    6) = (   0.0000000   0.7500000  -0.2500000), wk =   0.3750000
        k(    7) = (   0.5000000  -0.5000000   0.5000000), wk =   0.0625000
        k(    8) = (   0.0000000   0.0000000  -1.0000000), wk =   0.0312500

     Dense  grid:     3781 G-vectors     FFT dimensions: (  24,  24,  24)

     Estimated max dynamical RAM per process >       3.95 MB

     Estimated total dynamical RAM >      19.76 MB

     Check: negative/imaginary core charge=   -0.000370    0.000000

     Initial potential from superposition of free atoms

     starting charge    8.98437, renormalised to    9.00000
     Starting wfcs are    8 randomized atomic wfcs +    1 random wfcs
     Checking if some PAW data can be deallocated... 

     total cpu time spent up to now is        1.1 secs

     Self-consistent Calculation

     iteration #  1     ecut=    15.00 Ry     beta= 0.70
     Davidson diagonalization with overlap
     ethr =  1.00E-02,  avg # of iterations =  8.0

     Threshold (ethr) on eigenvalues was too large:
     Diagonalizing with lowered threshold

     Davidson diagonalization with overlap
     ethr =  4.84E-04,  avg # of iterations =  1.9

     total cpu time spent up to now is        1.9 secs

     total energy              =    -109.45891843 Ry
     Harris-Foulkes estimate   =    -109.49730982 Ry
     estimated scf accuracy    <       0.04458620 Ry

     iteration #  2     ecut=    15.00 Ry     beta= 0.70
     Davidson diagonalization with overlap
     ethr =  4.95E-04,  avg # of iterations =  2.0

     total cpu time spent up to now is        2.2 secs

     total energy              =    -109.47012752 Ry
     Harris-Foulkes estimate   =    -109.47137625 Ry
     estimated scf accuracy    <       0.00301670 Ry

     iteration #  3     ecut=    15.00 Ry     beta= 0.70
     Davidson diagonalization with overlap
     ethr =  3.35E-05,  avg # of iterations =  2.5

     total cpu time spent up to now is        2.4 secs

     total energy              =    -109.47037349 Ry
     Harris-Foulkes estimate   =    -109.47041373 Ry
     estimated scf accuracy    <       0.00015605 Ry

     iteration #  4     ecut=    15.00 Ry     beta= 0.70
     Davidson diagonalization with overlap
     ethr =  1.73E-06,  avg # of iterations =  3.6

     total cpu time spent up to now is        2.6 secs

     total energy              =    -109.47037721 Ry
     Harris-Foulkes estimate   =    -109.47037732 Ry
     estimated scf accuracy    <       0.00000029 Ry

     iteration #  5     ecut=    15.00 Ry     beta= 0.70
     Davidson diagonalization with overlap
     ethr =  3.18E-09,  avg # of iterations =  2.5

     total cpu time spent up to now is        2.7 secs

     total energy              =    -109.47037739 Ry
     Harris-Foulkes estimate   =    -109.47037740 Ry
     estimated scf accuracy    <       0.00000001 Ry

     iteration #  6     ecut=    15.00 Ry     beta= 0.70
     Davidson diagonalization with overlap
     ethr =  1.35E-10,  avg # of iterations =  2.1

     total cpu time spent up to now is        2.8 secs

     End of self-consistent calculation

          k = 0.0000 0.0000 0.0000 (   459 PWs)   bands (ev):

   -31.1626 -13.5607 -13.5607 -13.5607  -0.4371   6.5050   6.5050   6.5050
     7.6298

          k = 0.0000-0.2500 0.2500 (   465 PWs)   bands (ev):

   -31.1607 -13.6472 -13.6337 -13.5784   0.3575   4.9714   5.7364   7.1582
     7.3437

          k = 0.0000 0.5000-0.5000 (   476 PWs)   bands (ev):

   -31.1590 -13.7491 -13.7488 -13.6171   2.2339   2.6248   5.2261   7.0212
     7.9590

          k =-0.2500 0.7500-0.5000 (   478 PWs)   bands (ev):

   -31.1592 -13.7686 -13.7089 -13.6849   1.7938   3.8508   4.3265   6.7031
     7.3192

          k = 0.0000 0.0000 0.5000 (   458 PWs)   bands (ev):

   -31.1587 -13.6308 -13.5914 -13.5914   1.1085   4.9357   5.6035   5.6035
     7.1747

          k = 0.0000 0.7500-0.2500 (   462 PWs)   bands (ev):

   -31.1570 -13.7205 -13.6455 -13.5773   2.9815   3.0248   5.1717   5.3708
     6.9340

          k = 0.5000-0.5000 0.5000 (   484 PWs)   bands (ev):

   -31.1592 -13.7594 -13.7594 -13.7594   3.4193   3.4193   3.4193   4.7166
     8.2365

          k = 0.0000 0.0000-1.0000 (   466 PWs)   bands (ev):

   -31.1556 -13.6949 -13.6949 -13.6949   3.6712   5.4264   5.4264   5.4264
     7.1766

     the Fermi energy is     1.8039 ev

!    total energy              =    -109.47037739 Ry
     Harris-Foulkes estimate   =    -109.47037739 Ry
     estimated scf accuracy    <          2.1E-11 Ry

     total all-electron energy =     -1200.795377 Ry

     The total energy is the sum of the following terms:

     one-electron contribution =     -34.79325713 Ry
     hartree contribution      =      18.39681581 Ry
     xc contribution           =     -10.92149720 Ry
     ewald contribution        =     -29.89633977 Ry
     one-center paw contrib.   =     -52.25399492 Ry
     smearing contrib. (-TS)   =      -0.00210419 Ry

     convergence has been achieved in   6 iterations

     Forces acting on atoms (cartesian axes, Ry/au):

     atom    1 type  1   force =     0.00000000    0.00000000    0.00000000

     Total force =     0.000000     Total SCF correction =     0.000000


     Computing stress (Cartesian axis) and pressure

          total   stress  (Ry/bohr**3)                   (kbar)     P= -337.11
  -0.00229161   0.00000000  -0.00000000       -337.11      0.00     -0.00
   0.00000000  -0.00229161   0.00000000          0.00   -337.11      0.00
  -0.00000000   0.00000000  -0.00229161         -0.00      0.00   -337.11


     Writing output data file K.save/

     init_run     :      0.24s CPU      0.25s WALL (       1 calls)
     electrons    :      1.64s CPU      1.69s WALL (       1 calls)
     forces       :      0.02s CPU      0.02s WALL (       1 calls)
     stress       :      0.06s CPU      0.06s WALL (       1 calls)

     Called by init_run:
     wfcinit      :      0.04s CPU      0.04s WALL (       1 calls)
     potinit      :      0.08s CPU      0.08s WALL (       1 calls)
     hinit0       :      0.12s CPU      0.12s WALL (       1 calls)

     Called by electrons:
     c_bands      :      0.92s CPU      0.95s WALL (       7 calls)
     sum_band     :      0.24s CPU      0.25s WALL (       7 calls)
     v_of_rho     :      0.03s CPU      0.03s WALL (       7 calls)
     newd         :      0.05s CPU      0.05s WALL (       7 calls)
     PAW_pot      :      0.45s CPU      0.46s WALL (       7 calls)
     mix_rho      :      0.00s CPU      0.01s WALL (       7 calls)

     Called by c_bands:
     init_us_2    :      0.02s CPU      0.02s WALL (     136 calls)
     cegterg      :      0.88s CPU      0.91s WALL (      56 calls)

     Called by sum_band:
     sum_band:bec :      0.00s CPU      0.00s WALL (      56 calls)
     addusdens    :      0.04s CPU      0.04s WALL (       7 calls)

     Called by *egterg:
     h_psi        :      0.67s CPU      0.69s WALL (     245 calls)
     s_psi        :      0.01s CPU      0.01s WALL (     245 calls)
     g_psi        :      0.00s CPU      0.00s WALL (     181 calls)
     cdiaghg      :      0.11s CPU      0.11s WALL (     229 calls)

     Called by h_psi:
     h_psi:pot    :      0.67s CPU      0.69s WALL (     245 calls)
     h_psi:calbec :      0.07s CPU      0.07s WALL (     245 calls)
     vloc_psi     :      0.59s CPU      0.61s WALL (     245 calls)
     add_vuspsi   :      0.01s CPU      0.01s WALL (     245 calls)

     General routines
     calbec       :      0.08s CPU      0.09s WALL (     341 calls)
     fft          :      0.02s CPU      0.02s WALL (      38 calls)
     ffts         :      0.00s CPU      0.00s WALL (       7 calls)
     fftw         :      0.69s CPU      0.71s WALL (    3316 calls)

     Parallel routines
     fft_scatt_xy :      0.03s CPU      0.03s WALL (    3361 calls)
     fft_scatt_yz :      0.51s CPU      0.52s WALL (    3361 calls)

     PWSCF        :     2.82s CPU         2.92s WALL


   This run was terminated on:   0:13:21   8Apr2024            

=------------------------------------------------------------------------------=
   JOB DONE.
=------------------------------------------------------------------------------=
