
     Program PWSCF v.6.3MaX starts on  8Apr2024 at  0:12:20 

     This program is part of the open-source Quantum ESPRESSO suite
     for quantum simulation of materials; please cite
         "P. Giannozzi et al., J. Phys.:Condens. Matter 21 395502 (2009);
         "P. Giannozzi et al., J. Phys.:Condens. Matter 29 465901 (2017);
          URL http://www.quantum-espresso.org", 
     in publications or presentations arising from this work. More details at
     http://www.quantum-espresso.org/quote

     Parallel version (MPI), running on     5 processors

     MPI processes distributed on     1 nodes
     R & G space division:  proc/nbgrp/npool/nimage =       5
     Waiting for input...
     Reading input from standard input

     Current dimensions of program PWSCF are:
     Max number of different atomic species (ntypx) = 10
     Max number of k-points (npk) =  40000
     Max angular momentum in pseudopotentials (lmaxx) =  3
               file K.pz-spn-kjpaw_psl.1.0.0.UPF: wavefunction(s)  3S renormalized

     Subspace diagonalization in iterative solution of the eigenvalue problem:
     a serial algorithm will be used


     Parallelization info
     --------------------
     sticks:   dense  smooth     PW     G-vecs:    dense   smooth      PW
     Min          66      66     23                  756      756     153
     Max          67      67     24                  757      757     154
     Sum         333     333    117                 3781     3781     767



     bravais-lattice index     =            3
     lattice parameter (alat)  =       9.8600  a.u.
     unit-cell volume          =     479.2926 (a.u.)^3
     number of atoms/cell      =            1
     number of atomic types    =            1
     number of electrons       =         9.00
     number of Kohn-Sham states=            9
     kinetic-energy cutoff     =      15.0000  Ry
     charge density cutoff     =      60.0000  Ry
     convergence threshold     =      1.0E-08
     mixing beta               =       0.7000
     number of iterations used =            8  plain     mixing
     Exchange-correlation      = SLA PZ NOGX NOGC ( 1  1  0  0 0 0)

     celldm(1)=   9.860000  celldm(2)=   0.000000  celldm(3)=   0.000000
     celldm(4)=   0.000000  celldm(5)=   0.000000  celldm(6)=   0.000000

     crystal axes: (cart. coord. in units of alat)
               a(1) = (   0.500000   0.500000   0.500000 )  
               a(2) = (  -0.500000   0.500000   0.500000 )  
               a(3) = (  -0.500000  -0.500000   0.500000 )  

     reciprocal axes: (cart. coord. in units 2 pi/alat)
               b(1) = (  1.000000  0.000000  1.000000 )  
               b(2) = ( -1.000000  1.000000  0.000000 )  
               b(3) = (  0.000000 -1.000000  1.000000 )  


     PseudoPot. # 1 for K  read from file:
     /home/lorenzo/pseudos/K/K.pz-spn-kjpaw_psl.1.0.0.UPF
     MD5 check sum: 59b94f4c1a6681f21e103574f2c5fc67
     Pseudo is Projector augmented-wave + core cor, Zval =  9.0
     Generated using "atomic" code by A. Dal Corso v.6.2.2
     Shape of augmentation charge: PSQ
     Using radial grid of 1165 points,  6 beta functions with: 
                l(1) =   0
                l(2) =   0
                l(3) =   1
                l(4) =   1
                l(5) =   2
                l(6) =   2
     Q(r) pseudized with 0 coefficients 


     atomic species   valence    mass     pseudopotential
        K              9.00    39.09830     K ( 1.00)

     48 Sym. Ops., with inversion, found



   Cartesian axes

     site n.     atom                  positions (alat units)
         1           K   tau(   1) = (   0.0000000   0.0000000   0.0000000  )

     number of k points=    47  gaussian smearing, width (Ry)=  0.0100
                       cart. coord. in units 2pi/alat
        k(    1) = (   0.0000000   0.0000000   0.0000000), wk =   0.0020000
        k(    2) = (   0.0000000  -0.1000000   0.1000000), wk =   0.0240000
        k(    3) = (   0.0000000  -0.2000000   0.2000000), wk =   0.0240000
        k(    4) = (   0.0000000  -0.3000000   0.3000000), wk =   0.0240000
        k(    5) = (   0.0000000  -0.4000000   0.4000000), wk =   0.0240000
        k(    6) = (   0.0000000   0.5000000  -0.5000000), wk =   0.0120000
        k(    7) = (  -0.1000000  -0.1000000   0.2000000), wk =   0.0480000
        k(    8) = (  -0.1000000  -0.2000000   0.3000000), wk =   0.0960000
        k(    9) = (  -0.1000000  -0.3000000   0.4000000), wk =   0.0960000
        k(   10) = (  -0.1000000   0.6000000  -0.5000000), wk =   0.0960000
        k(   11) = (  -0.2000000  -0.2000000   0.4000000), wk =   0.0480000
        k(   12) = (  -0.2000000   0.7000000  -0.5000000), wk =   0.0960000
        k(   13) = (  -0.2000000   0.6000000  -0.4000000), wk =   0.0480000
        k(   14) = (  -0.3000000   0.7000000  -0.4000000), wk =   0.0480000
        k(   15) = (   0.0000000   0.0000000   0.2000000), wk =   0.0120000
        k(   16) = (   0.0000000  -0.1000000   0.3000000), wk =   0.0480000
        k(   17) = (   0.0000000  -0.2000000   0.4000000), wk =   0.0480000
        k(   18) = (   0.0000000  -0.3000000   0.5000000), wk =   0.0480000
        k(   19) = (   0.0000000   0.6000000  -0.4000000), wk =   0.0240000
        k(   20) = (  -0.1000000  -0.1000000   0.4000000), wk =   0.0480000
        k(   21) = (  -0.1000000  -0.2000000   0.5000000), wk =   0.0960000
        k(   22) = (  -0.1000000   0.7000000  -0.4000000), wk =   0.0960000
        k(   23) = (  -0.2000000   0.2000000   0.2000000), wk =   0.0160000
        k(   24) = (  -0.2000000   0.8000000  -0.4000000), wk =   0.0480000
        k(   25) = (  -0.2000000   0.7000000  -0.3000000), wk =   0.0480000
        k(   26) = (  -0.3000000   0.3000000   0.2000000), wk =   0.0480000
        k(   27) = (   0.6000000  -0.6000000   0.2000000), wk =   0.0480000
        k(   28) = (   0.6000000  -0.7000000   0.3000000), wk =   0.0480000
        k(   29) = (   0.5000000  -0.5000000   0.2000000), wk =   0.0240000
        k(   30) = (   0.5000000  -0.6000000   0.3000000), wk =   0.0960000
        k(   31) = (   0.4000000  -0.6000000   0.4000000), wk =   0.0160000
        k(   32) = (   0.0000000   0.0000000   0.4000000), wk =   0.0120000
        k(   33) = (   0.0000000  -0.1000000   0.5000000), wk =   0.0480000
        k(   34) = (   0.0000000  -0.2000000   0.6000000), wk =   0.0480000
        k(   35) = (   0.0000000   0.7000000  -0.3000000), wk =   0.0240000
        k(   36) = (  -0.1000000  -0.1000000   0.6000000), wk =   0.0480000
        k(   37) = (  -0.1000000   0.8000000  -0.3000000), wk =   0.0960000
        k(   38) = (  -0.2000000   0.8000000  -0.2000000), wk =   0.0160000
        k(   39) = (   0.6000000  -0.6000000   0.4000000), wk =   0.0160000
        k(   40) = (   0.5000000  -0.5000000   0.4000000), wk =   0.0240000
        k(   41) = (   0.0000000   0.0000000   0.6000000), wk =   0.0120000
        k(   42) = (   0.0000000  -0.1000000   0.7000000), wk =   0.0480000
        k(   43) = (   0.0000000   0.8000000  -0.2000000), wk =   0.0240000
        k(   44) = (  -0.1000000   0.9000000  -0.2000000), wk =   0.0480000
        k(   45) = (   0.0000000   0.0000000   0.8000000), wk =   0.0120000
        k(   46) = (   0.0000000   0.9000000  -0.1000000), wk =   0.0240000
        k(   47) = (   0.0000000   0.0000000  -1.0000000), wk =   0.0020000

     Dense  grid:     3781 G-vectors     FFT dimensions: (  24,  24,  24)

     Estimated max dynamical RAM per process >       4.46 MB

     Estimated total dynamical RAM >      22.28 MB

     Check: negative/imaginary core charge=   -0.000370    0.000000

     Initial potential from superposition of free atoms

     starting charge    8.98437, renormalised to    9.00000
     Starting wfcs are    8 randomized atomic wfcs +    1 random wfcs
     Checking if some PAW data can be deallocated... 

     total cpu time spent up to now is        0.9 secs

     Self-consistent Calculation

     iteration #  1     ecut=    15.00 Ry     beta= 0.70
     Davidson diagonalization with overlap
     ethr =  1.00E-02,  avg # of iterations =  6.7

     Threshold (ethr) on eigenvalues was too large:
     Diagonalizing with lowered threshold

     Davidson diagonalization with overlap
     ethr =  4.85E-04,  avg # of iterations =  1.9

     total cpu time spent up to now is        1.9 secs

     total energy              =    -109.46282774 Ry
     Harris-Foulkes estimate   =    -109.50128171 Ry
     estimated scf accuracy    <       0.04463889 Ry

     iteration #  2     ecut=    15.00 Ry     beta= 0.70
     Davidson diagonalization with overlap
     ethr =  4.96E-04,  avg # of iterations =  2.1

     total cpu time spent up to now is        2.2 secs

     total energy              =    -109.47406642 Ry
     Harris-Foulkes estimate   =    -109.47531264 Ry
     estimated scf accuracy    <       0.00300925 Ry

     iteration #  3     ecut=    15.00 Ry     beta= 0.70
     Davidson diagonalization with overlap
     ethr =  3.34E-05,  avg # of iterations =  4.0

     total cpu time spent up to now is        2.6 secs

     total energy              =    -109.47432316 Ry
     Harris-Foulkes estimate   =    -109.47436420 Ry
     estimated scf accuracy    <       0.00015629 Ry

     iteration #  4     ecut=    15.00 Ry     beta= 0.70
     Davidson diagonalization with overlap
     ethr =  1.74E-06,  avg # of iterations =  3.9

     total cpu time spent up to now is        2.9 secs

     total energy              =    -109.47432675 Ry
     Harris-Foulkes estimate   =    -109.47432686 Ry
     estimated scf accuracy    <       0.00000029 Ry

     iteration #  5     ecut=    15.00 Ry     beta= 0.70
     Davidson diagonalization with overlap
     ethr =  3.18E-09,  avg # of iterations =  2.6

     total cpu time spent up to now is        3.3 secs

     total energy              =    -109.47432693 Ry
     Harris-Foulkes estimate   =    -109.47432694 Ry
     estimated scf accuracy    <       0.00000002 Ry

     iteration #  6     ecut=    15.00 Ry     beta= 0.70
     Davidson diagonalization with overlap
     ethr =  1.95E-10,  avg # of iterations =  2.0

     total cpu time spent up to now is        3.6 secs

     End of self-consistent calculation

          k = 0.0000 0.0000 0.0000 (   459 PWs)   bands (ev):

   -31.1644 -13.5621 -13.5621 -13.5621  -0.4371   6.5044   6.5044   6.5044
     7.6293

          k = 0.0000-0.1000 0.1000 (   463 PWs)   bands (ev):

   -31.1641 -13.6298 -13.5732 -13.5566  -0.3062   6.2531   6.3146   6.6116
     7.3726

          k = 0.0000-0.2000 0.2000 (   475 PWs)   bands (ev):

   -31.1635 -13.7010 -13.6678 -13.6306   0.0770   5.4483   5.9052   6.8771
     7.2887

          k = 0.0000-0.3000 0.3000 (   468 PWs)   bands (ev):

   -31.1620 -13.7126 -13.6480 -13.5799   0.6859   4.4669   5.5664   7.3413
     7.4248

          k = 0.0000-0.4000 0.4000 (   474 PWs)   bands (ev):

   -31.1612 -13.7440 -13.7094 -13.6275   1.4776   3.4456   5.3127   7.1403
     7.6554

          k = 0.0000 0.5000-0.5000 (   476 PWs)   bands (ev):

   -31.1608 -13.7505 -13.7502 -13.6186   2.2338   2.6250   5.2258   7.0203
     7.9593

          k =-0.1000-0.1000 0.2000 (   471 PWs)   bands (ev):

   -31.1637 -13.6911 -13.6318 -13.5979  -0.0491   5.7833   5.9363   6.7599
     7.1446

          k =-0.1000-0.2000 0.3000 (   468 PWs)   bands (ev):

   -31.1624 -13.6645 -13.6511 -13.6058   0.4501   4.9656   5.5176   7.0673
     7.1574

          k =-0.1000-0.3000 0.4000 (   471 PWs)   bands (ev):

   -31.1614 -13.7370 -13.6819 -13.6025   1.1519   3.9961   5.2086   6.9959
     7.5245

          k =-0.1000 0.6000-0.5000 (   470 PWs)   bands (ev):

   -31.1606 -13.7463 -13.6742 -13.6044   2.0033   3.0183   5.0496   6.7871
     7.8795

          k =-0.2000-0.2000 0.4000 (   465 PWs)   bands (ev):

   -31.1613 -13.6840 -13.6189 -13.6091   1.0441   4.4362   4.9115   7.0362
     7.2044

          k =-0.2000 0.7000-0.5000 (   473 PWs)   bands (ev):

   -31.1608 -13.7403 -13.6800 -13.6641   1.8191   3.6530   4.5262   6.6907
     7.4218

          k =-0.2000 0.6000-0.4000 (   474 PWs)   bands (ev):

   -31.1605 -13.7394 -13.7011 -13.6727   2.6398   2.8090   4.4126   6.5347
     7.6616

          k =-0.3000 0.7000-0.4000 (   471 PWs)   bands (ev):

   -31.1603 -13.7077 -13.7057 -13.6590   2.6429   3.3931   3.7227   6.5064
     7.5409

          k = 0.0000 0.0000 0.2000 (   470 PWs)   bands (ev):

   -31.1640 -13.6755 -13.6074 -13.6074  -0.1768   6.1828   6.1828   6.6556
     6.7269

          k = 0.0000-0.1000 0.3000 (   470 PWs)   bands (ev):

   -31.1630 -13.6947 -13.6222 -13.6193   0.2030   5.4946   5.8796   6.5085
     6.9373

          k = 0.0000-0.2000 0.4000 (   468 PWs)   bands (ev):

   -31.1617 -13.6902 -13.6496 -13.6165   0.8083   4.5244   5.5517   6.5128
     7.4316

          k = 0.0000-0.3000 0.5000 (   472 PWs)   bands (ev):

   -31.1608 -13.7466 -13.6653 -13.6440   1.5938   3.5235   5.3312   6.3933
     7.8405

          k = 0.0000 0.6000-0.4000 (   472 PWs)   bands (ev):

   -31.1604 -13.7504 -13.6657 -13.6475   2.3689   2.6790   5.2567   6.2953
     7.9692

          k =-0.1000-0.1000 0.4000 (   464 PWs)   bands (ev):

   -31.1617 -13.6664 -13.6162 -13.5999   0.6931   4.9362   5.4573   6.3961
     7.2362

          k =-0.1000-0.2000 0.5000 (   470 PWs)   bands (ev):

   -31.1608 -13.7318 -13.6642 -13.6273   1.3825   4.1087   5.0654   6.4318
     7.3555

          k =-0.1000 0.7000-0.4000 (   467 PWs)   bands (ev):

   -31.1600 -13.7311 -13.6579 -13.6087   2.2270   3.1776   4.8695   6.3177
     7.5920

          k =-0.2000 0.2000 0.2000 (   477 PWs)   bands (ev):

   -31.1631 -13.6983 -13.6983 -13.6629   0.3272   5.3013   5.3013   6.9536
     7.5260

          k =-0.2000 0.8000-0.4000 (   468 PWs)   bands (ev):

   -31.1600 -13.7145 -13.7011 -13.6083   2.1378   3.7206   4.2814   6.7485
     7.0520

          k =-0.2000 0.7000-0.3000 (   472 PWs)   bands (ev):

   -31.1598 -13.7598 -13.7117 -13.6272   2.9828   3.0051   3.9777   6.7741
     7.3526

          k =-0.3000 0.3000 0.2000 (   471 PWs)   bands (ev):

   -31.1618 -13.6842 -13.6718 -13.6470   0.9281   4.5031   4.9440   6.8481
     7.6823

          k = 0.6000-0.6000 0.2000 (   474 PWs)   bands (ev):

   -31.1610 -13.7400 -13.6774 -13.6690   1.7098   3.5882   4.7246   6.5055
     7.8840

          k = 0.6000-0.7000 0.3000 (   478 PWs)   bands (ev):

   -31.1613 -13.7521 -13.7188 -13.6848   1.6078   4.0698   4.3703   6.2518
     7.8188

          k = 0.5000-0.5000 0.2000 (   472 PWs)   bands (ev):

   -31.1606 -13.6943 -13.6913 -13.6778   2.5076   2.7559   4.6456   6.3320
     7.9882

          k = 0.5000-0.6000 0.3000 (   477 PWs)   bands (ev):

   -31.1608 -13.7309 -13.7216 -13.7038   2.4433   3.3325   4.1190   5.8318
     7.9640

          k = 0.4000-0.6000 0.4000 (   475 PWs)   bands (ev):

   -31.1606 -13.7497 -13.6929 -13.6929   3.2006   3.2006   3.4485   5.5822
     8.1126

          k = 0.0000 0.0000 0.4000 (   470 PWs)   bands (ev):

   -31.1621 -13.6848 -13.6436 -13.6436   0.5730   5.4631   5.7372   5.7372
     7.1137

          k = 0.0000-0.1000 0.5000 (   463 PWs)   bands (ev):

   -31.1606 -13.6664 -13.6260 -13.6068   1.1628   4.6454   5.5464   5.7657
     7.3065

          k = 0.0000-0.2000 0.6000 (   468 PWs)   bands (ev):

   -31.1598 -13.7269 -13.6434 -13.6416   1.9235   3.7338   5.3848   5.6038
     7.1906

          k = 0.0000 0.7000-0.3000 (   464 PWs)   bands (ev):

   -31.1593 -13.7300 -13.6400 -13.5913   2.7616   2.8535   5.3432   5.4746
     7.3410

          k =-0.1000-0.1000 0.6000 (   467 PWs)   bands (ev):

   -31.1597 -13.7141 -13.6766 -13.6122   1.8234   4.1601   4.9873   5.9420
     6.7928

          k =-0.1000 0.8000-0.3000 (   466 PWs)   bands (ev):

   -31.1591 -13.7150 -13.6855 -13.6110   2.6226   3.4690   4.5673   6.0171
     6.8751

          k =-0.2000 0.8000-0.2000 (   469 PWs)   bands (ev):

   -31.1590 -13.7281 -13.7281 -13.6234   3.2782   3.2782   3.9059   6.5529
     6.5529

          k = 0.6000-0.6000 0.4000 (   477 PWs)   bands (ev):

   -31.1609 -13.7779 -13.6914 -13.6914   2.3485   3.8598   3.8598   5.3933
     8.1794

          k = 0.5000-0.5000 0.4000 (   474 PWs)   bands (ev):

   -31.1606 -13.7180 -13.7175 -13.6844   3.1373   3.2066   3.7892   5.0267
     8.2172

          k = 0.0000 0.0000 0.6000 (   462 PWs)   bands (ev):

   -31.1594 -13.6689 -13.6244 -13.6244   1.7194   4.4851   5.4933   5.4933
     6.4165

          k = 0.0000-0.1000 0.7000 (   466 PWs)   bands (ev):

   -31.1588 -13.7145 -13.6910 -13.6184   2.4245   3.9392   5.2087   5.4191
     6.2822

          k = 0.0000 0.8000-0.2000 (   470 PWs)   bands (ev):

   -31.1586 -13.7563 -13.7197 -13.6322   3.1272   3.2896   4.9730   5.3863
     6.4985

          k =-0.1000 0.9000-0.2000 (   468 PWs)   bands (ev):

   -31.1584 -13.7497 -13.7229 -13.6182   3.0935   3.6486   4.6182   5.7722
     6.1054

          k = 0.0000 0.0000 0.8000 (   466 PWs)   bands (ev):

   -31.1580 -13.6975 -13.6975 -13.6624   3.0160   3.8666   5.4173   5.4173
     5.4776

          k = 0.0000 0.9000-0.1000 (   478 PWs)   bands (ev):

   -31.1582 -13.7697 -13.7547 -13.7537   3.4626   3.6141   5.0625   5.4082
     5.7437

          k = 0.0000 0.0000-1.0000 (   466 PWs)   bands (ev):

   -31.1574 -13.6963 -13.6963 -13.6963   3.6713   5.4262   5.4262   5.4262
     7.1758

     the Fermi energy is     1.8304 ev

!    total energy              =    -109.47432693 Ry
     Harris-Foulkes estimate   =    -109.47432693 Ry
     estimated scf accuracy    <          2.7E-11 Ry

     total all-electron energy =     -1200.799327 Ry

     The total energy is the sum of the following terms:

     one-electron contribution =     -34.79803860 Ry
     hartree contribution      =      18.39580150 Ry
     xc contribution           =     -10.92113259 Ry
     ewald contribution        =     -29.89633977 Ry
     one-center paw contrib.   =     -52.25397884 Ry
     smearing contrib. (-TS)   =      -0.00063864 Ry

     convergence has been achieved in   6 iterations

     Forces acting on atoms (cartesian axes, Ry/au):

     atom    1 type  1   force =     0.00000000    0.00000000    0.00000000

     Total force =     0.000000     Total SCF correction =     0.000000


     Computing stress (Cartesian axis) and pressure

          total   stress  (Ry/bohr**3)                   (kbar)     P= -338.21
  -0.00229910   0.00000000  -0.00000000       -338.21      0.00     -0.00
   0.00000000  -0.00229910   0.00000000          0.00   -338.21      0.00
  -0.00000000   0.00000000  -0.00229910         -0.00      0.00   -338.21


     Writing output data file K.save/

     init_run     :      0.20s CPU      0.22s WALL (       1 calls)
     electrons    :      2.52s CPU      2.67s WALL (       1 calls)
     forces       :      0.03s CPU      0.03s WALL (       1 calls)
     stress       :      0.08s CPU      0.09s WALL (       1 calls)

     Called by init_run:
     wfcinit      :      0.07s CPU      0.08s WALL (       1 calls)
     potinit      :      0.04s CPU      0.04s WALL (       1 calls)
     hinit0       :      0.08s CPU      0.08s WALL (       1 calls)

     Called by electrons:
     c_bands      :      1.96s CPU      2.08s WALL (       7 calls)
     sum_band     :      0.30s CPU      0.32s WALL (       7 calls)
     v_of_rho     :      0.00s CPU      0.00s WALL (       7 calls)
     newd         :      0.03s CPU      0.03s WALL (       7 calls)
     PAW_pot      :      0.27s CPU      0.27s WALL (       7 calls)
     mix_rho      :      0.00s CPU      0.00s WALL (       7 calls)

     Called by c_bands:
     init_us_2    :      0.05s CPU      0.06s WALL (     799 calls)
     cegterg      :      1.88s CPU      2.00s WALL (     329 calls)

     Called by sum_band:
     sum_band:bec :      0.00s CPU      0.00s WALL (     329 calls)
     addusdens    :      0.02s CPU      0.03s WALL (       7 calls)

     Called by *egterg:
     h_psi        :      1.36s CPU      1.45s WALL (    1463 calls)
     s_psi        :      0.04s CPU      0.05s WALL (    1463 calls)
     g_psi        :      0.01s CPU      0.01s WALL (    1087 calls)
     cdiaghg      :      0.30s CPU      0.32s WALL (    1369 calls)

     Called by h_psi:
     h_psi:pot    :      1.36s CPU      1.44s WALL (    1463 calls)
     h_psi:calbec :      0.07s CPU      0.08s WALL (    1463 calls)
     vloc_psi     :      1.23s CPU      1.31s WALL (    1463 calls)
     add_vuspsi   :      0.04s CPU      0.04s WALL (    1463 calls)

     General routines
     calbec       :      0.10s CPU      0.11s WALL (    2027 calls)
     fft          :      0.01s CPU      0.01s WALL (      38 calls)
     ffts         :      0.00s CPU      0.00s WALL (       7 calls)
     fftw         :      1.34s CPU      1.42s WALL (   19573 calls)

     Parallel routines
     fft_scatt_xy :      0.12s CPU      0.13s WALL (   19618 calls)
     fft_scatt_yz :      0.38s CPU      0.40s WALL (   19618 calls)

     PWSCF        :     3.59s CPU         3.84s WALL


   This run was terminated on:   0:12:24   8Apr2024            

=------------------------------------------------------------------------------=
   JOB DONE.
=------------------------------------------------------------------------------=
