
     Program PWSCF v.6.3MaX starts on  8Apr2024 at  0:15:16 

     This program is part of the open-source Quantum ESPRESSO suite
     for quantum simulation of materials; please cite
         "P. Giannozzi et al., J. Phys.:Condens. Matter 21 395502 (2009);
         "P. Giannozzi et al., J. Phys.:Condens. Matter 29 465901 (2017);
          URL http://www.quantum-espresso.org", 
     in publications or presentations arising from this work. More details at
     http://www.quantum-espresso.org/quote

     Parallel version (MPI), running on     5 processors

     MPI processes distributed on     1 nodes
     R & G space division:  proc/nbgrp/npool/nimage =       5
     Waiting for input...
     Reading input from standard input

     Current dimensions of program PWSCF are:
     Max number of different atomic species (ntypx) = 10
     Max number of k-points (npk) =  40000
     Max angular momentum in pseudopotentials (lmaxx) =  3
               file K.pbe-spn-kjpaw_psl.1.0.0.UPF: wavefunction(s)  3S renormalized

     Subspace diagonalization in iterative solution of the eigenvalue problem:
     a serial algorithm will be used


     Parallelization info
     --------------------
     sticks:   dense  smooth     PW     G-vecs:    dense   smooth      PW
     Min          87      87     27                 1155     1155     212
     Max          88      88     28                 1155     1155     213
     Sum         437     437    139                 5775     5775    1061



     bravais-lattice index     =            3
     lattice parameter (alat)  =       9.8600  a.u.
     unit-cell volume          =     479.2926 (a.u.)^3
     number of atoms/cell      =            1
     number of atomic types    =            1
     number of electrons       =         9.00
     number of Kohn-Sham states=            9
     kinetic-energy cutoff     =      20.0000  Ry
     charge density cutoff     =      80.0000  Ry
     convergence threshold     =      1.0E-08
     mixing beta               =       0.7000
     number of iterations used =            8  plain     mixing
     Exchange-correlation      = SLA PW PBX PBC ( 1  4  3  4 0 0)

     celldm(1)=   9.860000  celldm(2)=   0.000000  celldm(3)=   0.000000
     celldm(4)=   0.000000  celldm(5)=   0.000000  celldm(6)=   0.000000

     crystal axes: (cart. coord. in units of alat)
               a(1) = (   0.500000   0.500000   0.500000 )  
               a(2) = (  -0.500000   0.500000   0.500000 )  
               a(3) = (  -0.500000  -0.500000   0.500000 )  

     reciprocal axes: (cart. coord. in units 2 pi/alat)
               b(1) = (  1.000000  0.000000  1.000000 )  
               b(2) = ( -1.000000  1.000000  0.000000 )  
               b(3) = (  0.000000 -1.000000  1.000000 )  


     PseudoPot. # 1 for K  read from file:
     /home/lorenzo/pseudos/K/K.pbe-spn-kjpaw_psl.1.0.0.UPF
     MD5 check sum: 34cc42130a09071ebe376fd42eb21491
     Pseudo is Projector augmented-wave + core cor, Zval =  9.0
     Generated using "atomic" code by A. Dal Corso v.6.2.2
     Shape of augmentation charge: PSQ
     Using radial grid of 1165 points,  6 beta functions with: 
                l(1) =   0
                l(2) =   0
                l(3) =   1
                l(4) =   1
                l(5) =   2
                l(6) =   2
     Q(r) pseudized with 0 coefficients 


     atomic species   valence    mass     pseudopotential
        K              9.00    39.09830     K ( 1.00)

     48 Sym. Ops., with inversion, found



   Cartesian axes

     site n.     atom                  positions (alat units)
         1           K   tau(   1) = (   0.0000000   0.0000000   0.0000000  )

     number of k points=     8  gaussian smearing, width (Ry)=  0.0100
                       cart. coord. in units 2pi/alat
        k(    1) = (   0.0000000   0.0000000   0.0000000), wk =   0.0312500
        k(    2) = (   0.0000000  -0.2500000   0.2500000), wk =   0.3750000
        k(    3) = (   0.0000000   0.5000000  -0.5000000), wk =   0.1875000
        k(    4) = (  -0.2500000   0.7500000  -0.5000000), wk =   0.7500000
        k(    5) = (   0.0000000   0.0000000   0.5000000), wk =   0.1875000
        k(    6) = (   0.0000000   0.7500000  -0.2500000), wk =   0.3750000
        k(    7) = (   0.5000000  -0.5000000   0.5000000), wk =   0.0625000
        k(    8) = (   0.0000000   0.0000000  -1.0000000), wk =   0.0312500

     Dense  grid:     5775 G-vectors     FFT dimensions: (  25,  25,  25)

     Estimated max dynamical RAM per process >       5.58 MB

     Estimated total dynamical RAM >      27.91 MB

     Check: negative/imaginary core charge=   -0.000041    0.000000

     Initial potential from superposition of free atoms

     starting charge    8.98117, renormalised to    9.00000
     Starting wfcs are    8 randomized atomic wfcs +    1 random wfcs
     Checking if some PAW data can be deallocated... 

     total cpu time spent up to now is        1.4 secs

     Self-consistent Calculation

     iteration #  1     ecut=    20.00 Ry     beta= 0.70
     Davidson diagonalization with overlap
     ethr =  1.00E-02,  avg # of iterations =  8.2

     Threshold (ethr) on eigenvalues was too large:
     Diagonalizing with lowered threshold

     Davidson diagonalization with overlap
     ethr =  6.43E-05,  avg # of iterations =  4.0

     total cpu time spent up to now is        1.8 secs

     total energy              =    -112.91534690 Ry
     Harris-Foulkes estimate   =    -112.91903807 Ry
     estimated scf accuracy    <       0.00597884 Ry

     iteration #  2     ecut=    20.00 Ry     beta= 0.70
     Davidson diagonalization with overlap
     ethr =  6.64E-05,  avg # of iterations =  2.0

     total cpu time spent up to now is        2.0 secs

     total energy              =    -112.91704482 Ry
     Harris-Foulkes estimate   =    -112.91710032 Ry
     estimated scf accuracy    <       0.00056152 Ry

     iteration #  3     ecut=    20.00 Ry     beta= 0.70
     Davidson diagonalization with overlap
     ethr =  6.24E-06,  avg # of iterations =  3.1

     total cpu time spent up to now is        2.2 secs

     total energy              =    -112.91710924 Ry
     Harris-Foulkes estimate   =    -112.91709030 Ry
     estimated scf accuracy    <       0.00003605 Ry

     iteration #  4     ecut=    20.00 Ry     beta= 0.70
     Davidson diagonalization with overlap
     ethr =  4.01E-07,  avg # of iterations =  1.6

     total cpu time spent up to now is        2.4 secs

     total energy              =    -112.91711087 Ry
     Harris-Foulkes estimate   =    -112.91711084 Ry
     estimated scf accuracy    <       0.00000004 Ry

     iteration #  5     ecut=    20.00 Ry     beta= 0.70
     Davidson diagonalization with overlap
     ethr =  4.89E-10,  avg # of iterations =  3.4

     total cpu time spent up to now is        2.6 secs

     End of self-consistent calculation

          k = 0.0000 0.0000 0.0000 (   683 PWs)   bands (ev):

   -30.4056 -13.5402 -13.5402 -13.5402  -0.2508   6.5191   6.5191   6.5191
     7.4751

          k = 0.0000-0.2500 0.2500 (   710 PWs)   bands (ev):

   -30.4033 -13.6187 -13.5790 -13.5659   0.5284   5.0097   5.7597   7.1032
     7.3550

          k = 0.0000 0.5000-0.5000 (   726 PWs)   bands (ev):

   -30.4010 -13.6930 -13.6097 -13.5694   2.4171   2.6832   5.2669   7.0700
     8.0310

          k =-0.2500 0.7500-0.5000 (   728 PWs)   bands (ev):

   -30.4010 -13.6610 -13.6219 -13.5991   1.9351   3.9008   4.4377   6.8841
     7.2492

          k = 0.0000 0.0000 0.5000 (   731 PWs)   bands (ev):

   -30.4013 -13.6477 -13.6188 -13.6188   1.2555   4.9268   5.6099   5.6099
     7.2464

          k = 0.0000 0.7500-0.2500 (   728 PWs)   bands (ev):

   -30.3992 -13.6626 -13.6290 -13.6239   3.0390   3.1555   5.2815   5.4100
     6.9146

          k = 0.5000-0.5000 0.5000 (   736 PWs)   bands (ev):

   -30.4008 -13.6406 -13.6406 -13.6406   3.4874   3.4874   3.4874   5.0995
     8.0855

          k = 0.0000 0.0000-1.0000 (   736 PWs)   bands (ev):

   -30.3974 -13.6583 -13.6583 -13.6583   3.6879   3.6879   5.5381   5.5381
     5.5381

     the Fermi energy is     1.9451 ev

!    total energy              =    -112.91711091 Ry
     Harris-Foulkes estimate   =    -112.91711090 Ry
     estimated scf accuracy    <          3.1E-09 Ry

     total all-electron energy =     -1204.155821 Ry

     The total energy is the sum of the following terms:

     one-electron contribution =     -35.29383802 Ry
     hartree contribution      =      18.80048167 Ry
     xc contribution           =     -11.15393930 Ry
     ewald contribution        =     -29.89633972 Ry
     one-center paw contrib.   =     -55.37137137 Ry
     smearing contrib. (-TS)   =      -0.00210416 Ry

     convergence has been achieved in   5 iterations

     Forces acting on atoms (cartesian axes, Ry/au):

     atom    1 type  1   force =     0.00000000    0.00000000    0.00000000

     Total force =     0.000000     Total SCF correction =     0.000000


     Computing stress (Cartesian axis) and pressure

          total   stress  (Ry/bohr**3)                   (kbar)     P= -105.23
  -0.00071533  -0.00000000   0.00000000       -105.23     -0.00      0.00
  -0.00000000  -0.00071533   0.00000000         -0.00   -105.23      0.00
   0.00000000   0.00000000  -0.00071533          0.00      0.00   -105.23


     Writing output data file K.save/

     init_run     :      0.25s CPU      0.29s WALL (       1 calls)
     electrons    :      1.10s CPU      1.22s WALL (       1 calls)
     forces       :      0.03s CPU      0.03s WALL (       1 calls)
     stress       :      0.08s CPU      0.08s WALL (       1 calls)

     Called by init_run:
     wfcinit      :      0.03s CPU      0.03s WALL (       1 calls)
     potinit      :      0.11s CPU      0.13s WALL (       1 calls)
     hinit0       :      0.10s CPU      0.10s WALL (       1 calls)

     Called by electrons:
     c_bands      :      0.42s CPU      0.44s WALL (       6 calls)
     sum_band     :      0.10s CPU      0.11s WALL (       6 calls)
     v_of_rho     :      0.02s CPU      0.02s WALL (       6 calls)
     newd         :      0.03s CPU      0.04s WALL (       6 calls)
     PAW_pot      :      0.62s CPU      0.72s WALL (       6 calls)
     mix_rho      :      0.00s CPU      0.00s WALL (       6 calls)

     Called by c_bands:
     init_us_2    :      0.02s CPU      0.02s WALL (     120 calls)
     cegterg      :      0.40s CPU      0.41s WALL (      48 calls)

     Called by sum_band:
     sum_band:bec :      0.00s CPU      0.00s WALL (      48 calls)
     addusdens    :      0.04s CPU      0.04s WALL (       6 calls)

     Called by *egterg:
     h_psi        :      0.29s CPU      0.30s WALL (     235 calls)
     s_psi        :      0.01s CPU      0.01s WALL (     235 calls)
     g_psi        :      0.00s CPU      0.00s WALL (     179 calls)
     cdiaghg      :      0.05s CPU      0.06s WALL (     219 calls)

     Called by h_psi:
     h_psi:pot    :      0.29s CPU      0.30s WALL (     235 calls)
     h_psi:calbec :      0.02s CPU      0.02s WALL (     235 calls)
     vloc_psi     :      0.26s CPU      0.27s WALL (     235 calls)
     add_vuspsi   :      0.01s CPU      0.01s WALL (     235 calls)

     General routines
     calbec       :      0.04s CPU      0.04s WALL (     323 calls)
     fft          :      0.02s CPU      0.02s WALL (      93 calls)
     ffts         :      0.00s CPU      0.00s WALL (       6 calls)
     fftw         :      0.28s CPU      0.30s WALL (    2904 calls)

     Parallel routines
     fft_scatt_xy :      0.02s CPU      0.02s WALL (    3003 calls)
     fft_scatt_yz :      0.08s CPU      0.08s WALL (    3003 calls)

     PWSCF        :     2.57s CPU         2.80s WALL


   This run was terminated on:   0:15:18   8Apr2024            

=------------------------------------------------------------------------------=
   JOB DONE.
=------------------------------------------------------------------------------=
