
     Program PWSCF v.6.3MaX starts on  8Apr2024 at  0: 4:10 

     This program is part of the open-source Quantum ESPRESSO suite
     for quantum simulation of materials; please cite
         "P. Giannozzi et al., J. Phys.:Condens. Matter 21 395502 (2009);
         "P. Giannozzi et al., J. Phys.:Condens. Matter 29 465901 (2017);
          URL http://www.quantum-espresso.org", 
     in publications or presentations arising from this work. More details at
     http://www.quantum-espresso.org/quote

     Parallel version (MPI), running on     5 processors

     MPI processes distributed on     1 nodes
     R & G space division:  proc/nbgrp/npool/nimage =       5
     Waiting for input...
     Reading input from standard input

     Current dimensions of program PWSCF are:
     Max number of different atomic species (ntypx) = 10
     Max number of k-points (npk) =  40000
     Max angular momentum in pseudopotentials (lmaxx) =  3
               file K.pz-spn-rrkjus_psl.1.0.0.UPF: wavefunction(s)  3S renormalized

     Subspace diagonalization in iterative solution of the eigenvalue problem:
     a serial algorithm will be used


     Parallelization info
     --------------------
     sticks:   dense  smooth     PW     G-vecs:    dense   smooth      PW
     Min         438     438    124                12915    12915    1972
     Max         439     439    126                12916    12916    1973
     Sum        2191    2191    623                64579    64579    9861



     bravais-lattice index     =            3
     lattice parameter (alat)  =       9.8600  a.u.
     unit-cell volume          =     479.2926 (a.u.)^3
     number of atoms/cell      =            1
     number of atomic types    =            1
     number of electrons       =         9.00
     number of Kohn-Sham states=            9
     kinetic-energy cutoff     =     100.0000  Ry
     charge density cutoff     =     400.0000  Ry
     convergence threshold     =      1.0E-08
     mixing beta               =       0.7000
     number of iterations used =            8  plain     mixing
     Exchange-correlation      = LDA ( 1  1  0  0 0 0)

     celldm(1)=   9.860000  celldm(2)=   0.000000  celldm(3)=   0.000000
     celldm(4)=   0.000000  celldm(5)=   0.000000  celldm(6)=   0.000000

     crystal axes: (cart. coord. in units of alat)
               a(1) = (   0.500000   0.500000   0.500000 )  
               a(2) = (  -0.500000   0.500000   0.500000 )  
               a(3) = (  -0.500000  -0.500000   0.500000 )  

     reciprocal axes: (cart. coord. in units 2 pi/alat)
               b(1) = (  1.000000  0.000000  1.000000 )  
               b(2) = ( -1.000000  1.000000  0.000000 )  
               b(3) = (  0.000000 -1.000000  1.000000 )  


     PseudoPot. # 1 for K  read from file:
     /home/lorenzo/pseudos/K/K.pz-spn-rrkjus_psl.1.0.0.UPF
     MD5 check sum: af434a66a3b91719abff201b8f79bb09
     Pseudo is Ultrasoft + core correction, Zval =  9.0
     Generated using "atomic" code by A. Dal Corso v.6.2.2
     Using radial grid of 1165 points,  6 beta functions with: 
                l(1) =   0
                l(2) =   0
                l(3) =   1
                l(4) =   1
                l(5) =   2
                l(6) =   2
     Q(r) pseudized with 0 coefficients 


     atomic species   valence    mass     pseudopotential
        K              9.00    39.09830     K ( 1.00)

     48 Sym. Ops., with inversion, found



   Cartesian axes

     site n.     atom                  positions (alat units)
         1           K   tau(   1) = (   0.0000000   0.0000000   0.0000000  )

     number of k points=     3  gaussian smearing, width (Ry)=  0.0100
                       cart. coord. in units 2pi/alat
        k(    1) = (   0.0000000   0.0000000   0.0000000), wk =   0.2500000
        k(    2) = (   0.0000000   0.5000000  -0.5000000), wk =   1.5000000
        k(    3) = (   0.0000000   0.0000000  -1.0000000), wk =   0.2500000

     Dense  grid:    64579 G-vectors     FFT dimensions: (  60,  60,  60)

     Estimated max dynamical RAM per process >      51.80 MB

     Estimated total dynamical RAM >     259.00 MB

     Check: negative/imaginary core charge=   -0.000001    0.000000

     Initial potential from superposition of free atoms

     starting charge    8.98437, renormalised to    9.00000
     Starting wfcs are    8 randomized atomic wfcs +    1 random wfcs

     total cpu time spent up to now is        1.4 secs

     Self-consistent Calculation

     iteration #  1     ecut=   100.00 Ry     beta= 0.70
     Davidson diagonalization with overlap
     ethr =  1.00E-02,  avg # of iterations =  9.3

     Threshold (ethr) on eigenvalues was too large:
     Diagonalizing with lowered threshold

     Davidson diagonalization with overlap
     ethr =  5.27E-06,  avg # of iterations = 10.7

     total cpu time spent up to now is        2.3 secs

     total energy              =     -58.70430603 Ry
     Harris-Foulkes estimate   =     -58.70467397 Ry
     estimated scf accuracy    <       0.00049954 Ry

     iteration #  2     ecut=   100.00 Ry     beta= 0.70
     Davidson diagonalization with overlap
     ethr =  5.55E-06,  avg # of iterations =  2.0

     total cpu time spent up to now is        2.7 secs

     total energy              =     -58.70444108 Ry
     Harris-Foulkes estimate   =     -58.70445745 Ry
     estimated scf accuracy    <       0.00003015 Ry

     iteration #  3     ecut=   100.00 Ry     beta= 0.70
     Davidson diagonalization with overlap
     ethr =  3.35E-07,  avg # of iterations =  2.0

     total cpu time spent up to now is        3.1 secs

     total energy              =     -58.70444706 Ry
     Harris-Foulkes estimate   =     -58.70444665 Ry
     estimated scf accuracy    <       0.00000050 Ry

     iteration #  4     ecut=   100.00 Ry     beta= 0.70
     Davidson diagonalization with overlap
     ethr =  5.58E-09,  avg # of iterations =  1.7

     total cpu time spent up to now is        3.4 secs

     End of self-consistent calculation

          k = 0.0000 0.0000 0.0000 (  8151 PWs)   bands (ev):

   -29.9789 -13.6215 -13.6215 -13.6215  -0.4437   5.9748   5.9748   5.9748
     6.9463

          k = 0.0000 0.5000-0.5000 (  8050 PWs)   bands (ev):

   -29.9737 -13.7025 -13.6487 -13.6214   2.1761   2.5288   4.8754   6.5873
     7.4289

          k = 0.0000 0.0000-1.0000 (  8128 PWs)   bands (ev):

   -29.9695 -13.6799 -13.6799 -13.6799   3.4550   5.3064   5.3065   5.3065
     7.2896

     the Fermi energy is     2.1761 ev

!    total energy              =     -58.70444713 Ry
     Harris-Foulkes estimate   =     -58.70444713 Ry
     estimated scf accuracy    <          3.9E-09 Ry

     The total energy is the sum of the following terms:

     one-electron contribution =     -36.67930471 Ry
     hartree contribution      =      18.89908870 Ry
     xc contribution           =     -11.02365490 Ry
     ewald contribution        =     -29.89633970 Ry
     smearing contrib. (-TS)   =      -0.00423652 Ry

     convergence has been achieved in   4 iterations

     Forces acting on atoms (cartesian axes, Ry/au):

     atom    1 type  1   force =     0.00000000    0.00000000    0.00000000

     Total force =     0.000000     Total SCF correction =     0.000000


     Computing stress (Cartesian axis) and pressure

          total   stress  (Ry/bohr**3)                   (kbar)     P=   -2.40
  -0.00001634   0.00000000  -0.00000000         -2.40      0.00     -0.00
   0.00000000  -0.00001634   0.00000000          0.00     -2.40      0.00
  -0.00000000   0.00000000  -0.00001634         -0.00      0.00     -2.40


     Writing output data file K.save/

     init_run     :      0.63s CPU      0.66s WALL (       1 calls)
     electrons    :      1.89s CPU      2.04s WALL (       1 calls)
     forces       :      0.13s CPU      0.14s WALL (       1 calls)
     stress       :      0.47s CPU      0.51s WALL (       1 calls)

     Called by init_run:
     wfcinit      :      0.06s CPU      0.07s WALL (       1 calls)
     potinit      :      0.02s CPU      0.02s WALL (       1 calls)
     hinit0       :      0.28s CPU      0.28s WALL (       1 calls)

     Called by electrons:
     c_bands      :      1.13s CPU      1.16s WALL (       5 calls)
     sum_band     :      0.47s CPU      0.53s WALL (       5 calls)
     v_of_rho     :      0.03s CPU      0.03s WALL (       5 calls)
     newd         :      0.31s CPU      0.36s WALL (       5 calls)
     mix_rho      :      0.01s CPU      0.02s WALL (       5 calls)

     Called by c_bands:
     init_us_2    :      0.04s CPU      0.04s WALL (      39 calls)
     cegterg      :      1.08s CPU      1.12s WALL (      15 calls)

     Called by sum_band:
     sum_band:bec :      0.00s CPU      0.00s WALL (      15 calls)
     addusdens    :      0.27s CPU      0.32s WALL (       5 calls)

     Called by *egterg:
     h_psi        :      0.92s CPU      0.95s WALL (      95 calls)
     s_psi        :      0.03s CPU      0.03s WALL (      95 calls)
     g_psi        :      0.00s CPU      0.00s WALL (      77 calls)
     cdiaghg      :      0.02s CPU      0.02s WALL (      89 calls)

     Called by h_psi:
     h_psi:pot    :      0.91s CPU      0.94s WALL (      95 calls)
     h_psi:calbec :      0.05s CPU      0.05s WALL (      95 calls)
     vloc_psi     :      0.83s CPU      0.86s WALL (      95 calls)
     add_vuspsi   :      0.03s CPU      0.03s WALL (      95 calls)

     General routines
     calbec       :      0.07s CPU      0.07s WALL (     125 calls)
     fft          :      0.05s CPU      0.05s WALL (      30 calls)
     ffts         :      0.00s CPU      0.01s WALL (       5 calls)
     fftw         :      0.86s CPU      0.89s WALL (    1007 calls)

     Parallel routines
     fft_scatt_xy :      0.08s CPU      0.08s WALL (    1042 calls)
     fft_scatt_yz :      0.16s CPU      0.18s WALL (    1042 calls)

     PWSCF        :     3.81s CPU         4.10s WALL


   This run was terminated on:   0: 4:14   8Apr2024            

=------------------------------------------------------------------------------=
   JOB DONE.
=------------------------------------------------------------------------------=
