
     Program PWSCF v.6.3MaX starts on  8Apr2024 at  0:18:37 

     This program is part of the open-source Quantum ESPRESSO suite
     for quantum simulation of materials; please cite
         "P. Giannozzi et al., J. Phys.:Condens. Matter 21 395502 (2009);
         "P. Giannozzi et al., J. Phys.:Condens. Matter 29 465901 (2017);
          URL http://www.quantum-espresso.org", 
     in publications or presentations arising from this work. More details at
     http://www.quantum-espresso.org/quote

     Parallel version (MPI), running on     5 processors

     MPI processes distributed on     1 nodes
     R & G space division:  proc/nbgrp/npool/nimage =       5
     Waiting for input...
     Reading input from standard input

     Current dimensions of program PWSCF are:
     Max number of different atomic species (ntypx) = 10
     Max number of k-points (npk) =  40000
     Max angular momentum in pseudopotentials (lmaxx) =  3
               file K.pbe-spn-kjpaw_psl.1.0.0.UPF: wavefunction(s)  3S renormalized

     Subspace diagonalization in iterative solution of the eigenvalue problem:
     a serial algorithm will be used


     Parallelization info
     --------------------
     sticks:   dense  smooth     PW     G-vecs:    dense   smooth      PW
     Min         110     110     34                 1630     1630     286
     Max         111     111     35                 1631     1631     287
     Sum         553     553    173                 8151     8151    1433



     bravais-lattice index     =            3
     lattice parameter (alat)  =       9.8600  a.u.
     unit-cell volume          =     479.2926 (a.u.)^3
     number of atoms/cell      =            1
     number of atomic types    =            1
     number of electrons       =         9.00
     number of Kohn-Sham states=            9
     kinetic-energy cutoff     =      25.0000  Ry
     charge density cutoff     =     100.0000  Ry
     convergence threshold     =      1.0E-08
     mixing beta               =       0.7000
     number of iterations used =            8  plain     mixing
     Exchange-correlation      = SLA PW PBX PBC ( 1  4  3  4 0 0)

     celldm(1)=   9.860000  celldm(2)=   0.000000  celldm(3)=   0.000000
     celldm(4)=   0.000000  celldm(5)=   0.000000  celldm(6)=   0.000000

     crystal axes: (cart. coord. in units of alat)
               a(1) = (   0.500000   0.500000   0.500000 )  
               a(2) = (  -0.500000   0.500000   0.500000 )  
               a(3) = (  -0.500000  -0.500000   0.500000 )  

     reciprocal axes: (cart. coord. in units 2 pi/alat)
               b(1) = (  1.000000  0.000000  1.000000 )  
               b(2) = ( -1.000000  1.000000  0.000000 )  
               b(3) = (  0.000000 -1.000000  1.000000 )  


     PseudoPot. # 1 for K  read from file:
     /home/lorenzo/pseudos/K/K.pbe-spn-kjpaw_psl.1.0.0.UPF
     MD5 check sum: 34cc42130a09071ebe376fd42eb21491
     Pseudo is Projector augmented-wave + core cor, Zval =  9.0
     Generated using "atomic" code by A. Dal Corso v.6.2.2
     Shape of augmentation charge: PSQ
     Using radial grid of 1165 points,  6 beta functions with: 
                l(1) =   0
                l(2) =   0
                l(3) =   1
                l(4) =   1
                l(5) =   2
                l(6) =   2
     Q(r) pseudized with 0 coefficients 


     atomic species   valence    mass     pseudopotential
        K              9.00    39.09830     K ( 1.00)

     48 Sym. Ops., with inversion, found



   Cartesian axes

     site n.     atom                  positions (alat units)
         1           K   tau(   1) = (   0.0000000   0.0000000   0.0000000  )

     number of k points=    35  gaussian smearing, width (Ry)=  0.0100
                       cart. coord. in units 2pi/alat
        k(    1) = (   0.0000000   0.0000000   0.0000000), wk =   0.0027435
        k(    2) = (   0.0000000  -0.1111111   0.1111111), wk =   0.0329218
        k(    3) = (   0.0000000  -0.2222222   0.2222222), wk =   0.0329218
        k(    4) = (   0.0000000  -0.3333333   0.3333333), wk =   0.0329218
        k(    5) = (   0.0000000  -0.4444444   0.4444444), wk =   0.0329218
        k(    6) = (  -0.1111111  -0.1111111   0.2222222), wk =   0.0658436
        k(    7) = (  -0.1111111  -0.2222222   0.3333333), wk =   0.1316872
        k(    8) = (  -0.1111111  -0.3333333   0.4444444), wk =   0.1316872
        k(    9) = (  -0.1111111   0.5555556  -0.4444444), wk =   0.0658436
        k(   10) = (  -0.2222222  -0.2222222   0.4444444), wk =   0.0658436
        k(   11) = (  -0.2222222   0.6666667  -0.4444444), wk =   0.1316872
        k(   12) = (  -0.3333333   0.6666667  -0.3333333), wk =   0.0219479
        k(   13) = (   0.0000000   0.0000000   0.2222222), wk =   0.0164609
        k(   14) = (   0.0000000  -0.1111111   0.3333333), wk =   0.0658436
        k(   15) = (   0.0000000  -0.2222222   0.4444444), wk =   0.0658436
        k(   16) = (   0.0000000  -0.3333333   0.5555556), wk =   0.0658436
        k(   17) = (  -0.1111111  -0.1111111   0.4444444), wk =   0.0658436
        k(   18) = (  -0.1111111  -0.2222222   0.5555556), wk =   0.1316872
        k(   19) = (  -0.1111111   0.6666667  -0.3333333), wk =   0.0658436
        k(   20) = (  -0.2222222   0.2222222   0.2222222), wk =   0.0219479
        k(   21) = (  -0.2222222   0.7777778  -0.3333333), wk =   0.0658436
        k(   22) = (  -0.3333333   0.3333333   0.2222222), wk =   0.0658436
        k(   23) = (   0.5555556  -0.5555556   0.2222222), wk =   0.0658436
        k(   24) = (   0.5555556  -0.6666667   0.3333333), wk =   0.0658436
        k(   25) = (   0.4444444  -0.5555556   0.3333333), wk =   0.0658436
        k(   26) = (   0.0000000   0.0000000   0.4444444), wk =   0.0164609
        k(   27) = (   0.0000000  -0.1111111   0.5555556), wk =   0.0658436
        k(   28) = (   0.0000000  -0.2222222   0.6666667), wk =   0.0658436
        k(   29) = (  -0.1111111  -0.1111111   0.6666667), wk =   0.0658436
        k(   30) = (  -0.1111111   0.7777778  -0.2222222), wk =   0.0658436
        k(   31) = (   0.5555556  -0.5555556   0.4444444), wk =   0.0219479
        k(   32) = (   0.0000000   0.0000000   0.6666667), wk =   0.0164609
        k(   33) = (   0.0000000  -0.1111111   0.7777778), wk =   0.0658436
        k(   34) = (  -0.1111111   0.8888889  -0.1111111), wk =   0.0219479
        k(   35) = (   0.0000000   0.0000000   0.8888889), wk =   0.0164609

     Dense  grid:     8151 G-vectors     FFT dimensions: (  27,  27,  27)

     Estimated max dynamical RAM per process >       8.30 MB

     Estimated total dynamical RAM >      41.48 MB

     Check: negative/imaginary core charge=   -0.000055    0.000000

     Initial potential from superposition of free atoms

     starting charge    8.98117, renormalised to    9.00000
     Starting wfcs are    8 randomized atomic wfcs +    1 random wfcs
     Checking if some PAW data can be deallocated... 

     total cpu time spent up to now is        1.1 secs

     Self-consistent Calculation

     iteration #  1     ecut=    25.00 Ry     beta= 0.70
     Davidson diagonalization with overlap
     ethr =  1.00E-02,  avg # of iterations =  7.1

     Threshold (ethr) on eigenvalues was too large:
     Diagonalizing with lowered threshold

     Davidson diagonalization with overlap
     ethr =  1.86E-05,  avg # of iterations =  6.8

     total cpu time spent up to now is        2.2 secs

     total energy              =    -112.99435908 Ry
     Harris-Foulkes estimate   =    -112.99506752 Ry
     estimated scf accuracy    <       0.00169903 Ry

     iteration #  2     ecut=    25.00 Ry     beta= 0.70
     Davidson diagonalization with overlap
     ethr =  1.89E-05,  avg # of iterations =  2.2

     total cpu time spent up to now is        2.7 secs

     total energy              =    -112.99479165 Ry
     Harris-Foulkes estimate   =    -112.99479781 Ry
     estimated scf accuracy    <       0.00016851 Ry

     iteration #  3     ecut=    25.00 Ry     beta= 0.70
     Davidson diagonalization with overlap
     ethr =  1.87E-06,  avg # of iterations =  2.2

     total cpu time spent up to now is        3.1 secs

     total energy              =    -112.99481324 Ry
     Harris-Foulkes estimate   =    -112.99480647 Ry
     estimated scf accuracy    <       0.00001181 Ry

     iteration #  4     ecut=    25.00 Ry     beta= 0.70
     Davidson diagonalization with overlap
     ethr =  1.31E-07,  avg # of iterations =  1.7

     total cpu time spent up to now is        3.5 secs

     total energy              =    -112.99481401 Ry
     Harris-Foulkes estimate   =    -112.99481401 Ry
     estimated scf accuracy    <       0.00000003 Ry

     iteration #  5     ecut=    25.00 Ry     beta= 0.70
     Davidson diagonalization with overlap
     ethr =  3.06E-10,  avg # of iterations =  2.6

     total cpu time spent up to now is        4.0 secs

     End of self-consistent calculation

          k = 0.0000 0.0000 0.0000 (   959 PWs)   bands (ev):

   -30.1999 -13.5989 -13.5989 -13.5989  -0.2539   6.3361   6.3361   6.3361
     7.2665

          k = 0.0000-0.1111 0.1111 (   999 PWs)   bands (ev):

   -30.1994 -13.6191 -13.6110 -13.6068  -0.0963   6.0619   6.1259   6.4481
     7.0370

          k = 0.0000-0.2222 0.2222 (  1003 PWs)   bands (ev):

   -30.1979 -13.6426 -13.6187 -13.6073   0.3639   5.1898   5.7289   6.8192
     7.0480

          k = 0.0000-0.3333 0.3333 (  1027 PWs)   bands (ev):

   -30.1963 -13.6721 -13.6313 -13.6130   1.0868   4.1416   5.3770   7.0902
     7.3010

          k = 0.0000-0.4444 0.4444 (  1021 PWs)   bands (ev):

   -30.1952 -13.6843 -13.6357 -13.6135   2.0031   3.0801   5.1834   6.9533
     7.6203

          k =-0.1111-0.1111 0.2222 (  1000 PWs)   bands (ev):

   -30.1984 -13.6335 -13.6128 -13.6115   0.2129   5.5626   5.7369   6.6767
     6.8648

          k =-0.1111-0.2222 0.3333 (  1014 PWs)   bands (ev):

   -30.1968 -13.6591 -13.6249 -13.6133   0.8056   4.6777   5.3119   6.8881
     7.0674

          k =-0.1111-0.3333 0.4444 (  1012 PWs)   bands (ev):

   -30.1955 -13.6754 -13.6344 -13.6128   1.6310   3.6678   5.0375   6.8183
     7.4790

          k =-0.1111 0.5556-0.4444 (  1016 PWs)   bands (ev):

   -30.1950 -13.6824 -13.6392 -13.6148   2.5210   2.7206   4.9413   6.6921
     7.7430

          k =-0.2222-0.2222 0.4444 (  1011 PWs)   bands (ev):

   -30.1956 -13.6695 -13.6325 -13.6178   1.5035   4.1486   4.6817   6.9687
     7.0028

          k =-0.2222 0.6667-0.4444 (  1016 PWs)   bands (ev):

   -30.1948 -13.6733 -13.6456 -13.6205   2.3929   3.3540   4.3197   6.6510
     7.3120

          k =-0.3333 0.6667-0.3333 (  1015 PWs)   bands (ev):

   -30.1945 -13.6611 -13.6611 -13.6218   3.1766   3.1766   3.5885   6.6087
     7.4148

          k = 0.0000 0.0000 0.2222 (  1000 PWs)   bands (ev):

   -30.1988 -13.6218 -13.6136 -13.6136   0.0595   6.0225   6.0225   6.3939
     6.5161

          k = 0.0000-0.1111 0.3333 (  1005 PWs)   bands (ev):

   -30.1974 -13.6422 -13.6229 -13.6145   0.5137   5.2373   5.7098   6.2623
     6.8418

          k = 0.0000-0.2222 0.4444 (  1017 PWs)   bands (ev):

   -30.1958 -13.6684 -13.6329 -13.6171   1.2278   4.2123   5.4011   6.3047
     7.4123

          k = 0.0000-0.3333 0.5556 (  1016 PWs)   bands (ev):

   -30.1948 -13.6809 -13.6379 -13.6188   2.1360   3.1738   5.2278   6.2083
     7.5571

          k =-0.1111-0.1111 0.4444 (  1022 PWs)   bands (ev):

   -30.1960 -13.6616 -13.6335 -13.6234   1.0904   4.6441   5.2709   6.2109
     7.1475

          k =-0.1111-0.2222 0.5556 (  1011 PWs)   bands (ev):

   -30.1947 -13.6718 -13.6412 -13.6225   1.8938   3.8109   4.8774   6.2805
     7.1659

          k =-0.1111 0.6667-0.3333 (  1009 PWs)   bands (ev):

   -30.1942 -13.6764 -13.6455 -13.6219   2.8254   2.8602   4.7389   6.2156
     7.3408

          k =-0.2222 0.2222 0.2222 (  1007 PWs)   bands (ev):

   -30.1972 -13.6549 -13.6149 -13.6149   0.6613   5.0711   5.0711   6.8924
     7.3180

          k =-0.2222 0.7778-0.3333 (  1005 PWs)   bands (ev):

   -30.1939 -13.6676 -13.6550 -13.6226   2.7318   3.4758   4.0543   6.6891
     6.9430

          k =-0.3333 0.3333 0.2222 (  1011 PWs)   bands (ev):

   -30.1959 -13.6686 -13.6271 -13.6178   1.3692   4.2195   4.7285   6.8062
     7.4551

          k = 0.5556-0.5556 0.2222 (  1017 PWs)   bands (ev):

   -30.1951 -13.6755 -13.6412 -13.6183   2.2698   3.2661   4.5562   6.4529
     7.6644

          k = 0.5556-0.6667 0.3333 (  1018 PWs)   bands (ev):

   -30.1952 -13.6725 -13.6377 -13.6246   2.1550   3.8174   4.1463   6.1666
     7.5893

          k = 0.4444-0.5556 0.3333 (  1013 PWs)   bands (ev):

   -30.1948 -13.6644 -13.6472 -13.6256   3.0270   3.0911   3.9526   5.8684
     7.6952

          k = 0.0000 0.0000 0.4444 (  1020 PWs)   bands (ev):

   -30.1961 -13.6500 -13.6320 -13.6320   0.9498   5.1265   5.6038   5.6038
     7.0302

          k = 0.0000-0.1111 0.5556 (  1001 PWs)   bands (ev):

   -30.1946 -13.6598 -13.6385 -13.6304   1.6335   4.3419   5.4437   5.5948
     6.9273

          k = 0.0000-0.2222 0.6667 (  1005 PWs)   bands (ev):

   -30.1937 -13.6741 -13.6458 -13.6287   2.4968   3.4398   5.3313   5.4092
     6.9561

          k =-0.1111-0.1111 0.6667 (  1010 PWs)   bands (ev):

   -30.1935 -13.6674 -13.6525 -13.6356   2.3767   3.8927   4.8222   5.8880
     6.5416

          k =-0.1111 0.7778-0.2222 (  1015 PWs)   bands (ev):

   -30.1930 -13.6735 -13.6576 -13.6351   3.1294   3.2997   4.4856   5.9996
     6.6184

          k = 0.5556-0.5556 0.4444 (  1004 PWs)   bands (ev):

   -30.1949 -13.6569 -13.6372 -13.6372   2.9506   3.6561   3.6561   5.3363
     7.8491

          k = 0.0000 0.0000 0.6667 (  1012 PWs)   bands (ev):

   -30.1933 -13.6570 -13.6512 -13.6512   2.2529   4.1797   5.4523   5.4523
     6.0817

          k = 0.0000-0.1111 0.7778 (  1014 PWs)   bands (ev):

   -30.1924 -13.6691 -13.6567 -13.6497   2.9840   3.7089   5.1233   5.4399
     6.1418

          k =-0.1111 0.8889-0.1111 (  1021 PWs)   bands (ev):

   -30.1919 -13.6684 -13.6684 -13.6504   3.4803   3.4803   4.8067   5.8673
     5.8673

          k = 0.0000 0.0000 0.8889 (  1016 PWs)   bands (ev):

   -30.1915 -13.6637 -13.6637 -13.6635   3.4429   3.6897   5.4936   5.5039
     5.5039

     the Fermi energy is     1.9688 ev

!    total energy              =    -112.99481402 Ry
     Harris-Foulkes estimate   =    -112.99481402 Ry
     estimated scf accuracy    <          4.7E-10 Ry

     total all-electron energy =     -1204.233524 Ry

     The total energy is the sum of the following terms:

     one-electron contribution =     -35.39415965 Ry
     hartree contribution      =      18.87019187 Ry
     xc contribution           =     -11.16743117 Ry
     ewald contribution        =     -29.89633975 Ry
     one-center paw contrib.   =     -55.40664114 Ry
     smearing contrib. (-TS)   =      -0.00043417 Ry

     convergence has been achieved in   5 iterations

     Forces acting on atoms (cartesian axes, Ry/au):

     atom    1 type  1   force =     0.00000000    0.00000000    0.00000000

     Total force =     0.000000     Total SCF correction =     0.000000


     Computing stress (Cartesian axis) and pressure

          total   stress  (Ry/bohr**3)                   (kbar)     P=  -30.52
  -0.00020748  -0.00000000   0.00000000        -30.52     -0.00      0.00
   0.00000000  -0.00020748  -0.00000000          0.00    -30.52     -0.00
   0.00000000  -0.00000000  -0.00020748          0.00     -0.00    -30.52


     Writing output data file K.save/

     init_run     :      0.32s CPU      0.35s WALL (       1 calls)
     electrons    :      2.71s CPU      2.90s WALL (       1 calls)
     forces       :      0.05s CPU      0.05s WALL (       1 calls)
     stress       :      0.15s CPU      0.15s WALL (       1 calls)

     Called by init_run:
     wfcinit      :      0.10s CPU      0.10s WALL (       1 calls)
     potinit      :      0.09s CPU      0.11s WALL (       1 calls)
     hinit0       :      0.11s CPU      0.11s WALL (       1 calls)

     Called by electrons:
     c_bands      :      1.85s CPU      1.95s WALL (       6 calls)
     sum_band     :      0.33s CPU      0.35s WALL (       6 calls)
     v_of_rho     :      0.03s CPU      0.03s WALL (       6 calls)
     newd         :      0.05s CPU      0.06s WALL (       6 calls)
     PAW_pot      :      0.54s CPU      0.61s WALL (       6 calls)
     mix_rho      :      0.00s CPU      0.00s WALL (       6 calls)

     Called by c_bands:
     init_us_2    :      0.07s CPU      0.07s WALL (     525 calls)
     cegterg      :      1.77s CPU      1.87s WALL (     210 calls)

     Called by sum_band:
     sum_band:bec :      0.00s CPU      0.00s WALL (     210 calls)
     addusdens    :      0.05s CPU      0.05s WALL (       6 calls)

     Called by *egterg:
     h_psi        :      1.34s CPU      1.42s WALL (    1041 calls)
     s_psi        :      0.04s CPU      0.05s WALL (    1041 calls)
     g_psi        :      0.00s CPU      0.01s WALL (     796 calls)
     cdiaghg      :      0.22s CPU      0.23s WALL (     971 calls)

     Called by h_psi:
     h_psi:pot    :      1.33s CPU      1.41s WALL (    1041 calls)
     h_psi:calbec :      0.07s CPU      0.07s WALL (    1041 calls)
     vloc_psi     :      1.21s CPU      1.28s WALL (    1041 calls)
     add_vuspsi   :      0.05s CPU      0.05s WALL (    1041 calls)

     General routines
     calbec       :      0.11s CPU      0.12s WALL (    1426 calls)
     fft          :      0.02s CPU      0.02s WALL (      93 calls)
     ffts         :      0.00s CPU      0.00s WALL (       6 calls)
     fftw         :      1.33s CPU      1.40s WALL (   13152 calls)

     Parallel routines
     fft_scatt_xy :      0.11s CPU      0.12s WALL (   13251 calls)
     fft_scatt_yz :      0.34s CPU      0.36s WALL (   13251 calls)

     PWSCF        :     3.96s CPU         4.23s WALL


   This run was terminated on:   0:18:41   8Apr2024            

=------------------------------------------------------------------------------=
   JOB DONE.
=------------------------------------------------------------------------------=
