
     Program PWSCF v.6.3MaX starts on  8Apr2024 at  0:18:33 

     This program is part of the open-source Quantum ESPRESSO suite
     for quantum simulation of materials; please cite
         "P. Giannozzi et al., J. Phys.:Condens. Matter 21 395502 (2009);
         "P. Giannozzi et al., J. Phys.:Condens. Matter 29 465901 (2017);
          URL http://www.quantum-espresso.org", 
     in publications or presentations arising from this work. More details at
     http://www.quantum-espresso.org/quote

     Parallel version (MPI), running on     5 processors

     MPI processes distributed on     1 nodes
     R & G space division:  proc/nbgrp/npool/nimage =       5
     Waiting for input...
     Reading input from standard input

     Current dimensions of program PWSCF are:
     Max number of different atomic species (ntypx) = 10
     Max number of k-points (npk) =  40000
     Max angular momentum in pseudopotentials (lmaxx) =  3
               file K.pz-spn-rrkjus_psl.1.0.0.UPF: wavefunction(s)  3S renormalized

     Subspace diagonalization in iterative solution of the eigenvalue problem:
     a serial algorithm will be used


     Parallelization info
     --------------------
     sticks:   dense  smooth     PW     G-vecs:    dense   smooth      PW
     Min         110     110     34                 1630     1630     295
     Max         111     111     35                 1631     1631     297
     Sum         553     553    173                 8151     8151    1481



     bravais-lattice index     =            3
     lattice parameter (alat)  =       9.8600  a.u.
     unit-cell volume          =     479.2926 (a.u.)^3
     number of atoms/cell      =            1
     number of atomic types    =            1
     number of electrons       =         9.00
     number of Kohn-Sham states=            9
     kinetic-energy cutoff     =      25.0000  Ry
     charge density cutoff     =     100.0000  Ry
     convergence threshold     =      1.0E-08
     mixing beta               =       0.7000
     number of iterations used =            8  plain     mixing
     Exchange-correlation      = LDA ( 1  1  0  0 0 0)

     celldm(1)=   9.860000  celldm(2)=   0.000000  celldm(3)=   0.000000
     celldm(4)=   0.000000  celldm(5)=   0.000000  celldm(6)=   0.000000

     crystal axes: (cart. coord. in units of alat)
               a(1) = (   0.500000   0.500000   0.500000 )  
               a(2) = (  -0.500000   0.500000   0.500000 )  
               a(3) = (  -0.500000  -0.500000   0.500000 )  

     reciprocal axes: (cart. coord. in units 2 pi/alat)
               b(1) = (  1.000000  0.000000  1.000000 )  
               b(2) = ( -1.000000  1.000000  0.000000 )  
               b(3) = (  0.000000 -1.000000  1.000000 )  


     PseudoPot. # 1 for K  read from file:
     /home/lorenzo/pseudos/K/K.pz-spn-rrkjus_psl.1.0.0.UPF
     MD5 check sum: af434a66a3b91719abff201b8f79bb09
     Pseudo is Ultrasoft + core correction, Zval =  9.0
     Generated using "atomic" code by A. Dal Corso v.6.2.2
     Using radial grid of 1165 points,  6 beta functions with: 
                l(1) =   0
                l(2) =   0
                l(3) =   1
                l(4) =   1
                l(5) =   2
                l(6) =   2
     Q(r) pseudized with 0 coefficients 


     atomic species   valence    mass     pseudopotential
        K              9.00    39.09830     K ( 1.00)

     48 Sym. Ops., with inversion, found



   Cartesian axes

     site n.     atom                  positions (alat units)
         1           K   tau(   1) = (   0.0000000   0.0000000   0.0000000  )

     number of k points=    29  gaussian smearing, width (Ry)=  0.0100
                       cart. coord. in units 2pi/alat
        k(    1) = (   0.0000000   0.0000000   0.0000000), wk =   0.0039062
        k(    2) = (   0.0000000  -0.1250000   0.1250000), wk =   0.0468750
        k(    3) = (   0.0000000  -0.2500000   0.2500000), wk =   0.0468750
        k(    4) = (   0.0000000  -0.3750000   0.3750000), wk =   0.0468750
        k(    5) = (   0.0000000   0.5000000  -0.5000000), wk =   0.0234375
        k(    6) = (  -0.1250000  -0.1250000   0.2500000), wk =   0.0937500
        k(    7) = (  -0.1250000  -0.2500000   0.3750000), wk =   0.1875000
        k(    8) = (  -0.1250000   0.6250000  -0.5000000), wk =   0.1875000
        k(    9) = (  -0.2500000   0.7500000  -0.5000000), wk =   0.0937500
        k(   10) = (  -0.2500000   0.6250000  -0.3750000), wk =   0.0937500
        k(   11) = (   0.0000000   0.0000000   0.2500000), wk =   0.0234375
        k(   12) = (   0.0000000  -0.1250000   0.3750000), wk =   0.0937500
        k(   13) = (   0.0000000  -0.2500000   0.5000000), wk =   0.0937500
        k(   14) = (   0.0000000   0.6250000  -0.3750000), wk =   0.0468750
        k(   15) = (  -0.1250000  -0.1250000   0.5000000), wk =   0.0937500
        k(   16) = (  -0.1250000   0.7500000  -0.3750000), wk =   0.1875000
        k(   17) = (  -0.2500000   0.2500000   0.2500000), wk =   0.0312500
        k(   18) = (  -0.2500000   0.7500000  -0.2500000), wk =   0.0312500
        k(   19) = (   0.6250000  -0.6250000   0.2500000), wk =   0.0937500
        k(   20) = (   0.5000000  -0.5000000   0.2500000), wk =   0.0468750
        k(   21) = (   0.5000000  -0.6250000   0.3750000), wk =   0.0937500
        k(   22) = (   0.0000000   0.0000000   0.5000000), wk =   0.0234375
        k(   23) = (   0.0000000  -0.1250000   0.6250000), wk =   0.0937500
        k(   24) = (   0.0000000   0.7500000  -0.2500000), wk =   0.0468750
        k(   25) = (  -0.1250000   0.8750000  -0.2500000), wk =   0.0937500
        k(   26) = (   0.5000000  -0.5000000   0.5000000), wk =   0.0078125
        k(   27) = (   0.0000000   0.0000000   0.7500000), wk =   0.0234375
        k(   28) = (   0.0000000   0.8750000  -0.1250000), wk =   0.0468750
        k(   29) = (   0.0000000   0.0000000  -1.0000000), wk =   0.0039062

     Dense  grid:     8151 G-vectors     FFT dimensions: (  27,  27,  27)

     Estimated max dynamical RAM per process >       8.13 MB

     Estimated total dynamical RAM >      40.64 MB

     Check: negative/imaginary core charge=   -0.000056    0.000000

     Initial potential from superposition of free atoms

     starting charge    8.98437, renormalised to    9.00000
     Starting wfcs are    8 randomized atomic wfcs +    1 random wfcs

     total cpu time spent up to now is        1.0 secs

     Self-consistent Calculation

     iteration #  1     ecut=    25.00 Ry     beta= 0.70
     Davidson diagonalization with overlap
     ethr =  1.00E-02,  avg # of iterations =  6.9

     Threshold (ethr) on eigenvalues was too large:
     Diagonalizing with lowered threshold

     Davidson diagonalization with overlap
     ethr =  1.74E-05,  avg # of iterations =  6.8

     total cpu time spent up to now is        1.9 secs

     total energy              =     -58.72534157 Ry
     Harris-Foulkes estimate   =     -58.72622671 Ry
     estimated scf accuracy    <       0.00160449 Ry

     iteration #  2     ecut=    25.00 Ry     beta= 0.70
     Davidson diagonalization with overlap
     ethr =  1.78E-05,  avg # of iterations =  2.0

     total cpu time spent up to now is        2.2 secs

     total energy              =     -58.72568211 Ry
     Harris-Foulkes estimate   =     -58.72570746 Ry
     estimated scf accuracy    <       0.00013030 Ry

     iteration #  3     ecut=    25.00 Ry     beta= 0.70
     Davidson diagonalization with overlap
     ethr =  1.45E-06,  avg # of iterations =  2.5

     total cpu time spent up to now is        2.5 secs

     total energy              =     -58.72569552 Ry
     Harris-Foulkes estimate   =     -58.72569395 Ry
     estimated scf accuracy    <       0.00000816 Ry

     iteration #  4     ecut=    25.00 Ry     beta= 0.70
     Davidson diagonalization with overlap
     ethr =  9.06E-08,  avg # of iterations =  1.4

     total cpu time spent up to now is        2.7 secs

     total energy              =     -58.72569602 Ry
     Harris-Foulkes estimate   =     -58.72569602 Ry
     estimated scf accuracy    <       0.00000002 Ry

     iteration #  5     ecut=    25.00 Ry     beta= 0.70
     Davidson diagonalization with overlap
     ethr =  2.69E-10,  avg # of iterations =  2.6

     total cpu time spent up to now is        3.0 secs

     End of self-consistent calculation

          k = 0.0000 0.0000 0.0000 (   959 PWs)   bands (ev):

   -30.1361 -13.7238 -13.7238 -13.7238  -0.4770   6.0003   6.0003   6.0003
     6.9607

          k = 0.0000-0.1250 0.1250 (   999 PWs)   bands (ev):

   -30.1353 -13.7467 -13.7369 -13.7317  -0.2767   5.6756   5.7590   6.1466
     6.7184

          k = 0.0000-0.2500 0.2500 (  1001 PWs)   bands (ev):

   -30.1335 -13.7751 -13.7462 -13.7310   0.3028   4.6839   5.3288   6.6163
     6.7557

          k = 0.0000-0.3750 0.3750 (  1021 PWs)   bands (ev):

   -30.1317 -13.8045 -13.7589 -13.7375   1.1955   3.5242   4.9912   6.7195
     7.1148

          k = 0.0000 0.5000-0.5000 (  1024 PWs)   bands (ev):

   -30.1309 -13.8143 -13.7655 -13.7380   2.1489   2.4922   4.8681   6.5821
     7.4405

          k =-0.1250-0.1250 0.2500 (  1004 PWs)   bands (ev):

   -30.1340 -13.7670 -13.7398 -13.7371   0.1136   5.1111   5.3194   6.4244
     6.5545

          k =-0.1250-0.2500 0.3750 (  1013 PWs)   bands (ev):

   -30.1322 -13.7925 -13.7536 -13.7391   0.8529   4.1411   4.8773   6.5801
     6.8620

          k =-0.1250 0.6250-0.5000 (  1015 PWs)   bands (ev):

   -30.1309 -13.8076 -13.7645 -13.7397   1.8524   3.0244   4.6420   6.3958
     7.2640

          k =-0.2500 0.7500-0.5000 (  1011 PWs)   bands (ev):

   -30.1309 -13.7997 -13.7649 -13.7443   1.7086   3.6406   4.1353   6.4847
     6.7783

          k =-0.2500 0.6250-0.3750 (  1015 PWs)   bands (ev):

   -30.1304 -13.7981 -13.7770 -13.7466   2.7380   2.7644   3.8246   6.2693
     7.0594

          k = 0.0000 0.0000 0.2500 (  1008 PWs)   bands (ev):

   -30.1346 -13.7498 -13.7430 -13.7430  -0.0795   5.6543   5.6543   5.9766
     6.2192

          k = 0.0000-0.1250 0.3750 (  1011 PWs)   bands (ev):

   -30.1328 -13.7764 -13.7527 -13.7422   0.4907   4.7492   5.3270   5.8954
     6.6363

          k = 0.0000-0.2500 0.5000 (  1014 PWs)   bands (ev):

   -30.1311 -13.7995 -13.7621 -13.7451   1.3707   3.6260   5.0390   5.8939
     7.1532

          k = 0.0000 0.6250-0.3750 (  1010 PWs)   bands (ev):

   -30.1303 -13.8091 -13.7650 -13.7440   2.3539   2.5764   4.9331   5.7870
     7.2078

          k =-0.1250-0.1250 0.5000 (  1017 PWs)   bands (ev):

   -30.1311 -13.7915 -13.7650 -13.7505   1.2052   4.1414   4.8140   5.9088
     6.8144

          k =-0.1250 0.7500-0.3750 (  1009 PWs)   bands (ev):

   -30.1299 -13.8019 -13.7735 -13.7486   2.1736   3.2426   4.3880   5.9667
     6.8065

          k =-0.2500 0.2500 0.2500 (  1013 PWs)   bands (ev):

   -30.1327 -13.7893 -13.7435 -13.7435   0.6745   4.5942   4.5942   6.5956
     7.0719

          k =-0.2500 0.7500-0.2500 (  1009 PWs)   bands (ev):

   -30.1295 -13.7908 -13.7908 -13.7503   3.0298   3.0298   3.5310   6.5418
     7.0239

          k = 0.6250-0.6250 0.2500 (  1016 PWs)   bands (ev):

   -30.1314 -13.8016 -13.7576 -13.7462   1.5450   3.6781   4.2769   6.2111
     7.2270

          k = 0.5000-0.5000 0.2500 (  1020 PWs)   bands (ev):

   -30.1308 -13.8024 -13.7704 -13.7467   2.5498   2.6752   4.1709   5.9016
     7.3545

          k = 0.5000-0.6250 0.3750 (  1011 PWs)   bands (ev):

   -30.1307 -13.7923 -13.7700 -13.7522   2.4802   3.3414   3.6337   5.4663
     7.3578

          k = 0.0000 0.0000 0.5000 (  1020 PWs)   bands (ev):

   -30.1312 -13.7796 -13.7635 -13.7635   1.0326   4.6288   5.2605   5.2605
     6.8090

          k = 0.0000-0.1250 0.6250 (  1003 PWs)   bands (ev):

   -30.1296 -13.7906 -13.7711 -13.7625   1.8623   3.8343   5.1392   5.1619
     6.3495

          k = 0.0000 0.7500-0.2500 (  1002 PWs)   bands (ev):

   -30.1289 -13.8007 -13.7750 -13.7589   2.8245   2.8951   4.9532   5.0832
     6.5288

          k =-0.1250 0.8750-0.2500 (  1011 PWs)   bands (ev):

   -30.1285 -13.7956 -13.7860 -13.7660   2.7095   3.4398   4.3156   5.6815
     6.0876

          k = 0.5000-0.5000 0.5000 (  1004 PWs)   bands (ev):

   -30.1307 -13.7708 -13.7708 -13.7708   3.2434   3.2434   3.2434   4.7518
     7.5266

          k = 0.0000 0.0000 0.7500 (  1016 PWs)   bands (ev):

   -30.1281 -13.7886 -13.7843 -13.7843   2.5639   3.7291   5.2090   5.2090
     5.4341

          k = 0.0000 0.8750-0.1250 (  1022 PWs)   bands (ev):

   -30.1275 -13.7988 -13.7892 -13.7831   3.1874   3.3682   4.8414   5.2275
     5.7061

          k = 0.0000 0.0000-1.0000 (  1048 PWs)   bands (ev):

   -30.1269 -13.7993 -13.7993 -13.7993   3.4189   5.2864   5.2864   5.2864
     7.2513

     the Fermi energy is     1.7702 ev

!    total energy              =     -58.72569603 Ry
     Harris-Foulkes estimate   =     -58.72569603 Ry
     estimated scf accuracy    <          4.1E-10 Ry

     The total energy is the sum of the following terms:

     one-electron contribution =     -36.62504322 Ry
     hartree contribution      =      18.80713739 Ry
     xc contribution           =     -11.01068328 Ry
     ewald contribution        =     -29.89633975 Ry
     smearing contrib. (-TS)   =      -0.00076717 Ry

     convergence has been achieved in   5 iterations

     Forces acting on atoms (cartesian axes, Ry/au):

     atom    1 type  1   force =     0.00000000    0.00000000    0.00000000

     Total force =     0.000000     Total SCF correction =     0.000000


     Computing stress (Cartesian axis) and pressure

          total   stress  (Ry/bohr**3)                   (kbar)     P=  -34.74
  -0.00023617   0.00000000  -0.00000000        -34.74      0.00     -0.00
   0.00000000  -0.00023617   0.00000000          0.00    -34.74      0.00
  -0.00000000   0.00000000  -0.00023617         -0.00      0.00    -34.74


     Writing output data file K.save/

     init_run     :      0.21s CPU      0.22s WALL (       1 calls)
     electrons    :      2.01s CPU      2.08s WALL (       1 calls)
     forces       :      0.04s CPU      0.04s WALL (       1 calls)
     stress       :      0.14s CPU      0.14s WALL (       1 calls)

     Called by init_run:
     wfcinit      :      0.07s CPU      0.08s WALL (       1 calls)
     potinit      :      0.00s CPU      0.00s WALL (       1 calls)
     hinit0       :      0.12s CPU      0.12s WALL (       1 calls)

     Called by electrons:
     c_bands      :      1.64s CPU      1.71s WALL (       6 calls)
     sum_band     :      0.31s CPU      0.32s WALL (       6 calls)
     v_of_rho     :      0.00s CPU      0.00s WALL (       6 calls)
     newd         :      0.05s CPU      0.05s WALL (       6 calls)
     mix_rho      :      0.00s CPU      0.00s WALL (       6 calls)

     Called by c_bands:
     init_us_2    :      0.06s CPU      0.06s WALL (     435 calls)
     cegterg      :      1.57s CPU      1.63s WALL (     174 calls)

     Called by sum_band:
     sum_band:bec :      0.00s CPU      0.00s WALL (     174 calls)
     addusdens    :      0.05s CPU      0.05s WALL (       6 calls)

     Called by *egterg:
     h_psi        :      1.17s CPU      1.22s WALL (     849 calls)
     s_psi        :      0.04s CPU      0.04s WALL (     849 calls)
     g_psi        :      0.00s CPU      0.00s WALL (     646 calls)
     cdiaghg      :      0.18s CPU      0.18s WALL (     791 calls)

     Called by h_psi:
     h_psi:pot    :      1.16s CPU      1.21s WALL (     849 calls)
     h_psi:calbec :      0.07s CPU      0.07s WALL (     849 calls)
     vloc_psi     :      1.05s CPU      1.09s WALL (     849 calls)
     add_vuspsi   :      0.04s CPU      0.04s WALL (     849 calls)

     General routines
     calbec       :      0.10s CPU      0.11s WALL (    1168 calls)
     fft          :      0.01s CPU      0.01s WALL (      34 calls)
     ffts         :      0.00s CPU      0.00s WALL (       6 calls)
     fftw         :      1.17s CPU      1.22s WALL (   10802 calls)

     Parallel routines
     fft_scatt_xy :      0.10s CPU      0.10s WALL (   10842 calls)
     fft_scatt_yz :      0.33s CPU      0.34s WALL (   10842 calls)

     PWSCF        :     3.16s CPU         3.29s WALL


   This run was terminated on:   0:18:36   8Apr2024            

=------------------------------------------------------------------------------=
   JOB DONE.
=------------------------------------------------------------------------------=
