
     Program PWSCF v.6.3MaX starts on  8Apr2024 at  0:30:47 

     This program is part of the open-source Quantum ESPRESSO suite
     for quantum simulation of materials; please cite
         "P. Giannozzi et al., J. Phys.:Condens. Matter 21 395502 (2009);
         "P. Giannozzi et al., J. Phys.:Condens. Matter 29 465901 (2017);
          URL http://www.quantum-espresso.org", 
     in publications or presentations arising from this work. More details at
     http://www.quantum-espresso.org/quote

     Parallel version (MPI), running on     5 processors

     MPI processes distributed on     1 nodes
     R & G space division:  proc/nbgrp/npool/nimage =       5
     Waiting for input...
     Reading input from standard input

     Current dimensions of program PWSCF are:
     Max number of different atomic species (ntypx) = 10
     Max number of k-points (npk) =  40000
     Max angular momentum in pseudopotentials (lmaxx) =  3
               file K.pbe-spn-kjpaw_psl.1.0.0.UPF: wavefunction(s)  3S renormalized

     Subspace diagonalization in iterative solution of the eigenvalue problem:
     a serial algorithm will be used


     Parallelization info
     --------------------
     sticks:   dense  smooth     PW     G-vecs:    dense   smooth      PW
     Min         196     196     57                 3895     3895     630
     Max         197     197     59                 3897     3897     631
     Sum         981     981    291                19477    19477    3151



     bravais-lattice index     =            3
     lattice parameter (alat)  =       9.8600  a.u.
     unit-cell volume          =     479.2926 (a.u.)^3
     number of atoms/cell      =            1
     number of atomic types    =            1
     number of electrons       =         9.00
     number of Kohn-Sham states=            9
     kinetic-energy cutoff     =      45.0000  Ry
     charge density cutoff     =     180.0000  Ry
     convergence threshold     =      1.0E-08
     mixing beta               =       0.7000
     number of iterations used =            8  plain     mixing
     Exchange-correlation      = SLA PW PBX PBC ( 1  4  3  4 0 0)

     celldm(1)=   9.860000  celldm(2)=   0.000000  celldm(3)=   0.000000
     celldm(4)=   0.000000  celldm(5)=   0.000000  celldm(6)=   0.000000

     crystal axes: (cart. coord. in units of alat)
               a(1) = (   0.500000   0.500000   0.500000 )  
               a(2) = (  -0.500000   0.500000   0.500000 )  
               a(3) = (  -0.500000  -0.500000   0.500000 )  

     reciprocal axes: (cart. coord. in units 2 pi/alat)
               b(1) = (  1.000000  0.000000  1.000000 )  
               b(2) = ( -1.000000  1.000000  0.000000 )  
               b(3) = (  0.000000 -1.000000  1.000000 )  


     PseudoPot. # 1 for K  read from file:
     /home/lorenzo/pseudos/K/K.pbe-spn-kjpaw_psl.1.0.0.UPF
     MD5 check sum: 34cc42130a09071ebe376fd42eb21491
     Pseudo is Projector augmented-wave + core cor, Zval =  9.0
     Generated using "atomic" code by A. Dal Corso v.6.2.2
     Shape of augmentation charge: PSQ
     Using radial grid of 1165 points,  6 beta functions with: 
                l(1) =   0
                l(2) =   0
                l(3) =   1
                l(4) =   1
                l(5) =   2
                l(6) =   2
     Q(r) pseudized with 0 coefficients 


     atomic species   valence    mass     pseudopotential
        K              9.00    39.09830     K ( 1.00)

     48 Sym. Ops., with inversion, found



   Cartesian axes

     site n.     atom                  positions (alat units)
         1           K   tau(   1) = (   0.0000000   0.0000000   0.0000000  )

     number of k points=    16  gaussian smearing, width (Ry)=  0.0100
                       cart. coord. in units 2pi/alat
        k(    1) = (   0.0000000   0.0000000   0.0000000), wk =   0.0092593
        k(    2) = (   0.0000000  -0.1666667   0.1666667), wk =   0.1111111
        k(    3) = (   0.0000000  -0.3333333   0.3333333), wk =   0.1111111
        k(    4) = (   0.0000000   0.5000000  -0.5000000), wk =   0.0555556
        k(    5) = (  -0.1666667  -0.1666667   0.3333333), wk =   0.2222222
        k(    6) = (  -0.1666667   0.6666667  -0.5000000), wk =   0.4444444
        k(    7) = (  -0.3333333   0.6666667  -0.3333333), wk =   0.0740741
        k(    8) = (   0.0000000   0.0000000   0.3333333), wk =   0.0555556
        k(    9) = (   0.0000000  -0.1666667   0.5000000), wk =   0.2222222
        k(   10) = (   0.0000000   0.6666667  -0.3333333), wk =   0.1111111
        k(   11) = (  -0.1666667   0.8333333  -0.3333333), wk =   0.2222222
        k(   12) = (   0.6666667  -0.6666667   0.3333333), wk =   0.0740741
        k(   13) = (   0.5000000  -0.5000000   0.3333333), wk =   0.1111111
        k(   14) = (   0.0000000   0.0000000   0.6666667), wk =   0.0555556
        k(   15) = (   0.0000000   0.8333333  -0.1666667), wk =   0.1111111
        k(   16) = (   0.0000000   0.0000000  -1.0000000), wk =   0.0092593

     Dense  grid:    19477 G-vectors     FFT dimensions: (  40,  40,  40)

     Estimated max dynamical RAM per process >      17.41 MB

     Estimated total dynamical RAM >      87.07 MB

     Check: negative/imaginary core charge=   -0.000010    0.000000

     Initial potential from superposition of free atoms

     starting charge    8.98117, renormalised to    9.00000
     Starting wfcs are    8 randomized atomic wfcs +    1 random wfcs
     Checking if some PAW data can be deallocated... 

     total cpu time spent up to now is        1.3 secs

     Self-consistent Calculation

     iteration #  1     ecut=    45.00 Ry     beta= 0.70
     Davidson diagonalization with overlap
     ethr =  1.00E-02,  avg # of iterations =  7.1

     Threshold (ethr) on eigenvalues was too large:
     Diagonalizing with lowered threshold

     Davidson diagonalization with overlap
     ethr =  1.39E-05,  avg # of iterations =  6.0

     total cpu time spent up to now is        2.5 secs

     total energy              =    -113.00910064 Ry
     Harris-Foulkes estimate   =    -113.00959945 Ry
     estimated scf accuracy    <       0.00125179 Ry

     iteration #  2     ecut=    45.00 Ry     beta= 0.70
     Davidson diagonalization with overlap
     ethr =  1.39E-05,  avg # of iterations =  2.1

     total cpu time spent up to now is        3.1 secs

     total energy              =    -113.00931777 Ry
     Harris-Foulkes estimate   =    -113.00932642 Ry
     estimated scf accuracy    <       0.00009847 Ry

     iteration #  3     ecut=    45.00 Ry     beta= 0.70
     Davidson diagonalization with overlap
     ethr =  1.09E-06,  avg # of iterations =  2.6

     total cpu time spent up to now is        3.6 secs

     total energy              =    -113.00932968 Ry
     Harris-Foulkes estimate   =    -113.00932747 Ry
     estimated scf accuracy    <       0.00000678 Ry

     iteration #  4     ecut=    45.00 Ry     beta= 0.70
     Davidson diagonalization with overlap
     ethr =  7.53E-08,  avg # of iterations =  1.5

     total cpu time spent up to now is        4.0 secs

     total energy              =    -113.00933035 Ry
     Harris-Foulkes estimate   =    -113.00933035 Ry
     estimated scf accuracy    <       0.00000005 Ry

     iteration #  5     ecut=    45.00 Ry     beta= 0.70
     Davidson diagonalization with overlap
     ethr =  5.95E-10,  avg # of iterations =  2.9

     total cpu time spent up to now is        4.5 secs

     End of self-consistent calculation

          k = 0.0000 0.0000 0.0000 (  2491 PWs)   bands (ev):

   -30.1636 -13.6114 -13.6114 -13.6114  -0.2594   6.2652   6.2652   6.2652
     7.1838

          k = 0.0000-0.1667 0.1667 (  2445 PWs)   bands (ev):

   -30.1623 -13.6307 -13.6177 -13.6113   0.0920   5.6348   5.8833   6.5472
     6.9385

          k = 0.0000-0.3333 0.3333 (  2431 PWs)   bands (ev):

   -30.1598 -13.6689 -13.6305 -13.6112   1.0796   4.1221   5.3374   7.0355
     7.2515

          k = 0.0000 0.5000-0.5000 (  2422 PWs)   bands (ev):

   -30.1586 -13.6877 -13.6369 -13.6111   2.3911   2.6514   5.1222   6.8731
     7.9928

          k =-0.1667-0.1667 0.3333 (  2429 PWs)   bands (ev):

   -30.1604 -13.6566 -13.6257 -13.6156   0.7632   4.7958   5.1910   6.8201
     6.9406

          k =-0.1667 0.6667-0.5000 (  2450 PWs)   bands (ev):

   -30.1586 -13.6780 -13.6408 -13.6172   1.9797   3.4705   4.6916   6.6795
     7.3348

          k =-0.3333 0.6667-0.3333 (  2457 PWs)   bands (ev):

   -30.1581 -13.6639 -13.6639 -13.6209   3.1595   3.1595   3.5793   6.5961
     7.3454

          k = 0.0000 0.0000 0.3333 (  2455 PWs)   bands (ev):

   -30.1612 -13.6342 -13.6244 -13.6244   0.4332   5.7015   5.7522   5.7522
     6.6698

          k = 0.0000-0.1667 0.5000 (  2445 PWs)   bands (ev):

   -30.1588 -13.6654 -13.6377 -13.6259   1.3918   4.2618   5.3896   5.8652
     7.2788

          k = 0.0000 0.6667-0.3333 (  2446 PWs)   bands (ev):

   -30.1577 -13.6824 -13.6443 -13.6252   2.7394   2.8048   5.2211   5.7092
     7.2762

          k =-0.1667 0.8333-0.3333 (  2449 PWs)   bands (ev):

   -30.1572 -13.6729 -13.6559 -13.6310   2.5154   3.6544   4.4052   6.2385
     6.7223

          k = 0.6667-0.6667 0.3333 (  2436 PWs)   bands (ev):

   -30.1591 -13.6715 -13.6282 -13.6282   1.6985   4.2271   4.2271   6.4121
     7.5593

          k = 0.5000-0.5000 0.3333 (  2424 PWs)   bands (ev):

   -30.1584 -13.6678 -13.6456 -13.6295   2.9918   3.0464   4.0404   5.7335
     7.6674

          k = 0.0000 0.0000 0.6667 (  2442 PWs)   bands (ev):

   -30.1568 -13.6616 -13.6519 -13.6519   2.2409   4.1520   5.4292   5.4292
     6.0587

          k = 0.0000 0.8333-0.1667 (  2464 PWs)   bands (ev):

   -30.1558 -13.6717 -13.6590 -13.6527   3.2358   3.4597   5.0209   5.4177
     6.2028

          k = 0.0000 0.0000-1.0000 (  2454 PWs)   bands (ev):

   -30.1549 -13.6663 -13.6663 -13.6663   3.6019   3.6019   5.5136   5.5136
     5.5136

     the Fermi energy is     1.9646 ev

!    total energy              =    -113.00933036 Ry
     Harris-Foulkes estimate   =    -113.00933036 Ry
     estimated scf accuracy    <          2.0E-09 Ry

     total all-electron energy =     -1204.248041 Ry

     The total energy is the sum of the following terms:

     one-electron contribution =     -35.40024989 Ry
     hartree contribution      =      18.87982129 Ry
     xc contribution           =     -11.17046399 Ry
     ewald contribution        =     -29.89633975 Ry
     one-center paw contrib.   =     -55.42085248 Ry
     smearing contrib. (-TS)   =      -0.00124554 Ry

     convergence has been achieved in   5 iterations

     Forces acting on atoms (cartesian axes, Ry/au):

     atom    1 type  1   force =     0.00000000    0.00000000    0.00000000

     Total force =     0.000000     Total SCF correction =     0.000000


     Computing stress (Cartesian axis) and pressure

          total   stress  (Ry/bohr**3)                   (kbar)     P=    0.76
   0.00000514  -0.00000000   0.00000000          0.76     -0.00      0.00
  -0.00000000   0.00000514  -0.00000000         -0.00      0.76     -0.00
   0.00000000  -0.00000000   0.00000514          0.00     -0.00      0.76


     Writing output data file K.save/

     init_run     :      0.46s CPU      0.48s WALL (       1 calls)
     electrons    :      3.11s CPU      3.25s WALL (       1 calls)
     forces       :      0.08s CPU      0.08s WALL (       1 calls)
     stress       :      0.27s CPU      0.27s WALL (       1 calls)

     Called by init_run:
     wfcinit      :      0.12s CPU      0.13s WALL (       1 calls)
     potinit      :      0.11s CPU      0.12s WALL (       1 calls)
     hinit0       :      0.19s CPU      0.19s WALL (       1 calls)

     Called by electrons:
     c_bands      :      2.01s CPU      2.11s WALL (       6 calls)
     sum_band     :      0.48s CPU      0.50s WALL (       6 calls)
     v_of_rho     :      0.07s CPU      0.07s WALL (       6 calls)
     newd         :      0.13s CPU      0.13s WALL (       6 calls)
     PAW_pot      :      0.52s CPU      0.54s WALL (       6 calls)
     mix_rho      :      0.01s CPU      0.01s WALL (       6 calls)

     Called by c_bands:
     init_us_2    :      0.07s CPU      0.08s WALL (     240 calls)
     cegterg      :      1.92s CPU      2.02s WALL (      96 calls)

     Called by sum_band:
     sum_band:bec :      0.00s CPU      0.00s WALL (      96 calls)
     addusdens    :      0.11s CPU      0.11s WALL (       6 calls)

     Called by *egterg:
     h_psi        :      1.57s CPU      1.66s WALL (     466 calls)
     s_psi        :      0.05s CPU      0.05s WALL (     466 calls)
     g_psi        :      0.00s CPU      0.00s WALL (     354 calls)
     cdiaghg      :      0.11s CPU      0.11s WALL (     434 calls)

     Called by h_psi:
     h_psi:pot    :      1.56s CPU      1.65s WALL (     466 calls)
     h_psi:calbec :      0.10s CPU      0.10s WALL (     466 calls)
     vloc_psi     :      1.41s CPU      1.49s WALL (     466 calls)
     add_vuspsi   :      0.05s CPU      0.05s WALL (     466 calls)

     General routines
     calbec       :      0.15s CPU      0.16s WALL (     642 calls)
     fft          :      0.05s CPU      0.05s WALL (      93 calls)
     ffts         :      0.00s CPU      0.00s WALL (       6 calls)
     fftw         :      1.59s CPU      1.68s WALL (    5954 calls)

     Parallel routines
     fft_scatt_xy :      0.12s CPU      0.13s WALL (    6053 calls)
     fft_scatt_yz :      0.49s CPU      0.51s WALL (    6053 calls)

     PWSCF        :     4.72s CPU         4.94s WALL


   This run was terminated on:   0:30:52   8Apr2024            

=------------------------------------------------------------------------------=
   JOB DONE.
=------------------------------------------------------------------------------=
