
     Program PWSCF v.6.3MaX starts on  8Apr2024 at  1:42: 6 

     This program is part of the open-source Quantum ESPRESSO suite
     for quantum simulation of materials; please cite
         "P. Giannozzi et al., J. Phys.:Condens. Matter 21 395502 (2009);
         "P. Giannozzi et al., J. Phys.:Condens. Matter 29 465901 (2017);
          URL http://www.quantum-espresso.org", 
     in publications or presentations arising from this work. More details at
     http://www.quantum-espresso.org/quote

     Parallel version (MPI), running on     5 processors

     MPI processes distributed on     1 nodes
     R & G space division:  proc/nbgrp/npool/nimage =       5
     Waiting for input...
     Reading input from standard input

     Current dimensions of program PWSCF are:
     Max number of different atomic species (ntypx) = 10
     Max number of k-points (npk) =  40000
     Max angular momentum in pseudopotentials (lmaxx) =  3
               file K.pz-spn-rrkjus_psl.1.0.0.UPF: wavefunction(s)  3S renormalized

     Subspace diagonalization in iterative solution of the eigenvalue problem:
     a serial algorithm will be used


     Parallelization info
     --------------------
     sticks:   dense  smooth     PW     G-vecs:    dense   smooth      PW
     Min         417     417    115                12009    12009    1770
     Max         417     417    116                12010    12010    1771
     Sum        2085    2085    579                60047    60047    8853



     bravais-lattice index     =            3
     lattice parameter (alat)  =       9.8600  a.u.
     unit-cell volume          =     479.2926 (a.u.)^3
     number of atoms/cell      =            1
     number of atomic types    =            1
     number of electrons       =         9.00
     number of Kohn-Sham states=            9
     kinetic-energy cutoff     =      95.0000  Ry
     charge density cutoff     =     380.0000  Ry
     convergence threshold     =      1.0E-08
     mixing beta               =       0.7000
     number of iterations used =            8  plain     mixing
     Exchange-correlation      = LDA ( 1  1  0  0 0 0)

     celldm(1)=   9.860000  celldm(2)=   0.000000  celldm(3)=   0.000000
     celldm(4)=   0.000000  celldm(5)=   0.000000  celldm(6)=   0.000000

     crystal axes: (cart. coord. in units of alat)
               a(1) = (   0.500000   0.500000   0.500000 )  
               a(2) = (  -0.500000   0.500000   0.500000 )  
               a(3) = (  -0.500000  -0.500000   0.500000 )  

     reciprocal axes: (cart. coord. in units 2 pi/alat)
               b(1) = (  1.000000  0.000000  1.000000 )  
               b(2) = ( -1.000000  1.000000  0.000000 )  
               b(3) = (  0.000000 -1.000000  1.000000 )  


     PseudoPot. # 1 for K  read from file:
     /home/lorenzo/pseudos/K/K.pz-spn-rrkjus_psl.1.0.0.UPF
     MD5 check sum: af434a66a3b91719abff201b8f79bb09
     Pseudo is Ultrasoft + core correction, Zval =  9.0
     Generated using "atomic" code by A. Dal Corso v.6.2.2
     Using radial grid of 1165 points,  6 beta functions with: 
                l(1) =   0
                l(2) =   0
                l(3) =   1
                l(4) =   1
                l(5) =   2
                l(6) =   2
     Q(r) pseudized with 0 coefficients 


     atomic species   valence    mass     pseudopotential
        K              9.00    39.09830     K ( 1.00)

     48 Sym. Ops., with inversion, found



   Cartesian axes

     site n.     atom                  positions (alat units)
         1           K   tau(   1) = (   0.0000000   0.0000000   0.0000000  )

     number of k points=    35  gaussian smearing, width (Ry)=  0.0100
                       cart. coord. in units 2pi/alat
        k(    1) = (   0.0000000   0.0000000   0.0000000), wk =   0.0027435
        k(    2) = (   0.0000000  -0.1111111   0.1111111), wk =   0.0329218
        k(    3) = (   0.0000000  -0.2222222   0.2222222), wk =   0.0329218
        k(    4) = (   0.0000000  -0.3333333   0.3333333), wk =   0.0329218
        k(    5) = (   0.0000000  -0.4444444   0.4444444), wk =   0.0329218
        k(    6) = (  -0.1111111  -0.1111111   0.2222222), wk =   0.0658436
        k(    7) = (  -0.1111111  -0.2222222   0.3333333), wk =   0.1316872
        k(    8) = (  -0.1111111  -0.3333333   0.4444444), wk =   0.1316872
        k(    9) = (  -0.1111111   0.5555556  -0.4444444), wk =   0.0658436
        k(   10) = (  -0.2222222  -0.2222222   0.4444444), wk =   0.0658436
        k(   11) = (  -0.2222222   0.6666667  -0.4444444), wk =   0.1316872
        k(   12) = (  -0.3333333   0.6666667  -0.3333333), wk =   0.0219479
        k(   13) = (   0.0000000   0.0000000   0.2222222), wk =   0.0164609
        k(   14) = (   0.0000000  -0.1111111   0.3333333), wk =   0.0658436
        k(   15) = (   0.0000000  -0.2222222   0.4444444), wk =   0.0658436
        k(   16) = (   0.0000000  -0.3333333   0.5555556), wk =   0.0658436
        k(   17) = (  -0.1111111  -0.1111111   0.4444444), wk =   0.0658436
        k(   18) = (  -0.1111111  -0.2222222   0.5555556), wk =   0.1316872
        k(   19) = (  -0.1111111   0.6666667  -0.3333333), wk =   0.0658436
        k(   20) = (  -0.2222222   0.2222222   0.2222222), wk =   0.0219479
        k(   21) = (  -0.2222222   0.7777778  -0.3333333), wk =   0.0658436
        k(   22) = (  -0.3333333   0.3333333   0.2222222), wk =   0.0658436
        k(   23) = (   0.5555556  -0.5555556   0.2222222), wk =   0.0658436
        k(   24) = (   0.5555556  -0.6666667   0.3333333), wk =   0.0658436
        k(   25) = (   0.4444444  -0.5555556   0.3333333), wk =   0.0658436
        k(   26) = (   0.0000000   0.0000000   0.4444444), wk =   0.0164609
        k(   27) = (   0.0000000  -0.1111111   0.5555556), wk =   0.0658436
        k(   28) = (   0.0000000  -0.2222222   0.6666667), wk =   0.0658436
        k(   29) = (  -0.1111111  -0.1111111   0.6666667), wk =   0.0658436
        k(   30) = (  -0.1111111   0.7777778  -0.2222222), wk =   0.0658436
        k(   31) = (   0.5555556  -0.5555556   0.4444444), wk =   0.0219479
        k(   32) = (   0.0000000   0.0000000   0.6666667), wk =   0.0164609
        k(   33) = (   0.0000000  -0.1111111   0.7777778), wk =   0.0658436
        k(   34) = (  -0.1111111   0.8888889  -0.1111111), wk =   0.0219479
        k(   35) = (   0.0000000   0.0000000   0.8888889), wk =   0.0164609

     Dense  grid:    60047 G-vectors     FFT dimensions: (  54,  54,  54)

     Estimated max dynamical RAM per process >      54.30 MB

     Estimated total dynamical RAM >     271.51 MB

     Check: negative/imaginary core charge=   -0.000001    0.000000

     Initial potential from superposition of free atoms

     starting charge    8.98437, renormalised to    9.00000
     Starting wfcs are    8 randomized atomic wfcs +    1 random wfcs

     total cpu time spent up to now is        1.9 secs

     Self-consistent Calculation

     iteration #  1     ecut=    95.00 Ry     beta= 0.70
     Davidson diagonalization with overlap
     ethr =  1.00E-02,  avg # of iterations =  6.4

     Threshold (ethr) on eigenvalues was too large:
     Diagonalizing with lowered threshold

     Davidson diagonalization with overlap
     ethr =  1.24E-05,  avg # of iterations =  6.6

     total cpu time spent up to now is        8.9 secs

     total energy              =     -58.74341850 Ry
     Harris-Foulkes estimate   =     -58.74398975 Ry
     estimated scf accuracy    <       0.00112689 Ry

     iteration #  2     ecut=    95.00 Ry     beta= 0.70
     Davidson diagonalization with overlap
     ethr =  1.25E-05,  avg # of iterations =  2.1

     total cpu time spent up to now is       11.2 secs

     total energy              =     -58.74361866 Ry
     Harris-Foulkes estimate   =     -58.74363621 Ry
     estimated scf accuracy    <       0.00009014 Ry

     iteration #  3     ecut=    95.00 Ry     beta= 0.70
     Davidson diagonalization with overlap
     ethr =  1.00E-06,  avg # of iterations =  1.9

     total cpu time spent up to now is       13.5 secs

     total energy              =     -58.74362760 Ry
     Harris-Foulkes estimate   =     -58.74362682 Ry
     estimated scf accuracy    <       0.00000572 Ry

     iteration #  4     ecut=    95.00 Ry     beta= 0.70
     Davidson diagonalization with overlap
     ethr =  6.35E-08,  avg # of iterations =  1.5

     total cpu time spent up to now is       15.5 secs

     total energy              =     -58.74362814 Ry
     Harris-Foulkes estimate   =     -58.74362814 Ry
     estimated scf accuracy    <       0.00000003 Ry

     iteration #  5     ecut=    95.00 Ry     beta= 0.70
     Davidson diagonalization with overlap
     ethr =  3.79E-10,  avg # of iterations =  2.2

     total cpu time spent up to now is       17.6 secs

     End of self-consistent calculation

          k = 0.0000 0.0000 0.0000 (  7419 PWs)   bands (ev):

   -30.0993 -13.7373 -13.7373 -13.7373  -0.4767   5.9288   5.9288   6.8741
     6.8742

          k = 0.0000-0.1111 0.1111 (  7523 PWs)   bands (ev):

   -30.0987 -13.7468 -13.7405 -13.7373  -0.3182   5.7015   5.7482   6.0555
     6.6689

          k = 0.0000-0.2222 0.2222 (  7498 PWs)   bands (ev):

   -30.0971 -13.7707 -13.7485 -13.7373   0.1436   4.9041   5.3772   6.4287
     6.6600

          k = 0.0000-0.3333 0.3333 (  7488 PWs)   bands (ev):

   -30.0954 -13.7974 -13.7575 -13.7373   0.8679   3.9018   5.0443   6.7056
     7.0231

          k = 0.0000-0.4444 0.4444 (  7506 PWs)   bands (ev):

   -30.0943 -13.8147 -13.7634 -13.7373   1.7770   2.8690   4.8590   6.5660
     7.2545

          k =-0.1111-0.1111 0.2222 (  7507 PWs)   bands (ev):

   -30.0976 -13.7633 -13.7440 -13.7396  -0.0079   5.2486   5.3975   6.2855
     6.5013

          k =-0.1111-0.2222 0.3333 (  7485 PWs)   bands (ev):

   -30.0960 -13.7866 -13.7535 -13.7405   0.5867   4.4164   4.9965   6.5254
     6.6893

          k =-0.1111-0.3333 0.4444 (  7492 PWs)   bands (ev):

   -30.0945 -13.8062 -13.7630 -13.7407   1.4119   3.4401   4.7326   6.4585
     7.0995

          k =-0.1111 0.5556-0.4444 (  7505 PWs)   bands (ev):

   -30.0939 -13.8139 -13.7669 -13.7408   2.2660   2.5404   4.6402   6.3299
     7.5633

          k =-0.2222-0.2222 0.4444 (  7498 PWs)   bands (ev):

   -30.0946 -13.7995 -13.7640 -13.7444   1.2864   3.9087   4.4027   6.6128
     6.6280

          k =-0.2222 0.6667-0.4444 (  7492 PWs)   bands (ev):

   -30.0938 -13.8046 -13.7753 -13.7457   2.1750   3.1340   4.0534   6.2895
     6.9303

          k =-0.3333 0.6667-0.3333 (  7476 PWs)   bands (ev):

   -30.0934 -13.7922 -13.7922 -13.7474   2.9758   2.9758   3.3018   6.2469
     7.0167

          k = 0.0000 0.0000 0.2222 (  7499 PWs)   bands (ev):

   -30.0981 -13.7493 -13.7437 -13.7437  -0.1618   5.6631   5.6631   6.0890
     6.1115

          k = 0.0000-0.1111 0.3333 (  7490 PWs)   bands (ev):

   -30.0966 -13.7703 -13.7518 -13.7449   0.2943   4.9544   5.3714   5.9360
     6.4428

          k = 0.0000-0.2222 0.4444 (  7499 PWs)   bands (ev):

   -30.0949 -13.7957 -13.7610 -13.7445   1.0100   3.9714   5.0773   5.9878
     7.0212

          k = 0.0000-0.3333 0.5556 (  7493 PWs)   bands (ev):

   -30.0938 -13.8122 -13.7669 -13.7441   1.9133   2.9589   4.9087   5.8936
     7.1504

          k =-0.1111-0.1111 0.4444 (  7484 PWs)   bands (ev):

   -30.0950 -13.7870 -13.7613 -13.7495   0.8734   4.3918   4.9697   5.8824
     6.7575

          k =-0.1111-0.2222 0.5556 (  7490 PWs)   bands (ev):

   -30.0937 -13.8029 -13.7716 -13.7501   1.6777   3.5824   4.5929   5.9489
     6.7789

          k =-0.1111 0.6667-0.3333 (  7502 PWs)   bands (ev):

   -30.0931 -13.8092 -13.7759 -13.7500   2.5768   2.6732   4.4582   5.8795
     6.9577

          k =-0.2222 0.2222 0.2222 (  7488 PWs)   bands (ev):

   -30.0964 -13.7830 -13.7447 -13.7447   0.4419   4.7801   4.7801   6.5319
     6.9209

          k =-0.2222 0.7778-0.3333 (  7492 PWs)   bands (ev):

   -30.0929 -13.8014 -13.7867 -13.7517   2.5190   3.2646   3.7782   6.3453
     6.5661

          k =-0.3333 0.3333 0.2222 (  7489 PWs)   bands (ev):

   -30.0950 -13.7988 -13.7570 -13.7456   1.1514   3.9721   4.4507   6.4736
     7.0449

          k = 0.5556-0.5556 0.2222 (  7482 PWs)   bands (ev):

   -30.0941 -13.8065 -13.7675 -13.7461   2.0495   3.0471   4.2834   6.1124
     7.2501

          k = 0.5556-0.6667 0.3333 (  7487 PWs)   bands (ev):

   -30.0942 -13.8004 -13.7670 -13.7521   1.9394   3.5881   3.8931   5.8346
     7.1738

          k = 0.4444-0.5556 0.3333 (  7490 PWs)   bands (ev):

   -30.0938 -13.7959 -13.7772 -13.7537   2.8313   2.8527   3.7034   5.5275
     7.2723

          k = 0.0000 0.0000 0.4444 (  7475 PWs)   bands (ev):

   -30.0952 -13.7733 -13.7602 -13.7602   0.7328   4.8709   5.2909   5.2909
     6.6223

          k = 0.0000-0.1111 0.5556 (  7490 PWs)   bands (ev):

   -30.0936 -13.7917 -13.7698 -13.7624   1.4187   4.1014   5.1409   5.2998
     6.5614

          k = 0.0000-0.2222 0.6667 (  7494 PWs)   bands (ev):

   -30.0926 -13.8059 -13.7760 -13.7614   2.2825   3.2170   5.0337   5.1165
     6.6002

          k =-0.1111-0.1111 0.6667 (  7490 PWs)   bands (ev):

   -30.0923 -13.7990 -13.7817 -13.7659   2.1643   3.6670   4.5437   5.5895
     6.1990

          k =-0.1111 0.7778-0.2222 (  7493 PWs)   bands (ev):

   -30.0918 -13.8019 -13.7879 -13.7658   2.9315   3.0719   4.2073   5.6947
     6.2977

          k = 0.5556-0.5556 0.4444 (  7506 PWs)   bands (ev):

   -30.0939 -13.7892 -13.7690 -13.7690   2.7376   3.4308   3.4308   4.9887
     7.4070

          k = 0.0000 0.0000 0.6667 (  7495 PWs)   bands (ev):

   -30.0921 -13.7898 -13.7798 -13.7798   2.0407   3.9442   5.1734   5.1734
     5.7565

          k = 0.0000-0.1111 0.7778 (  7496 PWs)   bands (ev):

   -30.0912 -13.7987 -13.7863 -13.7809   2.7736   3.4839   4.8388   5.1723
     5.8473

          k =-0.1111 0.8889-0.1111 (  7502 PWs)   bands (ev):

   -30.0907 -13.7955 -13.7955 -13.7825   3.2657   3.2657   4.5304   5.5977
     5.5977

          k = 0.0000 0.0000 0.8889 (  7484 PWs)   bands (ev):

   -30.0903 -13.7945 -13.7930 -13.7930   3.2249   3.4618   5.2229   5.2586
     5.2586

     the Fermi energy is     1.7500 ev

!    total energy              =     -58.74362815 Ry
     Harris-Foulkes estimate   =     -58.74362815 Ry
     estimated scf accuracy    <          6.3E-10 Ry

     The total energy is the sum of the following terms:

     one-electron contribution =     -36.65546176 Ry
     hartree contribution      =      18.82542250 Ry
     xc contribution           =     -11.01680589 Ry
     ewald contribution        =     -29.89633970 Ry
     smearing contrib. (-TS)   =      -0.00044331 Ry

     convergence has been achieved in   5 iterations

     Forces acting on atoms (cartesian axes, Ry/au):

     atom    1 type  1   force =     0.00000000    0.00000000    0.00000000

     Total force =     0.000000     Total SCF correction =     0.000000


     Computing stress (Cartesian axis) and pressure

          total   stress  (Ry/bohr**3)                   (kbar)     P=   -3.92
  -0.00002667   0.00000000  -0.00000000         -3.92      0.00     -0.00
   0.00000000  -0.00002667   0.00000000          0.00     -3.92      0.00
  -0.00000000   0.00000000  -0.00002667         -0.00      0.00     -3.92


     Writing output data file K.save/

     init_run     :      1.16s CPU      1.21s WALL (       1 calls)
     electrons    :     15.17s CPU     15.64s WALL (       1 calls)
     forces       :      0.22s CPU      0.22s WALL (       1 calls)
     stress       :      0.97s CPU      0.97s WALL (       1 calls)

     Called by init_run:
     wfcinit      :      0.72s CPU      0.74s WALL (       1 calls)
     potinit      :      0.02s CPU      0.02s WALL (       1 calls)
     hinit0       :      0.24s CPU      0.25s WALL (       1 calls)

     Called by electrons:
     c_bands      :     12.42s CPU     12.81s WALL (       6 calls)
     sum_band     :      2.43s CPU      2.50s WALL (       6 calls)
     v_of_rho     :      0.03s CPU      0.03s WALL (       6 calls)
     newd         :      0.34s CPU      0.36s WALL (       6 calls)
     mix_rho      :      0.01s CPU      0.02s WALL (       6 calls)

     Called by c_bands:
     init_us_2    :      0.47s CPU      0.48s WALL (     525 calls)
     cegterg      :     11.84s CPU     12.22s WALL (     210 calls)

     Called by sum_band:
     sum_band:bec :      0.00s CPU      0.00s WALL (     210 calls)
     addusdens    :      0.34s CPU      0.35s WALL (       6 calls)

     Called by *egterg:
     h_psi        :     10.05s CPU     10.43s WALL (     972 calls)
     s_psi        :      0.30s CPU      0.31s WALL (     972 calls)
     g_psi        :      0.03s CPU      0.03s WALL (     727 calls)
     cdiaghg      :      0.26s CPU      0.26s WALL (     902 calls)

     Called by h_psi:
     h_psi:pot    :     10.00s CPU     10.38s WALL (     972 calls)
     h_psi:calbec :      0.60s CPU      0.61s WALL (     972 calls)
     vloc_psi     :      9.05s CPU      9.41s WALL (     972 calls)
     add_vuspsi   :      0.34s CPU      0.35s WALL (     972 calls)

     General routines
     calbec       :      0.91s CPU      0.93s WALL (    1357 calls)
     fft          :      0.05s CPU      0.05s WALL (      34 calls)
     ffts         :      0.01s CPU      0.01s WALL (       6 calls)
     fftw         :      9.74s CPU     10.13s WALL (   12904 calls)

     Parallel routines
     fft_scatt_xy :      0.79s CPU      0.82s WALL (   12944 calls)
     fft_scatt_yz :      2.32s CPU      2.42s WALL (   12944 calls)

     PWSCF        :    18.31s CPU        18.93s WALL


   This run was terminated on:   1:42:25   8Apr2024            

=------------------------------------------------------------------------------=
   JOB DONE.
=------------------------------------------------------------------------------=
