
     Program PWSCF v.6.3MaX starts on  8Apr2024 at  0:11:18 

     This program is part of the open-source Quantum ESPRESSO suite
     for quantum simulation of materials; please cite
         "P. Giannozzi et al., J. Phys.:Condens. Matter 21 395502 (2009);
         "P. Giannozzi et al., J. Phys.:Condens. Matter 29 465901 (2017);
          URL http://www.quantum-espresso.org", 
     in publications or presentations arising from this work. More details at
     http://www.quantum-espresso.org/quote

     Parallel version (MPI), running on     5 processors

     MPI processes distributed on     1 nodes
     R & G space division:  proc/nbgrp/npool/nimage =       5
     Waiting for input...
     Reading input from standard input

     Current dimensions of program PWSCF are:
     Max number of different atomic species (ntypx) = 10
     Max number of k-points (npk) =  40000
     Max angular momentum in pseudopotentials (lmaxx) =  3
               file K.pbe-spn-kjpaw_psl.1.0.0.UPF: wavefunction(s)  3S renormalized

     Subspace diagonalization in iterative solution of the eigenvalue problem:
     a serial algorithm will be used


     Parallelization info
     --------------------
     sticks:   dense  smooth     PW     G-vecs:    dense   smooth      PW
     Min          43      43     15                  417      417      85
     Max          44      44     16                  420      420      86
     Sum         219     219     77                 2093     2093     429



     bravais-lattice index     =            3
     lattice parameter (alat)  =       9.8600  a.u.
     unit-cell volume          =     479.2926 (a.u.)^3
     number of atoms/cell      =            1
     number of atomic types    =            1
     number of electrons       =         9.00
     number of Kohn-Sham states=            9
     kinetic-energy cutoff     =      10.0000  Ry
     charge density cutoff     =      40.0000  Ry
     convergence threshold     =      1.0E-08
     mixing beta               =       0.7000
     number of iterations used =            8  plain     mixing
     Exchange-correlation      = SLA PW PBX PBC ( 1  4  3  4 0 0)

     celldm(1)=   9.860000  celldm(2)=   0.000000  celldm(3)=   0.000000
     celldm(4)=   0.000000  celldm(5)=   0.000000  celldm(6)=   0.000000

     crystal axes: (cart. coord. in units of alat)
               a(1) = (   0.500000   0.500000   0.500000 )  
               a(2) = (  -0.500000   0.500000   0.500000 )  
               a(3) = (  -0.500000  -0.500000   0.500000 )  

     reciprocal axes: (cart. coord. in units 2 pi/alat)
               b(1) = (  1.000000  0.000000  1.000000 )  
               b(2) = ( -1.000000  1.000000  0.000000 )  
               b(3) = (  0.000000 -1.000000  1.000000 )  


     PseudoPot. # 1 for K  read from file:
     /home/lorenzo/pseudos/K/K.pbe-spn-kjpaw_psl.1.0.0.UPF
     MD5 check sum: 34cc42130a09071ebe376fd42eb21491
     Pseudo is Projector augmented-wave + core cor, Zval =  9.0
     Generated using "atomic" code by A. Dal Corso v.6.2.2
     Shape of augmentation charge: PSQ
     Using radial grid of 1165 points,  6 beta functions with: 
                l(1) =   0
                l(2) =   0
                l(3) =   1
                l(4) =   1
                l(5) =   2
                l(6) =   2
     Q(r) pseudized with 0 coefficients 


     atomic species   valence    mass     pseudopotential
        K              9.00    39.09830     K ( 1.00)

     48 Sym. Ops., with inversion, found



   Cartesian axes

     site n.     atom                  positions (alat units)
         1           K   tau(   1) = (   0.0000000   0.0000000   0.0000000  )

     number of k points=     8  gaussian smearing, width (Ry)=  0.0100
                       cart. coord. in units 2pi/alat
        k(    1) = (   0.0000000   0.0000000   0.0000000), wk =   0.0312500
        k(    2) = (   0.0000000  -0.2500000   0.2500000), wk =   0.3750000
        k(    3) = (   0.0000000   0.5000000  -0.5000000), wk =   0.1875000
        k(    4) = (  -0.2500000   0.7500000  -0.5000000), wk =   0.7500000
        k(    5) = (   0.0000000   0.0000000   0.5000000), wk =   0.1875000
        k(    6) = (   0.0000000   0.7500000  -0.2500000), wk =   0.3750000
        k(    7) = (   0.5000000  -0.5000000   0.5000000), wk =   0.0625000
        k(    8) = (   0.0000000   0.0000000  -1.0000000), wk =   0.0312500

     Dense  grid:     2093 G-vectors     FFT dimensions: (  18,  18,  18)

     Estimated max dynamical RAM per process >       2.43 MB

     Estimated total dynamical RAM >      12.13 MB

     Check: negative/imaginary core charge=   -0.001484    0.000000

     Initial potential from superposition of free atoms
     Check: negative starting charge=   -0.000336

     starting charge    8.98117, renormalised to    9.00000

     negative rho (up, down):  3.370E-04 0.000E+00
     Starting wfcs are    8 randomized atomic wfcs +    1 random wfcs
     Checking if some PAW data can be deallocated... 

     total cpu time spent up to now is        1.2 secs

     Self-consistent Calculation

     iteration #  1     ecut=    10.00 Ry     beta= 0.70
     Davidson diagonalization with overlap
     ethr =  1.00E-02,  avg # of iterations =  5.9

     total cpu time spent up to now is        1.5 secs

     total energy              =    -111.50827507 Ry
     Harris-Foulkes estimate   =    -111.80317289 Ry
     estimated scf accuracy    <       0.38728894 Ry

     iteration #  2     ecut=    10.00 Ry     beta= 0.70
     Davidson diagonalization with overlap
     ethr =  4.30E-03,  avg # of iterations =  2.0

     total cpu time spent up to now is        1.7 secs

     total energy              =    -111.58444370 Ry
     Harris-Foulkes estimate   =    -111.58842334 Ry
     estimated scf accuracy    <       0.01061224 Ry

     iteration #  3     ecut=    10.00 Ry     beta= 0.70
     Davidson diagonalization with overlap
     ethr =  1.18E-04,  avg # of iterations =  3.1

     total cpu time spent up to now is        1.8 secs

     total energy              =    -111.58463636 Ry
     Harris-Foulkes estimate   =    -111.58491913 Ry
     estimated scf accuracy    <       0.00077383 Ry

     iteration #  4     ecut=    10.00 Ry     beta= 0.70
     Davidson diagonalization with overlap
     ethr =  8.60E-06,  avg # of iterations =  2.4

     total cpu time spent up to now is        2.0 secs

     total energy              =    -111.58465642 Ry
     Harris-Foulkes estimate   =    -111.58465872 Ry
     estimated scf accuracy    <       0.00000196 Ry

     iteration #  5     ecut=    10.00 Ry     beta= 0.70
     Davidson diagonalization with overlap
     ethr =  2.18E-08,  avg # of iterations =  2.2

     total cpu time spent up to now is        2.1 secs

     total energy              =    -111.58465693 Ry
     Harris-Foulkes estimate   =    -111.58465708 Ry
     estimated scf accuracy    <       0.00000013 Ry

     iteration #  6     ecut=    10.00 Ry     beta= 0.70
     Davidson diagonalization with overlap
     ethr =  1.50E-09,  avg # of iterations =  1.8

     total cpu time spent up to now is        2.3 secs

     End of self-consistent calculation

          k = 0.0000 0.0000 0.0000 (   249 PWs)   bands (ev):

   -34.3123 -13.2027 -13.2027 -13.2027  -1.0352   6.6997   6.6997   7.8991
     7.8991

          k = 0.0000-0.2500 0.2500 (   261 PWs)   bands (ev):

   -34.3409 -13.6607 -13.4913 -13.4476  -0.2079   4.6883   5.6637   7.3096
     7.3910

          k = 0.0000 0.5000-0.5000 (   268 PWs)   bands (ev):

   -34.3591 -13.8680 -13.7294 -13.6581   1.7298   2.1495   5.0521   7.0509
     7.4619

          k =-0.2500 0.7500-0.5000 (   256 PWs)   bands (ev):

   -34.3307 -13.5565 -13.4980 -13.2937   1.2965   3.5052   3.9881   6.5339
     7.5580

          k = 0.0000 0.0000 0.5000 (   249 PWs)   bands (ev):

   -34.3178 -13.4802 -13.2022 -13.2022   0.5821   4.6392   5.4424   5.4424
     7.0073

          k = 0.0000 0.7500-0.2500 (   256 PWs)   bands (ev):

   -34.3384 -13.6003 -13.5239 -13.3973   2.5579   2.5817   4.8492   5.1366
     6.8653

          k = 0.5000-0.5000 0.5000 (   240 PWs)   bands (ev):

   -34.2899 -13.0596 -13.0596 -13.0596   3.0976   3.0976   3.0976   4.2311
     9.1868

          k = 0.0000 0.0000-1.0000 (   236 PWs)   bands (ev):

   -34.2985 -13.0795 -13.0795 -13.0795   3.3254   5.1486   5.1486   5.1486
     6.7486

     the Fermi energy is     1.3065 ev

!    total energy              =    -111.58465683 Ry
     Harris-Foulkes estimate   =    -111.58465696 Ry
     estimated scf accuracy    <          2.5E-09 Ry

     total all-electron energy =     -1202.823367 Ry

     The total energy is the sum of the following terms:

     one-electron contribution =     -32.60022660 Ry
     hartree contribution      =      16.86667336 Ry
     xc contribution           =     -10.89273170 Ry
     ewald contribution        =     -29.89633971 Ry
     one-center paw contrib.   =     -55.05992798 Ry
     smearing contrib. (-TS)   =      -0.00210419 Ry

     convergence has been achieved in   6 iterations

     Forces acting on atoms (cartesian axes, Ry/au):

     atom    1 type  1   force =     0.00000000    0.00000000    0.00000000

     Total force =     0.000000     Total SCF correction =     0.000000


     Computing stress (Cartesian axis) and pressure

          total   stress  (Ry/bohr**3)                   (kbar)     P= -806.07
  -0.00547958  -0.00000000   0.00000000       -806.07     -0.00      0.00
  -0.00000000  -0.00547958  -0.00000000         -0.00   -806.07     -0.00
   0.00000000  -0.00000000  -0.00547958          0.00     -0.00   -806.07


     Writing output data file K.save/

     init_run     :      0.25s CPU      0.27s WALL (       1 calls)
     electrons    :      0.97s CPU      1.06s WALL (       1 calls)
     forces       :      0.01s CPU      0.01s WALL (       1 calls)
     stress       :      0.03s CPU      0.03s WALL (       1 calls)

     Called by init_run:
     wfcinit      :      0.03s CPU      0.03s WALL (       1 calls)
     potinit      :      0.13s CPU      0.14s WALL (       1 calls)
     hinit0       :      0.08s CPU      0.08s WALL (       1 calls)

     Called by electrons:
     c_bands      :      0.24s CPU      0.26s WALL (       6 calls)
     sum_band     :      0.05s CPU      0.05s WALL (       6 calls)
     v_of_rho     :      0.01s CPU      0.01s WALL (       7 calls)
     newd         :      0.02s CPU      0.02s WALL (       7 calls)
     PAW_pot      :      0.76s CPU      0.84s WALL (       7 calls)
     mix_rho      :      0.00s CPU      0.00s WALL (       6 calls)

     Called by c_bands:
     init_us_2    :      0.01s CPU      0.01s WALL (     120 calls)
     cegterg      :      0.22s CPU      0.24s WALL (      48 calls)

     Called by sum_band:
     sum_band:bec :      0.00s CPU      0.00s WALL (      48 calls)
     addusdens    :      0.01s CPU      0.01s WALL (       6 calls)

     Called by *egterg:
     h_psi        :      0.17s CPU      0.18s WALL (     195 calls)
     s_psi        :      0.00s CPU      0.00s WALL (     195 calls)
     g_psi        :      0.00s CPU      0.00s WALL (     139 calls)
     cdiaghg      :      0.04s CPU      0.05s WALL (     187 calls)

     Called by h_psi:
     h_psi:pot    :      0.17s CPU      0.18s WALL (     195 calls)
     h_psi:calbec :      0.01s CPU      0.01s WALL (     195 calls)
     vloc_psi     :      0.16s CPU      0.17s WALL (     195 calls)
     add_vuspsi   :      0.00s CPU      0.00s WALL (     195 calls)

     General routines
     calbec       :      0.01s CPU      0.02s WALL (     283 calls)
     fft          :      0.02s CPU      0.02s WALL (     103 calls)
     ffts         :      0.00s CPU      0.00s WALL (       6 calls)
     fftw         :      0.17s CPU      0.18s WALL (    2858 calls)

     Parallel routines
     fft_scatt_xy :      0.01s CPU      0.01s WALL (    2967 calls)
     fft_scatt_yz :      0.11s CPU      0.11s WALL (    2967 calls)

     PWSCF        :     2.21s CPU         2.37s WALL


   This run was terminated on:   0:11:21   8Apr2024            

=------------------------------------------------------------------------------=
   JOB DONE.
=------------------------------------------------------------------------------=
