
     Program PWSCF v.6.3MaX starts on  8Apr2024 at  0:24: 4 

     This program is part of the open-source Quantum ESPRESSO suite
     for quantum simulation of materials; please cite
         "P. Giannozzi et al., J. Phys.:Condens. Matter 21 395502 (2009);
         "P. Giannozzi et al., J. Phys.:Condens. Matter 29 465901 (2017);
          URL http://www.quantum-espresso.org", 
     in publications or presentations arising from this work. More details at
     http://www.quantum-espresso.org/quote

     Parallel version (MPI), running on     5 processors

     MPI processes distributed on     1 nodes
     R & G space division:  proc/nbgrp/npool/nimage =       5
     Waiting for input...
     Reading input from standard input

     Current dimensions of program PWSCF are:
     Max number of different atomic species (ntypx) = 10
     Max number of k-points (npk) =  40000
     Max angular momentum in pseudopotentials (lmaxx) =  3
               file K.pbe-spn-kjpaw_psl.1.0.0.UPF: wavefunction(s)  3S renormalized

     Subspace diagonalization in iterative solution of the eigenvalue problem:
     a serial algorithm will be used


     Parallelization info
     --------------------
     sticks:   dense  smooth     PW     G-vecs:    dense   smooth      PW
     Min         153     153     45                 2690     2690     447
     Max         154     154     46                 2691     2691     449
     Sum         769     769    229                13451    13451    2243



     bravais-lattice index     =            3
     lattice parameter (alat)  =       9.8600  a.u.
     unit-cell volume          =     479.2926 (a.u.)^3
     number of atoms/cell      =            1
     number of atomic types    =            1
     number of electrons       =         9.00
     number of Kohn-Sham states=            9
     kinetic-energy cutoff     =      35.0000  Ry
     charge density cutoff     =     140.0000  Ry
     convergence threshold     =      1.0E-08
     mixing beta               =       0.7000
     number of iterations used =            8  plain     mixing
     Exchange-correlation      = SLA PW PBX PBC ( 1  4  3  4 0 0)

     celldm(1)=   9.860000  celldm(2)=   0.000000  celldm(3)=   0.000000
     celldm(4)=   0.000000  celldm(5)=   0.000000  celldm(6)=   0.000000

     crystal axes: (cart. coord. in units of alat)
               a(1) = (   0.500000   0.500000   0.500000 )  
               a(2) = (  -0.500000   0.500000   0.500000 )  
               a(3) = (  -0.500000  -0.500000   0.500000 )  

     reciprocal axes: (cart. coord. in units 2 pi/alat)
               b(1) = (  1.000000  0.000000  1.000000 )  
               b(2) = ( -1.000000  1.000000  0.000000 )  
               b(3) = (  0.000000 -1.000000  1.000000 )  


     PseudoPot. # 1 for K  read from file:
     /home/lorenzo/pseudos/K/K.pbe-spn-kjpaw_psl.1.0.0.UPF
     MD5 check sum: 34cc42130a09071ebe376fd42eb21491
     Pseudo is Projector augmented-wave + core cor, Zval =  9.0
     Generated using "atomic" code by A. Dal Corso v.6.2.2
     Shape of augmentation charge: PSQ
     Using radial grid of 1165 points,  6 beta functions with: 
                l(1) =   0
                l(2) =   0
                l(3) =   1
                l(4) =   1
                l(5) =   2
                l(6) =   2
     Q(r) pseudized with 0 coefficients 


     atomic species   valence    mass     pseudopotential
        K              9.00    39.09830     K ( 1.00)

     48 Sym. Ops., with inversion, found



   Cartesian axes

     site n.     atom                  positions (alat units)
         1           K   tau(   1) = (   0.0000000   0.0000000   0.0000000  )

     number of k points=    29  gaussian smearing, width (Ry)=  0.0100
                       cart. coord. in units 2pi/alat
        k(    1) = (   0.0000000   0.0000000   0.0000000), wk =   0.0039062
        k(    2) = (   0.0000000  -0.1250000   0.1250000), wk =   0.0468750
        k(    3) = (   0.0000000  -0.2500000   0.2500000), wk =   0.0468750
        k(    4) = (   0.0000000  -0.3750000   0.3750000), wk =   0.0468750
        k(    5) = (   0.0000000   0.5000000  -0.5000000), wk =   0.0234375
        k(    6) = (  -0.1250000  -0.1250000   0.2500000), wk =   0.0937500
        k(    7) = (  -0.1250000  -0.2500000   0.3750000), wk =   0.1875000
        k(    8) = (  -0.1250000   0.6250000  -0.5000000), wk =   0.1875000
        k(    9) = (  -0.2500000   0.7500000  -0.5000000), wk =   0.0937500
        k(   10) = (  -0.2500000   0.6250000  -0.3750000), wk =   0.0937500
        k(   11) = (   0.0000000   0.0000000   0.2500000), wk =   0.0234375
        k(   12) = (   0.0000000  -0.1250000   0.3750000), wk =   0.0937500
        k(   13) = (   0.0000000  -0.2500000   0.5000000), wk =   0.0937500
        k(   14) = (   0.0000000   0.6250000  -0.3750000), wk =   0.0468750
        k(   15) = (  -0.1250000  -0.1250000   0.5000000), wk =   0.0937500
        k(   16) = (  -0.1250000   0.7500000  -0.3750000), wk =   0.1875000
        k(   17) = (  -0.2500000   0.2500000   0.2500000), wk =   0.0312500
        k(   18) = (  -0.2500000   0.7500000  -0.2500000), wk =   0.0312500
        k(   19) = (   0.6250000  -0.6250000   0.2500000), wk =   0.0937500
        k(   20) = (   0.5000000  -0.5000000   0.2500000), wk =   0.0468750
        k(   21) = (   0.5000000  -0.6250000   0.3750000), wk =   0.0937500
        k(   22) = (   0.0000000   0.0000000   0.5000000), wk =   0.0234375
        k(   23) = (   0.0000000  -0.1250000   0.6250000), wk =   0.0937500
        k(   24) = (   0.0000000   0.7500000  -0.2500000), wk =   0.0468750
        k(   25) = (  -0.1250000   0.8750000  -0.2500000), wk =   0.0937500
        k(   26) = (   0.5000000  -0.5000000   0.5000000), wk =   0.0078125
        k(   27) = (   0.0000000   0.0000000   0.7500000), wk =   0.0234375
        k(   28) = (   0.0000000   0.8750000  -0.1250000), wk =   0.0468750
        k(   29) = (   0.0000000   0.0000000  -1.0000000), wk =   0.0039062

     Dense  grid:    13451 G-vectors     FFT dimensions: (  36,  36,  36)

     Estimated max dynamical RAM per process >      13.05 MB

     Estimated total dynamical RAM >      65.23 MB

     Check: negative/imaginary core charge=   -0.000007    0.000000

     Initial potential from superposition of free atoms

     starting charge    8.98117, renormalised to    9.00000
     Starting wfcs are    8 randomized atomic wfcs +    1 random wfcs
     Checking if some PAW data can be deallocated... 

     total cpu time spent up to now is        1.1 secs

     Self-consistent Calculation

     iteration #  1     ecut=    35.00 Ry     beta= 0.70
     Davidson diagonalization with overlap
     ethr =  1.00E-02,  avg # of iterations =  6.9

     Threshold (ethr) on eigenvalues was too large:
     Diagonalizing with lowered threshold

     Davidson diagonalization with overlap
     ethr =  1.40E-05,  avg # of iterations =  6.3

     total cpu time spent up to now is        2.7 secs

     total energy              =    -113.00878487 Ry
     Harris-Foulkes estimate   =    -113.00928470 Ry
     estimated scf accuracy    <       0.00126002 Ry

     iteration #  2     ecut=    35.00 Ry     beta= 0.70
     Davidson diagonalization with overlap
     ethr =  1.40E-05,  avg # of iterations =  2.3

     total cpu time spent up to now is        3.3 secs

     total energy              =    -113.00899888 Ry
     Harris-Foulkes estimate   =    -113.00900766 Ry
     estimated scf accuracy    <       0.00009809 Ry

     iteration #  3     ecut=    35.00 Ry     beta= 0.70
     Davidson diagonalization with overlap
     ethr =  1.09E-06,  avg # of iterations =  2.2

     total cpu time spent up to now is        3.9 secs

     total energy              =    -113.00901067 Ry
     Harris-Foulkes estimate   =    -113.00900857 Ry
     estimated scf accuracy    <       0.00000657 Ry

     iteration #  4     ecut=    35.00 Ry     beta= 0.70
     Davidson diagonalization with overlap
     ethr =  7.30E-08,  avg # of iterations =  1.5

     total cpu time spent up to now is        4.4 secs

     total energy              =    -113.00901135 Ry
     Harris-Foulkes estimate   =    -113.00901135 Ry
     estimated scf accuracy    <       0.00000005 Ry

     iteration #  5     ecut=    35.00 Ry     beta= 0.70
     Davidson diagonalization with overlap
     ethr =  6.07E-10,  avg # of iterations =  2.5

     total cpu time spent up to now is        5.0 secs

     End of self-consistent calculation

          k = 0.0000 0.0000 0.0000 (  1721 PWs)   bands (ev):

   -30.1604 -13.6108 -13.6108 -13.6108  -0.2615   6.2645   6.2645   7.1830
     7.1831

          k = 0.0000-0.1250 0.1250 (  1661 PWs)   bands (ev):

   -30.1594 -13.6221 -13.6145 -13.6107  -0.0625   5.9316   6.0276   6.4243
     6.9519

          k = 0.0000-0.2500 0.2500 (  1669 PWs)   bands (ev):

   -30.1577 -13.6494 -13.6236 -13.6107   0.5135   4.9044   5.5850   6.8911
     7.0065

          k = 0.0000-0.3750 0.3750 (  1669 PWs)   bands (ev):

   -30.1560 -13.6762 -13.6327 -13.6107   1.4033   3.7228   5.2441   6.9980
     7.3464

          k = 0.0000 0.5000-0.5000 (  1674 PWs)   bands (ev):

   -30.1553 -13.6872 -13.6364 -13.6107   2.3891   2.6493   5.1214   6.8727
     7.9908

          k =-0.1250-0.1250 0.2500 (  1665 PWs)   bands (ev):

   -30.1582 -13.6408 -13.6188 -13.6134   0.3253   5.3432   5.5711   6.7008
     6.7939

          k =-0.1250-0.2500 0.3750 (  1670 PWs)   bands (ev):

   -30.1565 -13.6649 -13.6297 -13.6145   1.0607   4.3484   5.1176   6.8344
     7.1391

          k =-0.1250 0.6250-0.5000 (  1678 PWs)   bands (ev):

   -30.1553 -13.6811 -13.6385 -13.6147   2.0593   3.2159   4.8796   6.6771
     7.5314

          k =-0.2500 0.7500-0.5000 (  1671 PWs)   bands (ev):

   -30.1553 -13.6731 -13.6427 -13.6186   1.9112   3.8326   4.3661   6.7972
     7.0281

          k =-0.2500 0.6250-0.3750 (  1677 PWs)   bands (ev):

   -30.1548 -13.6728 -13.6524 -13.6196   2.9306   2.9599   4.0528   6.5853
     7.3272

          k = 0.0000 0.0000 0.2500 (  1673 PWs)   bands (ev):

   -30.1588 -13.6249 -13.6184 -13.6184   0.1333   5.9177   5.9177   6.1863
     6.4964

          k = 0.0000-0.1250 0.3750 (  1675 PWs)   bands (ev):

   -30.1571 -13.6485 -13.6276 -13.6197   0.6999   4.9641   5.5818   6.1276
     6.9090

          k = 0.0000-0.2500 0.5000 (  1672 PWs)   bands (ev):

   -30.1554 -13.6737 -13.6369 -13.6192   1.5756   3.8233   5.2880   6.1334
     7.4229

          k = 0.0000 0.6250-0.3750 (  1684 PWs)   bands (ev):

   -30.1548 -13.6841 -13.6407 -13.6189   2.5894   2.7359   5.1789   6.0347
     7.4637

          k =-0.1250-0.1250 0.5000 (  1680 PWs)   bands (ev):

   -30.1555 -13.6644 -13.6389 -13.6245   1.4096   4.3391   5.0560   6.1495
     7.0972

          k =-0.1250 0.7500-0.3750 (  1681 PWs)   bands (ev):

   -30.1544 -13.6762 -13.6492 -13.6249   2.3714   3.4349   4.6250   6.2166
     7.0694

          k =-0.2500 0.2500 0.2500 (  1688 PWs)   bands (ev):

   -30.1571 -13.6608 -13.6199 -13.6199   0.8833   4.8177   4.8177   6.8837
     7.3227

          k =-0.2500 0.7500-0.2500 (  1689 PWs)   bands (ev):

   -30.1540 -13.6664 -13.6664 -13.6260   3.2027   3.2027   3.8056   6.7897
     6.7897

          k = 0.6250-0.6250 0.2500 (  1667 PWs)   bands (ev):

   -30.1557 -13.6728 -13.6341 -13.6210   1.7494   3.8786   4.4959   6.5313
     7.4862

          k = 0.5000-0.5000 0.2500 (  1674 PWs)   bands (ev):

   -30.1552 -13.6755 -13.6422 -13.6214   2.7795   2.8394   4.3884   6.2308
     7.6224

          k = 0.5000-0.6250 0.3750 (  1674 PWs)   bands (ev):

   -30.1551 -13.6665 -13.6464 -13.6282   2.6737   3.5278   3.8489   5.8043
     7.7367

          k = 0.0000 0.0000 0.5000 (  1681 PWs)   bands (ev):

   -30.1556 -13.6504 -13.6374 -13.6374   1.2372   4.8191   5.5072   5.5072
     7.0914

          k = 0.0000-0.1250 0.6250 (  1689 PWs)   bands (ev):

   -30.1541 -13.6678 -13.6471 -13.6393   2.0591   4.0237   5.3781   5.4029
     6.6120

          k = 0.0000 0.7500-0.2500 (  1684 PWs)   bands (ev):

   -30.1535 -13.6765 -13.6511 -13.6384   2.9902   3.1115   5.2008   5.3182
     6.7726

          k =-0.1250 0.8750-0.2500 (  1683 PWs)   bands (ev):

   -30.1531 -13.6704 -13.6599 -13.6422   2.8936   3.6198   4.5731   5.9166
     6.3362

          k = 0.5000-0.5000 0.5000 (  1664 PWs)   bands (ev):

   -30.1550 -13.6480 -13.6480 -13.6480   3.4277   3.4277   3.4277   5.1254
     7.7870

          k = 0.0000 0.0000 0.7500 (  1694 PWs)   bands (ev):

   -30.1528 -13.6637 -13.6573 -13.6573   2.7507   3.9113   5.4394   5.4395
     5.7056

          k = 0.0000 0.8750-0.1250 (  1678 PWs)   bands (ev):

   -30.1521 -13.6689 -13.6615 -13.6578   3.3634   3.5532   5.0975   5.4555
     5.9368

          k = 0.0000 0.0000-1.0000 (  1686 PWs)   bands (ev):

   -30.1516 -13.6658 -13.6658 -13.6658   3.6004   5.5111   5.5111   5.5111
     7.6749

     the Fermi energy is     1.9736 ev

!    total energy              =    -113.00901137 Ry
     Harris-Foulkes estimate   =    -113.00901137 Ry
     estimated scf accuracy    <          2.0E-09 Ry

     total all-electron energy =     -1204.247722 Ry

     The total energy is the sum of the following terms:

     one-electron contribution =     -35.39909975 Ry
     hartree contribution      =      18.87930252 Ry
     xc contribution           =     -11.17029869 Ry
     ewald contribution        =     -29.89633975 Ry
     one-center paw contrib.   =     -55.42181008 Ry
     smearing contrib. (-TS)   =      -0.00076561 Ry

     convergence has been achieved in   5 iterations

     Forces acting on atoms (cartesian axes, Ry/au):

     atom    1 type  1   force =     0.00000000    0.00000000    0.00000000

     Total force =     0.000000     Total SCF correction =     0.000000


     Computing stress (Cartesian axis) and pressure

          total   stress  (Ry/bohr**3)                   (kbar)     P=    1.29
   0.00000876  -0.00000000   0.00000000          1.29     -0.00      0.00
  -0.00000000   0.00000876  -0.00000000         -0.00      1.29     -0.00
   0.00000000  -0.00000000   0.00000876          0.00     -0.00      1.29


     Writing output data file K.save/

     init_run     :      0.40s CPU      0.43s WALL (       1 calls)
     electrons    :      3.68s CPU      3.89s WALL (       1 calls)
     forces       :      0.06s CPU      0.06s WALL (       1 calls)
     stress       :      0.24s CPU      0.24s WALL (       1 calls)

     Called by init_run:
     wfcinit      :      0.14s CPU      0.15s WALL (       1 calls)
     potinit      :      0.09s CPU      0.11s WALL (       1 calls)
     hinit0       :      0.13s CPU      0.13s WALL (       1 calls)

     Called by electrons:
     c_bands      :      2.60s CPU      2.76s WALL (       6 calls)
     sum_band     :      0.52s CPU      0.56s WALL (       6 calls)
     v_of_rho     :      0.05s CPU      0.06s WALL (       6 calls)
     newd         :      0.08s CPU      0.08s WALL (       6 calls)
     PAW_pot      :      0.52s CPU      0.55s WALL (       6 calls)
     mix_rho      :      0.01s CPU      0.01s WALL (       6 calls)

     Called by c_bands:
     init_us_2    :      0.09s CPU      0.10s WALL (     435 calls)
     cegterg      :      2.49s CPU      2.64s WALL (     174 calls)

     Called by sum_band:
     sum_band:bec :      0.00s CPU      0.00s WALL (     174 calls)
     addusdens    :      0.07s CPU      0.08s WALL (       6 calls)

     Called by *egterg:
     h_psi        :      2.04s CPU      2.18s WALL (     834 calls)
     s_psi        :      0.06s CPU      0.06s WALL (     834 calls)
     g_psi        :      0.01s CPU      0.01s WALL (     631 calls)
     cdiaghg      :      0.18s CPU      0.19s WALL (     776 calls)

     Called by h_psi:
     h_psi:pot    :      2.03s CPU      2.17s WALL (     834 calls)
     h_psi:calbec :      0.10s CPU      0.11s WALL (     834 calls)
     vloc_psi     :      1.86s CPU      1.99s WALL (     834 calls)
     add_vuspsi   :      0.06s CPU      0.07s WALL (     834 calls)

     General routines
     calbec       :      0.15s CPU      0.16s WALL (    1153 calls)
     fft          :      0.03s CPU      0.03s WALL (      93 calls)
     ffts         :      0.00s CPU      0.00s WALL (       6 calls)
     fftw         :      2.04s CPU      2.19s WALL (   10792 calls)

     Parallel routines
     fft_scatt_xy :      0.17s CPU      0.18s WALL (   10891 calls)
     fft_scatt_yz :      0.52s CPU      0.56s WALL (   10891 calls)

     PWSCF        :     5.14s CPU         5.46s WALL


   This run was terminated on:   0:24:10   8Apr2024            

=------------------------------------------------------------------------------=
   JOB DONE.
=------------------------------------------------------------------------------=
