
     Program PWSCF v.6.3MaX starts on  8Apr2024 at  0:39:21 

     This program is part of the open-source Quantum ESPRESSO suite
     for quantum simulation of materials; please cite
         "P. Giannozzi et al., J. Phys.:Condens. Matter 21 395502 (2009);
         "P. Giannozzi et al., J. Phys.:Condens. Matter 29 465901 (2017);
          URL http://www.quantum-espresso.org", 
     in publications or presentations arising from this work. More details at
     http://www.quantum-espresso.org/quote

     Parallel version (MPI), running on     5 processors

     MPI processes distributed on     1 nodes
     R & G space division:  proc/nbgrp/npool/nimage =       5
     Waiting for input...
     Reading input from standard input

     Current dimensions of program PWSCF are:
     Max number of different atomic species (ntypx) = 10
     Max number of k-points (npk) =  40000
     Max angular momentum in pseudopotentials (lmaxx) =  3
               file K.pbe-spn-kjpaw_psl.1.0.0.UPF: wavefunction(s)  3S renormalized

     Subspace diagonalization in iterative solution of the eigenvalue problem:
     a serial algorithm will be used


     Parallelization info
     --------------------
     sticks:   dense  smooth     PW     G-vecs:    dense   smooth      PW
     Min         239     239     69                 5244     5244     837
     Max         240     240     69                 5246     5246     838
     Sum        1199    1199    345                26227    26227    4189



     bravais-lattice index     =            3
     lattice parameter (alat)  =       9.8600  a.u.
     unit-cell volume          =     479.2926 (a.u.)^3
     number of atoms/cell      =            1
     number of atomic types    =            1
     number of electrons       =         9.00
     number of Kohn-Sham states=            9
     kinetic-energy cutoff     =      55.0000  Ry
     charge density cutoff     =     220.0000  Ry
     convergence threshold     =      1.0E-08
     mixing beta               =       0.7000
     number of iterations used =            8  plain     mixing
     Exchange-correlation      = SLA PW PBX PBC ( 1  4  3  4 0 0)

     celldm(1)=   9.860000  celldm(2)=   0.000000  celldm(3)=   0.000000
     celldm(4)=   0.000000  celldm(5)=   0.000000  celldm(6)=   0.000000

     crystal axes: (cart. coord. in units of alat)
               a(1) = (   0.500000   0.500000   0.500000 )  
               a(2) = (  -0.500000   0.500000   0.500000 )  
               a(3) = (  -0.500000  -0.500000   0.500000 )  

     reciprocal axes: (cart. coord. in units 2 pi/alat)
               b(1) = (  1.000000  0.000000  1.000000 )  
               b(2) = ( -1.000000  1.000000  0.000000 )  
               b(3) = (  0.000000 -1.000000  1.000000 )  


     PseudoPot. # 1 for K  read from file:
     /home/lorenzo/pseudos/K/K.pbe-spn-kjpaw_psl.1.0.0.UPF
     MD5 check sum: 34cc42130a09071ebe376fd42eb21491
     Pseudo is Projector augmented-wave + core cor, Zval =  9.0
     Generated using "atomic" code by A. Dal Corso v.6.2.2
     Shape of augmentation charge: PSQ
     Using radial grid of 1165 points,  6 beta functions with: 
                l(1) =   0
                l(2) =   0
                l(3) =   1
                l(4) =   1
                l(5) =   2
                l(6) =   2
     Q(r) pseudized with 0 coefficients 


     atomic species   valence    mass     pseudopotential
        K              9.00    39.09830     K ( 1.00)

     48 Sym. Ops., with inversion, found



   Cartesian axes

     site n.     atom                  positions (alat units)
         1           K   tau(   1) = (   0.0000000   0.0000000   0.0000000  )

     number of k points=     8  gaussian smearing, width (Ry)=  0.0100
                       cart. coord. in units 2pi/alat
        k(    1) = (   0.0000000   0.0000000   0.0000000), wk =   0.0312500
        k(    2) = (   0.0000000  -0.2500000   0.2500000), wk =   0.3750000
        k(    3) = (   0.0000000   0.5000000  -0.5000000), wk =   0.1875000
        k(    4) = (  -0.2500000   0.7500000  -0.5000000), wk =   0.7500000
        k(    5) = (   0.0000000   0.0000000   0.5000000), wk =   0.1875000
        k(    6) = (   0.0000000   0.7500000  -0.2500000), wk =   0.3750000
        k(    7) = (   0.5000000  -0.5000000   0.5000000), wk =   0.0625000
        k(    8) = (   0.0000000   0.0000000  -1.0000000), wk =   0.0312500

     Dense  grid:    26227 G-vectors     FFT dimensions: (  45,  45,  45)

     Estimated max dynamical RAM per process >      22.39 MB

     Estimated total dynamical RAM >     111.93 MB

     Check: negative/imaginary core charge=   -0.000002    0.000000

     Initial potential from superposition of free atoms

     starting charge    8.98117, renormalised to    9.00000
     Starting wfcs are    8 randomized atomic wfcs +    1 random wfcs
     Checking if some PAW data can be deallocated... 

     total cpu time spent up to now is        1.2 secs

     Self-consistent Calculation

     iteration #  1     ecut=    55.00 Ry     beta= 0.70
     Davidson diagonalization with overlap
     ethr =  1.00E-02,  avg # of iterations =  7.1

     Threshold (ethr) on eigenvalues was too large:
     Diagonalizing with lowered threshold

     Davidson diagonalization with overlap
     ethr =  1.46E-05,  avg # of iterations =  6.4

     total cpu time spent up to now is        2.3 secs

     total energy              =    -113.00672824 Ry
     Harris-Foulkes estimate   =    -113.00721992 Ry
     estimated scf accuracy    <       0.00125408 Ry

     iteration #  2     ecut=    55.00 Ry     beta= 0.70
     Davidson diagonalization with overlap
     ethr =  1.39E-05,  avg # of iterations =  2.1

     total cpu time spent up to now is        2.8 secs

     total energy              =    -113.00694709 Ry
     Harris-Foulkes estimate   =    -113.00695441 Ry
     estimated scf accuracy    <       0.00010166 Ry

     iteration #  3     ecut=    55.00 Ry     beta= 0.70
     Davidson diagonalization with overlap
     ethr =  1.13E-06,  avg # of iterations =  1.6

     total cpu time spent up to now is        3.2 secs

     total energy              =    -113.00695922 Ry
     Harris-Foulkes estimate   =    -113.00695678 Ry
     estimated scf accuracy    <       0.00000685 Ry

     iteration #  4     ecut=    55.00 Ry     beta= 0.70
     Davidson diagonalization with overlap
     ethr =  7.62E-08,  avg # of iterations =  2.4

     total cpu time spent up to now is        3.6 secs

     total energy              =    -113.00695986 Ry
     Harris-Foulkes estimate   =    -113.00695987 Ry
     estimated scf accuracy    <       0.00000006 Ry

     iteration #  5     ecut=    55.00 Ry     beta= 0.70
     Davidson diagonalization with overlap
     ethr =  6.19E-10,  avg # of iterations =  2.5

     total cpu time spent up to now is        4.0 secs

     End of self-consistent calculation

          k = 0.0000 0.0000 0.0000 (  3319 PWs)   bands (ev):

   -30.1633 -13.6122 -13.6122 -13.6122  -0.2618   6.2644   6.2644   7.1825
     7.1825

          k = 0.0000-0.2500 0.2500 (  3298 PWs)   bands (ev):

   -30.1609 -13.6508 -13.6251 -13.6122   0.5130   4.9036   5.5845   6.8908
     7.0055

          k = 0.0000 0.5000-0.5000 (  3268 PWs)   bands (ev):

   -30.1585 -13.6886 -13.6378 -13.6121   2.3890   2.6481   5.1208   6.8724
     7.7038

          k =-0.2500 0.7500-0.5000 (  3304 PWs)   bands (ev):

   -30.1585 -13.6746 -13.6441 -13.6201   1.9106   3.8316   4.3658   6.7981
     7.0273

          k = 0.0000 0.0000 0.5000 (  3284 PWs)   bands (ev):

   -30.1587 -13.6518 -13.6388 -13.6388   1.2367   4.8177   5.5070   5.5070
     7.0913

          k = 0.0000 0.7500-0.2500 (  3326 PWs)   bands (ev):

   -30.1566 -13.6780 -13.6526 -13.6399   2.9889   3.1110   5.2005   5.3180
     6.7722

          k = 0.5000-0.5000 0.5000 (  3352 PWs)   bands (ev):

   -30.1582 -13.6495 -13.6495 -13.6495   3.4267   3.4267   3.4267   5.1280
     7.7854

          k = 0.0000 0.0000-1.0000 (  3300 PWs)   bands (ev):

   -30.1547 -13.6672 -13.6672 -13.6672   3.5990   3.5990   5.5112   5.5112
     5.5112

     the Fermi energy is     1.9206 ev

!    total energy              =    -113.00695988 Ry
     Harris-Foulkes estimate   =    -113.00695987 Ry
     estimated scf accuracy    <          2.1E-09 Ry

     total all-electron energy =     -1204.245670 Ry

     The total energy is the sum of the following terms:

     one-electron contribution =     -35.39940746 Ry
     hartree contribution      =      18.88109052 Ry
     xc contribution           =     -11.17040749 Ry
     ewald contribution        =     -29.89633976 Ry
     one-center paw contrib.   =     -55.41979153 Ry
     smearing contrib. (-TS)   =      -0.00210416 Ry

     convergence has been achieved in   5 iterations

     Forces acting on atoms (cartesian axes, Ry/au):

     atom    1 type  1   force =     0.00000000    0.00000000    0.00000000

     Total force =     0.000000     Total SCF correction =     0.000000


     Computing stress (Cartesian axis) and pressure

          total   stress  (Ry/bohr**3)                   (kbar)     P=    2.10
   0.00001424  -0.00000000   0.00000000          2.10     -0.00      0.00
  -0.00000000   0.00001424  -0.00000000         -0.00      2.10     -0.00
   0.00000000  -0.00000000   0.00001424          0.00     -0.00      2.10


     Writing output data file K.save/

     init_run     :      0.44s CPU      0.47s WALL (       1 calls)
     electrons    :      2.70s CPU      2.82s WALL (       1 calls)
     forces       :      0.09s CPU      0.09s WALL (       1 calls)
     stress       :      0.29s CPU      0.29s WALL (       1 calls)

     Called by init_run:
     wfcinit      :      0.08s CPU      0.08s WALL (       1 calls)
     potinit      :      0.12s CPU      0.14s WALL (       1 calls)
     hinit0       :      0.18s CPU      0.18s WALL (       1 calls)

     Called by electrons:
     c_bands      :      1.59s CPU      1.66s WALL (       6 calls)
     sum_band     :      0.44s CPU      0.45s WALL (       6 calls)
     v_of_rho     :      0.11s CPU      0.12s WALL (       6 calls)
     newd         :      0.15s CPU      0.16s WALL (       6 calls)
     PAW_pot      :      0.53s CPU      0.56s WALL (       6 calls)
     mix_rho      :      0.01s CPU      0.01s WALL (       6 calls)

     Called by c_bands:
     init_us_2    :      0.05s CPU      0.06s WALL (     120 calls)
     cegterg      :      1.53s CPU      1.60s WALL (      48 calls)

     Called by sum_band:
     sum_band:bec :      0.00s CPU      0.00s WALL (      48 calls)
     addusdens    :      0.14s CPU      0.15s WALL (       6 calls)

     Called by *egterg:
     h_psi        :      1.29s CPU      1.36s WALL (     233 calls)
     s_psi        :      0.03s CPU      0.03s WALL (     233 calls)
     g_psi        :      0.00s CPU      0.00s WALL (     177 calls)
     cdiaghg      :      0.06s CPU      0.06s WALL (     217 calls)

     Called by h_psi:
     h_psi:pot    :      1.29s CPU      1.35s WALL (     233 calls)
     h_psi:calbec :      0.07s CPU      0.08s WALL (     233 calls)
     vloc_psi     :      1.18s CPU      1.24s WALL (     233 calls)
     add_vuspsi   :      0.04s CPU      0.04s WALL (     233 calls)

     General routines
     calbec       :      0.11s CPU      0.11s WALL (     321 calls)
     fft          :      0.07s CPU      0.08s WALL (      93 calls)
     ffts         :      0.00s CPU      0.00s WALL (       6 calls)
     fftw         :      1.30s CPU      1.36s WALL (    2954 calls)

     Parallel routines
     fft_scatt_xy :      0.10s CPU      0.10s WALL (    3053 calls)
     fft_scatt_yz :      0.42s CPU      0.45s WALL (    3053 calls)

     PWSCF        :     4.31s CPU         4.50s WALL


   This run was terminated on:   0:39:25   8Apr2024            

=------------------------------------------------------------------------------=
   JOB DONE.
=------------------------------------------------------------------------------=
