
     Program PWSCF v.6.3MaX starts on  8Apr2024 at  0: 7:22 

     This program is part of the open-source Quantum ESPRESSO suite
     for quantum simulation of materials; please cite
         "P. Giannozzi et al., J. Phys.:Condens. Matter 21 395502 (2009);
         "P. Giannozzi et al., J. Phys.:Condens. Matter 29 465901 (2017);
          URL http://www.quantum-espresso.org", 
     in publications or presentations arising from this work. More details at
     http://www.quantum-espresso.org/quote

     Parallel version (MPI), running on     5 processors

     MPI processes distributed on     1 nodes
     R & G space division:  proc/nbgrp/npool/nimage =       5
     Waiting for input...
     Reading input from standard input

     Current dimensions of program PWSCF are:
     Max number of different atomic species (ntypx) = 10
     Max number of k-points (npk) =  40000
     Max angular momentum in pseudopotentials (lmaxx) =  3
               file K.pz-spn-rrkjus_psl.1.0.0.UPF: wavefunction(s)  3S renormalized

     Subspace diagonalization in iterative solution of the eigenvalue problem:
     a serial algorithm will be used


     Parallelization info
     --------------------
     sticks:   dense  smooth     PW     G-vecs:    dense   smooth      PW
     Min         438     438    123                12915    12915    1919
     Max         439     439    124                12916    12916    1920
     Sum        2191    2191    619                64579    64579    9597



     bravais-lattice index     =            3
     lattice parameter (alat)  =       9.8600  a.u.
     unit-cell volume          =     479.2926 (a.u.)^3
     number of atoms/cell      =            1
     number of atomic types    =            1
     number of electrons       =         9.00
     number of Kohn-Sham states=            9
     kinetic-energy cutoff     =     100.0000  Ry
     charge density cutoff     =     400.0000  Ry
     convergence threshold     =      1.0E-08
     mixing beta               =       0.7000
     number of iterations used =            8  plain     mixing
     Exchange-correlation      = LDA ( 1  1  0  0 0 0)

     celldm(1)=   9.860000  celldm(2)=   0.000000  celldm(3)=   0.000000
     celldm(4)=   0.000000  celldm(5)=   0.000000  celldm(6)=   0.000000

     crystal axes: (cart. coord. in units of alat)
               a(1) = (   0.500000   0.500000   0.500000 )  
               a(2) = (  -0.500000   0.500000   0.500000 )  
               a(3) = (  -0.500000  -0.500000   0.500000 )  

     reciprocal axes: (cart. coord. in units 2 pi/alat)
               b(1) = (  1.000000  0.000000  1.000000 )  
               b(2) = ( -1.000000  1.000000  0.000000 )  
               b(3) = (  0.000000 -1.000000  1.000000 )  


     PseudoPot. # 1 for K  read from file:
     /home/lorenzo/pseudos/K/K.pz-spn-rrkjus_psl.1.0.0.UPF
     MD5 check sum: af434a66a3b91719abff201b8f79bb09
     Pseudo is Ultrasoft + core correction, Zval =  9.0
     Generated using "atomic" code by A. Dal Corso v.6.2.2
     Using radial grid of 1165 points,  6 beta functions with: 
                l(1) =   0
                l(2) =   0
                l(3) =   1
                l(4) =   1
                l(5) =   2
                l(6) =   2
     Q(r) pseudized with 0 coefficients 


     atomic species   valence    mass     pseudopotential
        K              9.00    39.09830     K ( 1.00)

     48 Sym. Ops., with inversion, found



   Cartesian axes

     site n.     atom                  positions (alat units)
         1           K   tau(   1) = (   0.0000000   0.0000000   0.0000000  )

     number of k points=    20  gaussian smearing, width (Ry)=  0.0100
                       cart. coord. in units 2pi/alat
        k(    1) = (   0.0000000   0.0000000   0.0000000), wk =   0.0058309
        k(    2) = (   0.0000000  -0.1428571   0.1428571), wk =   0.0699708
        k(    3) = (   0.0000000  -0.2857143   0.2857143), wk =   0.0699708
        k(    4) = (   0.0000000  -0.4285714   0.4285714), wk =   0.0699708
        k(    5) = (  -0.1428571  -0.1428571   0.2857143), wk =   0.1399417
        k(    6) = (  -0.1428571  -0.2857143   0.4285714), wk =   0.2798834
        k(    7) = (  -0.1428571   0.5714286  -0.4285714), wk =   0.1399417
        k(    8) = (  -0.2857143   0.7142857  -0.4285714), wk =   0.1399417
        k(    9) = (   0.0000000   0.0000000   0.2857143), wk =   0.0349854
        k(   10) = (   0.0000000  -0.1428571   0.4285714), wk =   0.1399417
        k(   11) = (   0.0000000  -0.2857143   0.5714286), wk =   0.1399417
        k(   12) = (  -0.1428571  -0.1428571   0.5714286), wk =   0.1399417
        k(   13) = (  -0.1428571   0.7142857  -0.2857143), wk =   0.1399417
        k(   14) = (  -0.2857143   0.2857143   0.2857143), wk =   0.0466472
        k(   15) = (   0.5714286  -0.5714286   0.2857143), wk =   0.1399417
        k(   16) = (   0.4285714  -0.5714286   0.4285714), wk =   0.0466472
        k(   17) = (   0.0000000   0.0000000   0.5714286), wk =   0.0349854
        k(   18) = (   0.0000000  -0.1428571   0.7142857), wk =   0.1399417
        k(   19) = (  -0.1428571   0.8571429  -0.1428571), wk =   0.0466472
        k(   20) = (   0.0000000   0.0000000   0.8571429), wk =   0.0349854

     Dense  grid:    64579 G-vectors     FFT dimensions: (  60,  60,  60)

     Estimated max dynamical RAM per process >      55.58 MB

     Estimated total dynamical RAM >     277.89 MB

     Check: negative/imaginary core charge=   -0.000001    0.000000

     Initial potential from superposition of free atoms

     starting charge    8.98437, renormalised to    9.00000
     Starting wfcs are    8 randomized atomic wfcs +    1 random wfcs

     total cpu time spent up to now is        1.6 secs

     Self-consistent Calculation

     iteration #  1     ecut=   100.00 Ry     beta= 0.70
     Davidson diagonalization with overlap
     ethr =  1.00E-02,  avg # of iterations =  6.2

     Threshold (ethr) on eigenvalues was too large:
     Diagonalizing with lowered threshold

     Davidson diagonalization with overlap
     ethr =  1.24E-05,  avg # of iterations =  7.7

     total cpu time spent up to now is        6.5 secs

     total energy              =     -58.74337467 Ry
     Harris-Foulkes estimate   =     -58.74394465 Ry
     estimated scf accuracy    <       0.00112452 Ry

     iteration #  2     ecut=   100.00 Ry     beta= 0.70
     Davidson diagonalization with overlap
     ethr =  1.25E-05,  avg # of iterations =  2.2

     total cpu time spent up to now is        8.2 secs

     total energy              =     -58.74357412 Ry
     Harris-Foulkes estimate   =     -58.74359155 Ry
     estimated scf accuracy    <       0.00008983 Ry

     iteration #  3     ecut=   100.00 Ry     beta= 0.70
     Davidson diagonalization with overlap
     ethr =  9.98E-07,  avg # of iterations =  1.6

     total cpu time spent up to now is        9.6 secs

     total energy              =     -58.74358301 Ry
     Harris-Foulkes estimate   =     -58.74358222 Ry
     estimated scf accuracy    <       0.00000570 Ry

     iteration #  4     ecut=   100.00 Ry     beta= 0.70
     Davidson diagonalization with overlap
     ethr =  6.33E-08,  avg # of iterations =  1.6

     total cpu time spent up to now is       11.0 secs

     total energy              =     -58.74358355 Ry
     Harris-Foulkes estimate   =     -58.74358354 Ry
     estimated scf accuracy    <       0.00000003 Ry

     iteration #  5     ecut=   100.00 Ry     beta= 0.70
     Davidson diagonalization with overlap
     ethr =  3.81E-10,  avg # of iterations =  2.1

     total cpu time spent up to now is       12.5 secs

     End of self-consistent calculation

          k = 0.0000 0.0000 0.0000 (  8151 PWs)   bands (ev):

   -30.0990 -13.7371 -13.7371 -13.7371  -0.4766   5.9289   5.9289   5.9289
     6.8742

          k = 0.0000-0.1429 0.1429 (  8108 PWs)   bands (ev):

   -30.0981 -13.7524 -13.7422 -13.7371  -0.2159   5.5207   5.6496   6.1378
     6.6334

          k = 0.0000-0.2857 0.2857 (  8116 PWs)   bands (ev):

   -30.0959 -13.7862 -13.7535 -13.7371   0.5292   4.3397   5.1732   6.7073
     6.7452

          k = 0.0000-0.4286 0.4286 (  8082 PWs)   bands (ev):

   -30.0941 -13.8130 -13.7626 -13.7370   1.6416   3.0141   4.8747   6.5862
     7.2081

          k =-0.1429-0.1429 0.2857 (  8093 PWs)   bands (ev):

   -30.0965 -13.7756 -13.7482 -13.7407   0.2878   4.8542   5.1285   6.4791
     6.4915

          k =-0.1429-0.2857 0.4286 (  8110 PWs)   bands (ev):

   -30.0945 -13.8010 -13.7618 -13.7420   1.2254   3.7516   4.6631   6.4852
     6.9118

          k =-0.1429 0.5714-0.4286 (  8098 PWs)   bands (ev):

   -30.0936 -13.8117 -13.7687 -13.7422   2.3448   2.5748   4.5030   6.2761
     7.3922

          k =-0.2857 0.7143-0.4286 (  8089 PWs)   bands (ev):

   -30.0934 -13.8010 -13.7797 -13.7465   2.2791   3.3122   3.7292   6.3040
     6.8378

          k = 0.0000 0.0000 0.2857 (  8099 PWs)   bands (ev):

   -30.0971 -13.7557 -13.7474 -13.7474   0.0394   5.5425   5.5425   5.7325
     6.2278

          k = 0.0000-0.1429 0.4286 (  8108 PWs)   bands (ev):

   -30.0950 -13.7844 -13.7591 -13.7489   0.7693   4.4289   5.2009   5.7486
     6.7590

          k = 0.0000-0.2857 0.5714 (  8067 PWs)   bands (ev):

   -30.0933 -13.8091 -13.7684 -13.7482   1.8632   3.1601   4.9524   5.6621
     7.0169

          k =-0.1429-0.1429 0.5714 (  8075 PWs)   bands (ev):

   -30.0932 -13.7988 -13.7740 -13.7542   1.6634   3.8101   4.5308   5.8825
     6.5718

          k =-0.1429 0.7143-0.2857 (  8080 PWs)   bands (ev):

   -30.0924 -13.8045 -13.7833 -13.7545   2.7952   2.8291   4.1257   5.9590
     6.7004

          k =-0.2857 0.2857 0.2857 (  8112 PWs)   bands (ev):

   -30.0950 -13.7958 -13.7499 -13.7499   1.0034   4.3125   4.3125   6.4680
     7.0934

          k = 0.5714-0.5714 0.2857 (  8098 PWs)   bands (ev):

   -30.0939 -13.8016 -13.7676 -13.7513   2.0818   3.2879   4.0410   5.8020
     7.2469

          k = 0.4286-0.5714 0.4286 (  8088 PWs)   bands (ev):

   -30.0936 -13.7842 -13.7842 -13.7589   3.0624   3.0624   3.3591   5.1831
     7.3709

          k = 0.0000 0.0000 0.5714 (  8088 PWs)   bands (ev):

   -30.0931 -13.7842 -13.7714 -13.7714   1.4482   4.2915   5.1884   5.1884
     6.3002

          k = 0.0000-0.1429 0.7143 (  8084 PWs)   bands (ev):

   -30.0916 -13.8003 -13.7813 -13.7728   2.4384   3.5005   4.9074   5.1209
     6.1346

          k =-0.1429 0.8571-0.1429 (  8088 PWs)   bands (ev):

   -30.0909 -13.7956 -13.7956 -13.7754   3.2014   3.2014   4.2459   5.7754
     5.7754

          k = 0.0000 0.0000 0.8571 (  8088 PWs)   bands (ev):

   -30.0902 -13.7941 -13.7916 -13.7916   3.1094   3.5015   5.2232   5.2447
     5.2447

     the Fermi energy is     1.7335 ev

!    total energy              =     -58.74358356 Ry
     Harris-Foulkes estimate   =     -58.74358356 Ry
     estimated scf accuracy    <          5.0E-10 Ry

     The total energy is the sum of the following terms:

     one-electron contribution =     -36.65540272 Ry
     hartree contribution      =      18.82557295 Ry
     xc contribution           =     -11.01682538 Ry
     ewald contribution        =     -29.89633970 Ry
     smearing contrib. (-TS)   =      -0.00058871 Ry

     convergence has been achieved in   5 iterations

     Forces acting on atoms (cartesian axes, Ry/au):

     atom    1 type  1   force =     0.00000000    0.00000000    0.00000000

     Total force =     0.000000     Total SCF correction =     0.000000


     Computing stress (Cartesian axis) and pressure

          total   stress  (Ry/bohr**3)                   (kbar)     P=   -3.90
  -0.00002651  -0.00000000   0.00000000         -3.90     -0.00      0.00
  -0.00000000  -0.00002651  -0.00000000         -0.00     -3.90     -0.00
   0.00000000  -0.00000000  -0.00002651          0.00     -0.00     -3.90


     Writing output data file K.save/

     init_run     :      0.87s CPU      0.91s WALL (       1 calls)
     electrons    :     10.52s CPU     10.94s WALL (       1 calls)
     forces       :      0.20s CPU      0.22s WALL (       1 calls)
     stress       :      0.79s CPU      0.83s WALL (       1 calls)

     Called by init_run:
     wfcinit      :      0.42s CPU      0.44s WALL (       1 calls)
     potinit      :      0.02s CPU      0.03s WALL (       1 calls)
     hinit0       :      0.26s CPU      0.26s WALL (       1 calls)

     Called by electrons:
     c_bands      :      8.27s CPU      8.54s WALL (       6 calls)
     sum_band     :      1.87s CPU      1.95s WALL (       6 calls)
     v_of_rho     :      0.05s CPU      0.06s WALL (       6 calls)
     newd         :      0.36s CPU      0.43s WALL (       6 calls)
     mix_rho      :      0.02s CPU      0.02s WALL (       6 calls)

     Called by c_bands:
     init_us_2    :      0.30s CPU      0.31s WALL (     300 calls)
     cegterg      :      7.93s CPU      8.19s WALL (     120 calls)

     Called by sum_band:
     sum_band:bec :      0.00s CPU      0.00s WALL (     120 calls)
     addusdens    :      0.36s CPU      0.41s WALL (       6 calls)

     Called by *egterg:
     h_psi        :      6.83s CPU      7.09s WALL (     567 calls)
     s_psi        :      0.18s CPU      0.19s WALL (     567 calls)
     g_psi        :      0.02s CPU      0.02s WALL (     427 calls)
     cdiaghg      :      0.15s CPU      0.16s WALL (     527 calls)

     Called by h_psi:
     h_psi:pot    :      6.79s CPU      7.05s WALL (     567 calls)
     h_psi:calbec :      0.35s CPU      0.36s WALL (     567 calls)
     vloc_psi     :      6.22s CPU      6.47s WALL (     567 calls)
     add_vuspsi   :      0.22s CPU      0.22s WALL (     567 calls)

     General routines
     calbec       :      0.56s CPU      0.58s WALL (     787 calls)
     fft          :      0.06s CPU      0.06s WALL (      34 calls)
     ffts         :      0.01s CPU      0.01s WALL (       6 calls)
     fftw         :      6.61s CPU      6.87s WALL (    7386 calls)

     Parallel routines
     fft_scatt_xy :      0.57s CPU      0.60s WALL (    7426 calls)
     fft_scatt_yz :      1.43s CPU      1.50s WALL (    7426 calls)

     PWSCF        :    13.12s CPU        13.73s WALL


   This run was terminated on:   0: 7:35   8Apr2024            

=------------------------------------------------------------------------------=
   JOB DONE.
=------------------------------------------------------------------------------=
