
     Program PWSCF v.6.3MaX starts on  8Apr2024 at  1:16: 4 

     This program is part of the open-source Quantum ESPRESSO suite
     for quantum simulation of materials; please cite
         "P. Giannozzi et al., J. Phys.:Condens. Matter 21 395502 (2009);
         "P. Giannozzi et al., J. Phys.:Condens. Matter 29 465901 (2017);
          URL http://www.quantum-espresso.org", 
     in publications or presentations arising from this work. More details at
     http://www.quantum-espresso.org/quote

     Parallel version (MPI), running on     5 processors

     MPI processes distributed on     1 nodes
     R & G space division:  proc/nbgrp/npool/nimage =       5
     Waiting for input...
     Reading input from standard input

     Current dimensions of program PWSCF are:
     Max number of different atomic species (ntypx) = 10
     Max number of k-points (npk) =  40000
     Max angular momentum in pseudopotentials (lmaxx) =  3
               file K.pbe-spn-kjpaw_psl.1.0.0.UPF: wavefunction(s)  3S renormalized

     Subspace diagonalization in iterative solution of the eigenvalue problem:
     a serial algorithm will be used


     Parallelization info
     --------------------
     sticks:   dense  smooth     PW     G-vecs:    dense   smooth      PW
     Min         369     369    107                10119    10119    1560
     Max         370     370    107                10120    10120    1561
     Sum        1849    1849    535                50597    50597    7803



     bravais-lattice index     =            3
     lattice parameter (alat)  =       9.8600  a.u.
     unit-cell volume          =     479.2926 (a.u.)^3
     number of atoms/cell      =            1
     number of atomic types    =            1
     number of electrons       =         9.00
     number of Kohn-Sham states=            9
     kinetic-energy cutoff     =      85.0000  Ry
     charge density cutoff     =     340.0000  Ry
     convergence threshold     =      1.0E-08
     mixing beta               =       0.7000
     number of iterations used =            8  plain     mixing
     Exchange-correlation      = SLA PW PBX PBC ( 1  4  3  4 0 0)

     celldm(1)=   9.860000  celldm(2)=   0.000000  celldm(3)=   0.000000
     celldm(4)=   0.000000  celldm(5)=   0.000000  celldm(6)=   0.000000

     crystal axes: (cart. coord. in units of alat)
               a(1) = (   0.500000   0.500000   0.500000 )  
               a(2) = (  -0.500000   0.500000   0.500000 )  
               a(3) = (  -0.500000  -0.500000   0.500000 )  

     reciprocal axes: (cart. coord. in units 2 pi/alat)
               b(1) = (  1.000000  0.000000  1.000000 )  
               b(2) = ( -1.000000  1.000000  0.000000 )  
               b(3) = (  0.000000 -1.000000  1.000000 )  


     PseudoPot. # 1 for K  read from file:
     /home/lorenzo/pseudos/K/K.pbe-spn-kjpaw_psl.1.0.0.UPF
     MD5 check sum: 34cc42130a09071ebe376fd42eb21491
     Pseudo is Projector augmented-wave + core cor, Zval =  9.0
     Generated using "atomic" code by A. Dal Corso v.6.2.2
     Shape of augmentation charge: PSQ
     Using radial grid of 1165 points,  6 beta functions with: 
                l(1) =   0
                l(2) =   0
                l(3) =   1
                l(4) =   1
                l(5) =   2
                l(6) =   2
     Q(r) pseudized with 0 coefficients 


     atomic species   valence    mass     pseudopotential
        K              9.00    39.09830     K ( 1.00)

     48 Sym. Ops., with inversion, found



   Cartesian axes

     site n.     atom                  positions (alat units)
         1           K   tau(   1) = (   0.0000000   0.0000000   0.0000000  )

     number of k points=    56  gaussian smearing, width (Ry)=  0.0100
                       cart. coord. in units 2pi/alat
        k(    1) = (   0.0000000   0.0000000   0.0000000), wk =   0.0015026
        k(    2) = (   0.0000000  -0.0909091   0.0909091), wk =   0.0180316
        k(    3) = (   0.0000000  -0.1818182   0.1818182), wk =   0.0180316
        k(    4) = (   0.0000000  -0.2727273   0.2727273), wk =   0.0180316
        k(    5) = (   0.0000000  -0.3636364   0.3636364), wk =   0.0180316
        k(    6) = (   0.0000000  -0.4545455   0.4545455), wk =   0.0180316
        k(    7) = (  -0.0909091  -0.0909091   0.1818182), wk =   0.0360631
        k(    8) = (  -0.0909091  -0.1818182   0.2727273), wk =   0.0721262
        k(    9) = (  -0.0909091  -0.2727273   0.3636364), wk =   0.0721262
        k(   10) = (  -0.0909091  -0.3636364   0.4545455), wk =   0.0721262
        k(   11) = (  -0.0909091   0.5454545  -0.4545455), wk =   0.0360631
        k(   12) = (  -0.1818182  -0.1818182   0.3636364), wk =   0.0360631
        k(   13) = (  -0.1818182  -0.2727273   0.4545455), wk =   0.0721262
        k(   14) = (  -0.1818182   0.6363636  -0.4545455), wk =   0.0721262
        k(   15) = (  -0.2727273   0.7272727  -0.4545455), wk =   0.0360631
        k(   16) = (  -0.2727273   0.6363636  -0.3636364), wk =   0.0360631
        k(   17) = (   0.0000000   0.0000000   0.1818182), wk =   0.0090158
        k(   18) = (   0.0000000  -0.0909091   0.2727273), wk =   0.0360631
        k(   19) = (   0.0000000  -0.1818182   0.3636364), wk =   0.0360631
        k(   20) = (   0.0000000  -0.2727273   0.4545455), wk =   0.0360631
        k(   21) = (   0.0000000  -0.3636364   0.5454545), wk =   0.0360631
        k(   22) = (  -0.0909091  -0.0909091   0.3636364), wk =   0.0360631
        k(   23) = (  -0.0909091  -0.1818182   0.4545455), wk =   0.0721262
        k(   24) = (  -0.0909091  -0.2727273   0.5454545), wk =   0.0721262
        k(   25) = (  -0.0909091   0.6363636  -0.3636364), wk =   0.0360631
        k(   26) = (  -0.1818182   0.1818182   0.1818182), wk =   0.0120210
        k(   27) = (  -0.1818182  -0.1818182   0.5454545), wk =   0.0360631
        k(   28) = (  -0.1818182   0.7272727  -0.3636364), wk =   0.0721262
        k(   29) = (  -0.2727273   0.2727273   0.1818182), wk =   0.0360631
        k(   30) = (  -0.2727273   0.7272727  -0.2727273), wk =   0.0120210
        k(   31) = (  -0.3636364   0.3636364   0.1818182), wk =   0.0360631
        k(   32) = (  -0.3636364   0.2727273   0.2727273), wk =   0.0360631
        k(   33) = (   0.5454545  -0.5454545   0.1818182), wk =   0.0360631
        k(   34) = (   0.5454545  -0.6363636   0.2727273), wk =   0.0721262
        k(   35) = (   0.4545455  -0.5454545   0.2727273), wk =   0.0360631
        k(   36) = (   0.4545455  -0.6363636   0.3636364), wk =   0.0360631
        k(   37) = (   0.0000000   0.0000000   0.3636364), wk =   0.0090158
        k(   38) = (   0.0000000  -0.0909091   0.4545455), wk =   0.0360631
        k(   39) = (   0.0000000  -0.1818182   0.5454545), wk =   0.0360631
        k(   40) = (   0.0000000  -0.2727273   0.6363636), wk =   0.0360631
        k(   41) = (  -0.0909091  -0.0909091   0.5454545), wk =   0.0360631
        k(   42) = (  -0.0909091  -0.1818182   0.6363636), wk =   0.0721262
        k(   43) = (  -0.0909091   0.7272727  -0.2727273), wk =   0.0360631
        k(   44) = (  -0.1818182   0.8181818  -0.2727273), wk =   0.0360631
        k(   45) = (   0.6363636  -0.6363636   0.3636364), wk =   0.0120210
        k(   46) = (   0.5454545  -0.5454545   0.3636364), wk =   0.0360631
        k(   47) = (   0.4545455  -0.5454545   0.4545455), wk =   0.0120210
        k(   48) = (   0.0000000   0.0000000   0.5454545), wk =   0.0090158
        k(   49) = (   0.0000000  -0.0909091   0.6363636), wk =   0.0360631
        k(   50) = (   0.0000000  -0.1818182   0.7272727), wk =   0.0360631
        k(   51) = (  -0.0909091  -0.0909091   0.7272727), wk =   0.0360631
        k(   52) = (  -0.0909091   0.8181818  -0.1818182), wk =   0.0360631
        k(   53) = (   0.0000000   0.0000000   0.7272727), wk =   0.0090158
        k(   54) = (   0.0000000  -0.0909091   0.8181818), wk =   0.0360631
        k(   55) = (  -0.0909091   0.9090909  -0.0909091), wk =   0.0120210
        k(   56) = (   0.0000000   0.0000000   0.9090909), wk =   0.0090158

     Dense  grid:    50597 G-vectors     FFT dimensions: (  54,  54,  54)

     Estimated max dynamical RAM per process >      50.04 MB

     Estimated total dynamical RAM >     250.22 MB

     Check: negative/imaginary core charge=   -0.000001    0.000000

     Initial potential from superposition of free atoms

     starting charge    8.98117, renormalised to    9.00000
     Starting wfcs are    8 randomized atomic wfcs +    1 random wfcs
     Checking if some PAW data can be deallocated... 

     total cpu time spent up to now is        2.5 secs

     Self-consistent Calculation

     iteration #  1     ecut=    85.00 Ry     beta= 0.70
     Davidson diagonalization with overlap
     ethr =  1.00E-02,  avg # of iterations =  6.6

     Threshold (ethr) on eigenvalues was too large:
     Diagonalizing with lowered threshold

     Davidson diagonalization with overlap
     ethr =  1.41E-05,  avg # of iterations =  6.6

     total cpu time spent up to now is       13.2 secs

     total energy              =    -113.01120042 Ry
     Harris-Foulkes estimate   =    -113.01172144 Ry
     estimated scf accuracy    <       0.00125832 Ry

     iteration #  2     ecut=    85.00 Ry     beta= 0.70
     Davidson diagonalization with overlap
     ethr =  1.40E-05,  avg # of iterations =  2.2

     total cpu time spent up to now is       17.3 secs

     total energy              =    -113.01142319 Ry
     Harris-Foulkes estimate   =    -113.01143321 Ry
     estimated scf accuracy    <       0.00010144 Ry

     iteration #  3     ecut=    85.00 Ry     beta= 0.70
     Davidson diagonalization with overlap
     ethr =  1.13E-06,  avg # of iterations =  2.1

     total cpu time spent up to now is       20.6 secs

     total energy              =    -113.01143520 Ry
     Harris-Foulkes estimate   =    -113.01143298 Ry
     estimated scf accuracy    <       0.00000690 Ry

     iteration #  4     ecut=    85.00 Ry     beta= 0.70
     Davidson diagonalization with overlap
     ethr =  7.67E-08,  avg # of iterations =  1.7

     total cpu time spent up to now is       23.5 secs

     total energy              =    -113.01143596 Ry
     Harris-Foulkes estimate   =    -113.01143597 Ry
     estimated scf accuracy    <       0.00000005 Ry

     iteration #  5     ecut=    85.00 Ry     beta= 0.70
     Davidson diagonalization with overlap
     ethr =  5.97E-10,  avg # of iterations =  2.7

     total cpu time spent up to now is       27.0 secs

     End of self-consistent calculation

          k = 0.0000 0.0000 0.0000 (  6363 PWs)   bands (ev):

   -30.1658 -13.6139 -13.6139 -13.6139  -0.2616   6.2632   6.2632   7.1811
     7.1813

          k = 0.0000-0.0909 0.0909 (  6383 PWs)   bands (ev):

   -30.1654 -13.6201 -13.6160 -13.6139  -0.1560   6.1054   6.1290   6.3477
     7.0065

          k = 0.0000-0.1818 0.1818 (  6357 PWs)   bands (ev):

   -30.1644 -13.6366 -13.6215 -13.6139   0.1552   5.5091   5.8264   6.5981
     6.9428

          k = 0.0000-0.2727 0.2727 (  6370 PWs)   bands (ev):

   -30.1630 -13.6580 -13.6286 -13.6139   0.6542   4.6922   5.5089   7.0053
     7.0233

          k = 0.0000-0.3636 0.3636 (  6356 PWs)   bands (ev):

   -30.1618 -13.6774 -13.6352 -13.6139   1.3116   3.8307   5.2657   7.0093
     7.3154

          k = 0.0000-0.4545 0.4545 (  6316 PWs)   bands (ev):

   -30.1610 -13.6888 -13.6391 -13.6139   2.0793   2.9695   5.1366   6.8934
     7.5948

          k =-0.0909-0.0909 0.1818 (  6365 PWs)   bands (ev):

   -30.1647 -13.6315 -13.6182 -13.6154   0.0525   5.7671   5.8615   6.5069
     6.8342

          k =-0.0909-0.1818 0.2727 (  6367 PWs)   bands (ev):

   -30.1635 -13.6496 -13.6247 -13.6160   0.4579   5.0936   5.5119   6.7958
     6.8301

          k =-0.0909-0.2727 0.3636 (  6367 PWs)   bands (ev):

   -30.1622 -13.6686 -13.6327 -13.6162   1.0374   4.2846   5.2268   6.8602
     7.2081

          k =-0.0909-0.3636 0.4545 (  6335 PWs)   bands (ev):

   -30.1612 -13.6830 -13.6389 -13.6162   1.7552   3.4395   5.0432   6.7799
     7.5111

          k =-0.0909 0.5455-0.4545 (  6318 PWs)   bands (ev):

   -30.1608 -13.6883 -13.6413 -13.6163   2.4699   2.6850   4.9800   6.6992
     8.0126

          k =-0.1818-0.1818 0.3636 (  6342 PWs)   bands (ev):

   -30.1624 -13.6641 -13.6311 -13.6190   0.9447   4.6007   5.0471   6.8423
     6.9953

          k =-0.1818-0.2727 0.4545 (  6353 PWs)   bands (ev):

   -30.1613 -13.6756 -13.6402 -13.6202   1.5879   3.9404   4.7128   6.8055
     7.1246

          k =-0.1818 0.6364-0.4545 (  6323 PWs)   bands (ev):

   -30.1607 -13.6817 -13.6466 -13.6206   2.3439   3.1596   4.5540   6.6061
     7.4094

          k =-0.2727 0.7273-0.4545 (  6332 PWs)   bands (ev):

   -30.1606 -13.6762 -13.6514 -13.6225   2.2705   3.6178   4.1194   6.6915
     7.1072

          k =-0.2727 0.6364-0.3636 (  6324 PWs)   bands (ev):

   -30.1604 -13.6736 -13.6586 -13.6232   2.9847   3.0510   3.8829   6.5916
     7.2992

          k = 0.0000 0.0000 0.1818 (  6395 PWs)   bands (ev):

   -30.1650 -13.6219 -13.6181 -13.6181  -0.0512   6.0547   6.0547   6.3867
     6.5728

          k = 0.0000-0.0909 0.2727 (  6359 PWs)   bands (ev):

   -30.1640 -13.6367 -13.6236 -13.6190   0.2573   5.5412   5.8040   6.3585
     6.6108

          k = 0.0000-0.1818 0.3636 (  6357 PWs)   bands (ev):

   -30.1627 -13.6573 -13.6308 -13.6188   0.7521   4.7296   5.5155   6.4028
     7.0071

          k = 0.0000-0.2727 0.4545 (  6338 PWs)   bands (ev):

   -30.1615 -13.6761 -13.6375 -13.6185   1.4042   3.8833   5.2887   6.4113
     7.5134

          k = 0.0000-0.3636 0.5455 (  6319 PWs)   bands (ev):

   -30.1607 -13.6872 -13.6414 -13.6183   2.1687   3.0322   5.1671   6.3360
     7.5523

          k =-0.0909-0.0909 0.3636 (  6354 PWs)   bands (ev):

   -30.1629 -13.6506 -13.6298 -13.6225   0.6556   5.0509   5.4865   6.2357
     6.8661

          k =-0.0909-0.1818 0.4545 (  6341 PWs)   bands (ev):

   -30.1616 -13.6674 -13.6379 -13.6232   1.2249   4.3442   5.1717   6.2994
     7.1839

          k =-0.0909-0.2727 0.5455 (  6323 PWs)   bands (ev):

   -30.1606 -13.6803 -13.6444 -13.6231   1.9305   3.5525   4.9658   6.2594
     7.3008

          k =-0.0909 0.6364-0.3636 (  6332 PWs)   bands (ev):

   -30.1603 -13.6851 -13.6469 -13.6230   2.6778   2.7771   4.8927   6.1976
     7.4180

          k =-0.1818 0.1818 0.1818 (  6351 PWs)   bands (ev):

   -30.1638 -13.6471 -13.6185 -13.6185   0.3581   5.3656   5.3656   6.7252
     7.1431

          k =-0.1818-0.1818 0.5455 (  6344 PWs)   bands (ev):

   -30.1606 -13.6750 -13.6481 -13.6252   1.8489   3.9347   4.6133   6.4836
     6.9770

          k =-0.1818 0.7273-0.3636 (  6331 PWs)   bands (ev):

   -30.1600 -13.6780 -13.6562 -13.6257   2.5794   3.3349   4.2708   6.5317
     7.0887

          k =-0.2727 0.2727 0.1818 (  6357 PWs)   bands (ev):

   -30.1626 -13.6632 -13.6267 -13.6190   0.8495   4.6802   5.0336   6.9232
     7.2155

          k =-0.2727 0.7273-0.2727 (  6335 PWs)   bands (ev):

   -30.1598 -13.6690 -13.6690 -13.6262   3.1790   3.1790   3.7138   6.9512
     7.1657

          k =-0.3636 0.3636 0.1818 (  6351 PWs)   bands (ev):

   -30.1616 -13.6761 -13.6360 -13.6194   1.4983   3.9105   4.8036   6.8407
     7.4215

          k =-0.3636 0.2727 0.2727 (  6350 PWs)   bands (ev):

   -30.1617 -13.6727 -13.6328 -13.6235   1.4113   4.2626   4.5527   6.7293
     7.3321

          k = 0.5455-0.5455 0.1818 (  6338 PWs)   bands (ev):

   -30.1609 -13.6831 -13.6421 -13.6196   2.2596   3.0964   4.6865   6.6194
     7.6521

          k = 0.5455-0.6364 0.2727 (  6344 PWs)   bands (ev):

   -30.1610 -13.6762 -13.6429 -13.6252   2.1077   3.6370   4.3021   6.3390
     7.4685

          k = 0.4545-0.5455 0.2727 (  6357 PWs)   bands (ev):

   -30.1607 -13.6762 -13.6482 -13.6256   2.8719   2.8873   4.2299   6.1659
     7.5735

          k = 0.4545-0.6364 0.3636 (  6329 PWs)   bands (ev):

   -30.1607 -13.6692 -13.6545 -13.6283   2.8077   3.4067   3.7649   5.9742
     7.5553

          k = 0.0000 0.0000 0.3636 (  6347 PWs)   bands (ev):

   -30.1630 -13.6401 -13.6293 -13.6293   0.5578   5.5268   5.6950   5.6950
     6.7412

          k = 0.0000-0.0909 0.4545 (  6358 PWs)   bands (ev):

   -30.1618 -13.6558 -13.6368 -13.6314   1.0393   4.7925   5.5125   5.7569
     7.0657

          k = 0.0000-0.1818 0.5455 (  6341 PWs)   bands (ev):

   -30.1606 -13.6726 -13.6436 -13.6308   1.6730   4.0175   5.3441   5.7433
     7.1234

          k = 0.0000-0.2727 0.6364 (  6328 PWs)   bands (ev):

   -30.1599 -13.6827 -13.6477 -13.6302   2.4175   3.2187   5.2482   5.6212
     7.1664

          k =-0.0909-0.0909 0.5455 (  6349 PWs)   bands (ev):

   -30.1606 -13.6663 -13.6455 -13.6350   1.5857   4.3333   5.1595   5.8390
     6.9178

          k =-0.0909-0.1818 0.6364 (  6338 PWs)   bands (ev):

   -30.1597 -13.6760 -13.6530 -13.6350   2.2583   3.7291   4.8162   5.9233
     6.8014

          k =-0.0909 0.7273-0.2727 (  6320 PWs)   bands (ev):

   -30.1594 -13.6797 -13.6558 -13.6349   2.9591   3.0478   4.6890   5.9016
     6.9199

          k =-0.1818 0.8182-0.2727 (  6325 PWs)   bands (ev):

   -30.1591 -13.6742 -13.6641 -13.6357   2.9160   3.4617   4.1849   6.3116
     6.6328

          k = 0.6364-0.6364 0.3636 (  6377 PWs)   bands (ev):

   -30.1611 -13.6739 -13.6344 -13.6344   2.0271   4.0398   4.0398   6.1004
     7.6290

          k = 0.5455-0.5455 0.3636 (  6350 PWs)   bands (ev):

   -30.1608 -13.6689 -13.6466 -13.6353   2.7358   3.4458   3.9297   5.6271
     7.6852

          k = 0.4545-0.5455 0.4545 (  6341 PWs)   bands (ev):

   -30.1607 -13.6564 -13.6564 -13.6404   3.3023   3.3023   3.5909   5.3025
     7.7591

          k = 0.0000 0.0000 0.5455 (  6342 PWs)   bands (ev):

   -30.1606 -13.6572 -13.6445 -13.6445   1.4965   4.6117   5.4685   5.4685
     6.7824

          k = 0.0000-0.0909 0.6364 (  6326 PWs)   bands (ev):

   -30.1595 -13.6683 -13.6516 -13.6466   2.0914   4.1100   5.3776   5.4003
     6.4285

          k = 0.0000-0.1818 0.7273 (  6326 PWs)   bands (ev):

   -30.1588 -13.6769 -13.6558 -13.6457   2.7708   3.4900   5.1501   5.3522
     6.5694

          k =-0.0909-0.0909 0.7273 (  6348 PWs)   bands (ev):

   -30.1587 -13.6723 -13.6604 -13.6488   2.6929   3.7866   4.8642   5.7152
     6.2290

          k =-0.0909 0.8182-0.1818 (  6338 PWs)   bands (ev):

   -30.1583 -13.6739 -13.6645 -13.6486   3.2171   3.4086   4.6059   5.8130
     6.2980

          k = 0.0000 0.0000 0.7273 (  6350 PWs)   bands (ev):

   -30.1585 -13.6663 -13.6590 -13.6590   2.6137   3.9688   5.4333   5.4333
     5.7866

          k = 0.0000-0.0909 0.8182 (  6354 PWs)   bands (ev):

   -30.1579 -13.6716 -13.6633 -13.6598   3.1562   3.6661   5.1344   5.4442
     5.9376

          k =-0.0909 0.9091-0.0909 (  6344 PWs)   bands (ev):

   -30.1576 -13.6694 -13.6694 -13.6608   3.4973   3.4973   4.9777   5.7413
     5.7413

          k = 0.0000 0.0000 0.9091 (  6330 PWs)   bands (ev):

   -30.1573 -13.6688 -13.6677 -13.6677   3.4781   3.6406   5.4819   5.4966
     5.4966

     the Fermi energy is     1.9689 ev

!    total energy              =    -113.01143598 Ry
     Harris-Foulkes estimate   =    -113.01143598 Ry
     estimated scf accuracy    <          2.6E-09 Ry

     total all-electron energy =     -1204.250146 Ry

     The total energy is the sum of the following terms:

     one-electron contribution =     -35.40546832 Ry
     hartree contribution      =      18.88023405 Ry
     xc contribution           =     -11.16978899 Ry
     ewald contribution        =     -29.89633970 Ry
     one-center paw contrib.   =     -55.41963257 Ry
     smearing contrib. (-TS)   =      -0.00044046 Ry

     convergence has been achieved in   5 iterations

     Forces acting on atoms (cartesian axes, Ry/au):

     atom    1 type  1   force =     0.00000000    0.00000000    0.00000000

     Total force =     0.000000     Total SCF correction =     0.000000


     Computing stress (Cartesian axis) and pressure

          total   stress  (Ry/bohr**3)                   (kbar)     P=    1.30
   0.00000881   0.00000000  -0.00000000          1.30      0.00     -0.00
   0.00000000   0.00000881   0.00000000          0.00      1.30      0.00
  -0.00000000   0.00000000   0.00000881         -0.00      0.00      1.30


     Writing output data file K.save/

     init_run     :      1.58s CPU      1.66s WALL (       1 calls)
     electrons    :     23.73s CPU     24.55s WALL (       1 calls)
     forces       :      0.40s CPU      0.40s WALL (       1 calls)
     stress       :      1.33s CPU      1.34s WALL (       1 calls)

     Called by init_run:
     wfcinit      :      1.08s CPU      1.13s WALL (       1 calls)
     potinit      :      0.14s CPU      0.16s WALL (       1 calls)
     hinit0       :      0.23s CPU      0.24s WALL (       1 calls)

     Called by electrons:
     c_bands      :     19.15s CPU     19.81s WALL (       6 calls)
     sum_band     :      3.65s CPU      3.78s WALL (       6 calls)
     v_of_rho     :      0.20s CPU      0.21s WALL (       6 calls)
     newd         :      0.29s CPU      0.30s WALL (       6 calls)
     PAW_pot      :      0.58s CPU      0.60s WALL (       6 calls)
     mix_rho      :      0.01s CPU      0.01s WALL (       6 calls)

     Called by c_bands:
     init_us_2    :      0.65s CPU      0.66s WALL (     840 calls)
     cegterg      :     18.37s CPU     19.02s WALL (     336 calls)

     Called by sum_band:
     sum_band:bec :      0.00s CPU      0.00s WALL (     336 calls)
     addusdens    :      0.32s CPU      0.33s WALL (       6 calls)

     Called by *egterg:
     h_psi        :     15.83s CPU     16.49s WALL (    1614 calls)
     s_psi        :      0.42s CPU      0.43s WALL (    1614 calls)
     g_psi        :      0.04s CPU      0.04s WALL (    1222 calls)
     cdiaghg      :      0.40s CPU      0.41s WALL (    1502 calls)

     Called by h_psi:
     h_psi:pot    :     15.75s CPU     16.40s WALL (    1614 calls)
     h_psi:calbec :      0.86s CPU      0.89s WALL (    1614 calls)
     vloc_psi     :     14.40s CPU     15.02s WALL (    1614 calls)
     add_vuspsi   :      0.47s CPU      0.48s WALL (    1614 calls)

     General routines
     calbec       :      1.47s CPU      1.50s WALL (    2230 calls)
     fft          :      0.14s CPU      0.15s WALL (      93 calls)
     ffts         :      0.01s CPU      0.01s WALL (       6 calls)
     fftw         :     15.58s CPU     16.25s WALL (   21040 calls)

     Parallel routines
     fft_scatt_xy :      1.23s CPU      1.29s WALL (   21139 calls)
     fft_scatt_yz :      3.97s CPU      4.16s WALL (   21139 calls)

     PWSCF        :    27.99s CPU        29.08s WALL


   This run was terminated on:   1:16:33   8Apr2024            

=------------------------------------------------------------------------------=
   JOB DONE.
=------------------------------------------------------------------------------=
