
     Program PWSCF v.6.3MaX starts on  8Apr2024 at  0:30:28 

     This program is part of the open-source Quantum ESPRESSO suite
     for quantum simulation of materials; please cite
         "P. Giannozzi et al., J. Phys.:Condens. Matter 21 395502 (2009);
         "P. Giannozzi et al., J. Phys.:Condens. Matter 29 465901 (2017);
          URL http://www.quantum-espresso.org", 
     in publications or presentations arising from this work. More details at
     http://www.quantum-espresso.org/quote

     Parallel version (MPI), running on     5 processors

     MPI processes distributed on     1 nodes
     R & G space division:  proc/nbgrp/npool/nimage =       5
     Waiting for input...
     Reading input from standard input

     Current dimensions of program PWSCF are:
     Max number of different atomic species (ntypx) = 10
     Max number of k-points (npk) =  40000
     Max angular momentum in pseudopotentials (lmaxx) =  3
               file K.pz-spn-rrkjus_psl.1.0.0.UPF: wavefunction(s)  3S renormalized

     Subspace diagonalization in iterative solution of the eigenvalue problem:
     a serial algorithm will be used


     Parallelization info
     --------------------
     sticks:   dense  smooth     PW     G-vecs:    dense   smooth      PW
     Min         196     196     57                 3895     3895     630
     Max         197     197     59                 3897     3897     631
     Sum         981     981    291                19477    19477    3151



     bravais-lattice index     =            3
     lattice parameter (alat)  =       9.8600  a.u.
     unit-cell volume          =     479.2926 (a.u.)^3
     number of atoms/cell      =            1
     number of atomic types    =            1
     number of electrons       =         9.00
     number of Kohn-Sham states=            9
     kinetic-energy cutoff     =      45.0000  Ry
     charge density cutoff     =     180.0000  Ry
     convergence threshold     =      1.0E-08
     mixing beta               =       0.7000
     number of iterations used =            8  plain     mixing
     Exchange-correlation      = LDA ( 1  1  0  0 0 0)

     celldm(1)=   9.860000  celldm(2)=   0.000000  celldm(3)=   0.000000
     celldm(4)=   0.000000  celldm(5)=   0.000000  celldm(6)=   0.000000

     crystal axes: (cart. coord. in units of alat)
               a(1) = (   0.500000   0.500000   0.500000 )  
               a(2) = (  -0.500000   0.500000   0.500000 )  
               a(3) = (  -0.500000  -0.500000   0.500000 )  

     reciprocal axes: (cart. coord. in units 2 pi/alat)
               b(1) = (  1.000000  0.000000  1.000000 )  
               b(2) = ( -1.000000  1.000000  0.000000 )  
               b(3) = (  0.000000 -1.000000  1.000000 )  


     PseudoPot. # 1 for K  read from file:
     /home/lorenzo/pseudos/K/K.pz-spn-rrkjus_psl.1.0.0.UPF
     MD5 check sum: af434a66a3b91719abff201b8f79bb09
     Pseudo is Ultrasoft + core correction, Zval =  9.0
     Generated using "atomic" code by A. Dal Corso v.6.2.2
     Using radial grid of 1165 points,  6 beta functions with: 
                l(1) =   0
                l(2) =   0
                l(3) =   1
                l(4) =   1
                l(5) =   2
                l(6) =   2
     Q(r) pseudized with 0 coefficients 


     atomic species   valence    mass     pseudopotential
        K              9.00    39.09830     K ( 1.00)

     48 Sym. Ops., with inversion, found



   Cartesian axes

     site n.     atom                  positions (alat units)
         1           K   tau(   1) = (   0.0000000   0.0000000   0.0000000  )

     number of k points=     8  gaussian smearing, width (Ry)=  0.0100
                       cart. coord. in units 2pi/alat
        k(    1) = (   0.0000000   0.0000000   0.0000000), wk =   0.0312500
        k(    2) = (   0.0000000  -0.2500000   0.2500000), wk =   0.3750000
        k(    3) = (   0.0000000   0.5000000  -0.5000000), wk =   0.1875000
        k(    4) = (  -0.2500000   0.7500000  -0.5000000), wk =   0.7500000
        k(    5) = (   0.0000000   0.0000000   0.5000000), wk =   0.1875000
        k(    6) = (   0.0000000   0.7500000  -0.2500000), wk =   0.3750000
        k(    7) = (   0.5000000  -0.5000000   0.5000000), wk =   0.0625000
        k(    8) = (   0.0000000   0.0000000  -1.0000000), wk =   0.0312500

     Dense  grid:    19477 G-vectors     FFT dimensions: (  40,  40,  40)

     Estimated max dynamical RAM per process >      16.88 MB

     Estimated total dynamical RAM >      84.39 MB

     Check: negative/imaginary core charge=   -0.000011    0.000000

     Initial potential from superposition of free atoms

     starting charge    8.98437, renormalised to    9.00000
     Starting wfcs are    8 randomized atomic wfcs +    1 random wfcs

     total cpu time spent up to now is        1.0 secs

     Self-consistent Calculation

     iteration #  1     ecut=    45.00 Ry     beta= 0.70
     Davidson diagonalization with overlap
     ethr =  1.00E-02,  avg # of iterations =  7.1

     Threshold (ethr) on eigenvalues was too large:
     Diagonalizing with lowered threshold

     Davidson diagonalization with overlap
     ethr =  1.29E-05,  avg # of iterations =  6.6

     total cpu time spent up to now is        1.7 secs

     total energy              =     -58.73796990 Ry
     Harris-Foulkes estimate   =     -58.73851551 Ry
     estimated scf accuracy    <       0.00112106 Ry

     iteration #  2     ecut=    45.00 Ry     beta= 0.70
     Davidson diagonalization with overlap
     ethr =  1.25E-05,  avg # of iterations =  2.0

     total cpu time spent up to now is        2.0 secs

     total energy              =     -58.73816306 Ry
     Harris-Foulkes estimate   =     -58.73817843 Ry
     estimated scf accuracy    <       0.00008926 Ry

     iteration #  3     ecut=    45.00 Ry     beta= 0.70
     Davidson diagonalization with overlap
     ethr =  9.92E-07,  avg # of iterations =  1.5

     total cpu time spent up to now is        2.3 secs

     total energy              =     -58.73817183 Ry
     Harris-Foulkes estimate   =     -58.73817094 Ry
     estimated scf accuracy    <       0.00000568 Ry

     iteration #  4     ecut=    45.00 Ry     beta= 0.70
     Davidson diagonalization with overlap
     ethr =  6.31E-08,  avg # of iterations =  1.2

     total cpu time spent up to now is        2.5 secs

     total energy              =     -58.73817252 Ry
     Harris-Foulkes estimate   =     -58.73817252 Ry
     estimated scf accuracy    <       0.00000004 Ry

     iteration #  5     ecut=    45.00 Ry     beta= 0.70
     Davidson diagonalization with overlap
     ethr =  4.16E-10,  avg # of iterations =  1.8

     total cpu time spent up to now is        2.8 secs

     End of self-consistent calculation

          k = 0.0000 0.0000 0.0000 (  2491 PWs)   bands (ev):

   -30.0954 -13.7336 -13.7336 -13.7336  -0.4766   5.9308   5.9308   5.9308
     6.8768

          k = 0.0000-0.2500 0.2500 (  2445 PWs)   bands (ev):

   -30.0927 -13.7737 -13.7469 -13.7334   0.3023   4.6619   5.2859   6.5605
     6.6888

          k = 0.0000 0.5000-0.5000 (  2422 PWs)   bands (ev):

   -30.0900 -13.8132 -13.7603 -13.7333   2.1435   2.4883   4.8364   6.5341
     7.3605

          k =-0.2500 0.7500-0.5000 (  2438 PWs)   bands (ev):

   -30.0901 -13.7986 -13.7668 -13.7416   1.7060   3.6275   4.1191   6.4606
     6.7147

          k = 0.0000 0.0000 0.5000 (  2459 PWs)   bands (ev):

   -30.0904 -13.7748 -13.7614 -13.7614   1.0314   4.6031   5.2349   5.2350
     6.7680

          k = 0.0000 0.7500-0.2500 (  2458 PWs)   bands (ev):

   -30.0881 -13.8022 -13.7757 -13.7624   2.8159   2.8870   4.9327   5.0588
     6.4854

          k = 0.5000-0.5000 0.5000 (  2448 PWs)   bands (ev):

   -30.0898 -13.7723 -13.7723 -13.7723   3.2330   3.2331   3.2331   4.7557
     7.4371

          k = 0.0000 0.0000-1.0000 (  2454 PWs)   bands (ev):

   -30.0861 -13.7910 -13.7910 -13.7910   3.4012   5.2838   5.2838   5.2838
     7.2569

     the Fermi energy is     1.7161 ev

!    total energy              =     -58.73817253 Ry
     Harris-Foulkes estimate   =     -58.73817253 Ry
     estimated scf accuracy    <          1.1E-09 Ry

     The total energy is the sum of the following terms:

     one-electron contribution =     -36.64806181 Ry
     hartree contribution      =      18.82593833 Ry
     xc contribution           =     -11.01760511 Ry
     ewald contribution        =     -29.89633975 Ry
     smearing contrib. (-TS)   =      -0.00210419 Ry

     convergence has been achieved in   5 iterations

     Forces acting on atoms (cartesian axes, Ry/au):

     atom    1 type  1   force =     0.00000000    0.00000000    0.00000000

     Total force =     0.000000     Total SCF correction =     0.000000


     Computing stress (Cartesian axis) and pressure

          total   stress  (Ry/bohr**3)                   (kbar)     P=   -3.92
  -0.00002667  -0.00000000   0.00000000         -3.92     -0.00      0.00
  -0.00000000  -0.00002667  -0.00000000         -0.00     -3.92     -0.00
   0.00000000  -0.00000000  -0.00002667          0.00     -0.00     -3.92


     Writing output data file K.save/

     init_run     :      0.26s CPU      0.27s WALL (       1 calls)
     electrons    :      1.67s CPU      1.75s WALL (       1 calls)
     forces       :      0.07s CPU      0.07s WALL (       1 calls)
     stress       :      0.20s CPU      0.20s WALL (       1 calls)

     Called by init_run:
     wfcinit      :      0.05s CPU      0.06s WALL (       1 calls)
     potinit      :      0.01s CPU      0.01s WALL (       1 calls)
     hinit0       :      0.16s CPU      0.16s WALL (       1 calls)

     Called by electrons:
     c_bands      :      1.18s CPU      1.25s WALL (       6 calls)
     sum_band     :      0.34s CPU      0.35s WALL (       6 calls)
     v_of_rho     :      0.02s CPU      0.02s WALL (       6 calls)
     newd         :      0.13s CPU      0.13s WALL (       6 calls)
     mix_rho      :      0.01s CPU      0.01s WALL (       6 calls)

     Called by c_bands:
     init_us_2    :      0.04s CPU      0.04s WALL (     120 calls)
     cegterg      :      1.13s CPU      1.19s WALL (      48 calls)

     Called by sum_band:
     sum_band:bec :      0.00s CPU      0.00s WALL (      48 calls)
     addusdens    :      0.11s CPU      0.12s WALL (       6 calls)

     Called by *egterg:
     h_psi        :      0.95s CPU      1.01s WALL (     218 calls)
     s_psi        :      0.02s CPU      0.02s WALL (     218 calls)
     g_psi        :      0.00s CPU      0.00s WALL (     162 calls)
     cdiaghg      :      0.06s CPU      0.06s WALL (     202 calls)

     Called by h_psi:
     h_psi:pot    :      0.94s CPU      1.01s WALL (     218 calls)
     h_psi:calbec :      0.06s CPU      0.06s WALL (     218 calls)
     vloc_psi     :      0.85s CPU      0.91s WALL (     218 calls)
     add_vuspsi   :      0.03s CPU      0.03s WALL (     218 calls)

     General routines
     calbec       :      0.09s CPU      0.10s WALL (     306 calls)
     fft          :      0.03s CPU      0.03s WALL (      34 calls)
     ffts         :      0.00s CPU      0.00s WALL (       6 calls)
     fftw         :      0.94s CPU      1.00s WALL (    2870 calls)

     Parallel routines
     fft_scatt_xy :      0.07s CPU      0.07s WALL (    2910 calls)
     fft_scatt_yz :      0.38s CPU      0.41s WALL (    2910 calls)

     PWSCF        :     2.99s CPU         3.13s WALL


   This run was terminated on:   0:30:31   8Apr2024            

=------------------------------------------------------------------------------=
   JOB DONE.
=------------------------------------------------------------------------------=
