
     Program PWSCF v.6.3MaX starts on  8Apr2024 at  0:13:11 

     This program is part of the open-source Quantum ESPRESSO suite
     for quantum simulation of materials; please cite
         "P. Giannozzi et al., J. Phys.:Condens. Matter 21 395502 (2009);
         "P. Giannozzi et al., J. Phys.:Condens. Matter 29 465901 (2017);
          URL http://www.quantum-espresso.org", 
     in publications or presentations arising from this work. More details at
     http://www.quantum-espresso.org/quote

     Parallel version (MPI), running on     5 processors

     MPI processes distributed on     1 nodes
     R & G space division:  proc/nbgrp/npool/nimage =       5
     Waiting for input...
     Reading input from standard input

     Current dimensions of program PWSCF are:
     Max number of different atomic species (ntypx) = 10
     Max number of k-points (npk) =  40000
     Max angular momentum in pseudopotentials (lmaxx) =  3
               file K.pz-spn-kjpaw_psl.1.0.0.UPF: wavefunction(s)  3S renormalized

     Subspace diagonalization in iterative solution of the eigenvalue problem:
     a serial algorithm will be used


     Parallelization info
     --------------------
     sticks:   dense  smooth     PW     G-vecs:    dense   smooth      PW
     Min          66      66     19                  756      756     133
     Max          67      67     20                  757      757     136
     Sum         333     333     99                 3781     3781     675



     bravais-lattice index     =            3
     lattice parameter (alat)  =       9.8600  a.u.
     unit-cell volume          =     479.2926 (a.u.)^3
     number of atoms/cell      =            1
     number of atomic types    =            1
     number of electrons       =         9.00
     number of Kohn-Sham states=            9
     kinetic-energy cutoff     =      15.0000  Ry
     charge density cutoff     =      60.0000  Ry
     convergence threshold     =      1.0E-08
     mixing beta               =       0.7000
     number of iterations used =            8  plain     mixing
     Exchange-correlation      = SLA PZ NOGX NOGC ( 1  1  0  0 0 0)

     celldm(1)=   9.860000  celldm(2)=   0.000000  celldm(3)=   0.000000
     celldm(4)=   0.000000  celldm(5)=   0.000000  celldm(6)=   0.000000

     crystal axes: (cart. coord. in units of alat)
               a(1) = (   0.500000   0.500000   0.500000 )  
               a(2) = (  -0.500000   0.500000   0.500000 )  
               a(3) = (  -0.500000  -0.500000   0.500000 )  

     reciprocal axes: (cart. coord. in units 2 pi/alat)
               b(1) = (  1.000000  0.000000  1.000000 )  
               b(2) = ( -1.000000  1.000000  0.000000 )  
               b(3) = (  0.000000 -1.000000  1.000000 )  


     PseudoPot. # 1 for K  read from file:
     /home/lorenzo/pseudos/K/K.pz-spn-kjpaw_psl.1.0.0.UPF
     MD5 check sum: 59b94f4c1a6681f21e103574f2c5fc67
     Pseudo is Projector augmented-wave + core cor, Zval =  9.0
     Generated using "atomic" code by A. Dal Corso v.6.2.2
     Shape of augmentation charge: PSQ
     Using radial grid of 1165 points,  6 beta functions with: 
                l(1) =   0
                l(2) =   0
                l(3) =   1
                l(4) =   1
                l(5) =   2
                l(6) =   2
     Q(r) pseudized with 0 coefficients 


     atomic species   valence    mass     pseudopotential
        K              9.00    39.09830     K ( 1.00)

     48 Sym. Ops., with inversion, found



   Cartesian axes

     site n.     atom                  positions (alat units)
         1           K   tau(   1) = (   0.0000000   0.0000000   0.0000000  )

     number of k points=     4  gaussian smearing, width (Ry)=  0.0100
                       cart. coord. in units 2pi/alat
        k(    1) = (   0.0000000   0.0000000   0.0000000), wk =   0.0740741
        k(    2) = (   0.0000000  -0.3333333   0.3333333), wk =   0.8888889
        k(    3) = (  -0.3333333   0.6666667  -0.3333333), wk =   0.5925926
        k(    4) = (   0.0000000   0.0000000   0.6666667), wk =   0.4444444

     Dense  grid:     3781 G-vectors     FFT dimensions: (  24,  24,  24)

     Estimated max dynamical RAM per process >       3.90 MB

     Estimated total dynamical RAM >      19.51 MB

     Check: negative/imaginary core charge=   -0.000370    0.000000

     Initial potential from superposition of free atoms

     starting charge    8.98437, renormalised to    9.00000
     Starting wfcs are    8 randomized atomic wfcs +    1 random wfcs
     Checking if some PAW data can be deallocated... 

     total cpu time spent up to now is        0.9 secs

     Self-consistent Calculation

     iteration #  1     ecut=    15.00 Ry     beta= 0.70
     Davidson diagonalization with overlap
     ethr =  1.00E-02,  avg # of iterations =  8.0

     Threshold (ethr) on eigenvalues was too large:
     Diagonalizing with lowered threshold

     Davidson diagonalization with overlap
     ethr =  4.83E-04,  avg # of iterations =  2.2

     total cpu time spent up to now is        1.0 secs

     total energy              =    -109.47100718 Ry
     Harris-Foulkes estimate   =    -109.50941109 Ry
     estimated scf accuracy    <       0.04455761 Ry

     iteration #  2     ecut=    15.00 Ry     beta= 0.70
     Davidson diagonalization with overlap
     ethr =  4.95E-04,  avg # of iterations =  2.2

     total cpu time spent up to now is        1.1 secs

     total energy              =    -109.48218911 Ry
     Harris-Foulkes estimate   =    -109.48342718 Ry
     estimated scf accuracy    <       0.00299474 Ry

     iteration #  3     ecut=    15.00 Ry     beta= 0.70
     Davidson diagonalization with overlap
     ethr =  3.33E-05,  avg # of iterations =  4.5

     total cpu time spent up to now is        1.2 secs

     total energy              =    -109.48242884 Ry
     Harris-Foulkes estimate   =    -109.48246975 Ry
     estimated scf accuracy    <       0.00015510 Ry

     iteration #  4     ecut=    15.00 Ry     beta= 0.70
     Davidson diagonalization with overlap
     ethr =  1.72E-06,  avg # of iterations =  4.2

     total cpu time spent up to now is        1.3 secs

     total energy              =    -109.48243247 Ry
     Harris-Foulkes estimate   =    -109.48243258 Ry
     estimated scf accuracy    <       0.00000029 Ry

     iteration #  5     ecut=    15.00 Ry     beta= 0.70
     Davidson diagonalization with overlap
     ethr =  3.24E-09,  avg # of iterations =  2.5

     total cpu time spent up to now is        1.3 secs

     total energy              =    -109.48243269 Ry
     Harris-Foulkes estimate   =    -109.48243270 Ry
     estimated scf accuracy    <       0.00000002 Ry

     iteration #  6     ecut=    15.00 Ry     beta= 0.70
     Davidson diagonalization with overlap
     ethr =  2.21E-10,  avg # of iterations =  2.0

     total cpu time spent up to now is        1.4 secs

     End of self-consistent calculation

          k = 0.0000 0.0000 0.0000 (   459 PWs)   bands (ev):

   -31.1645 -13.5623 -13.5623 -13.5623  -0.4371   6.5036   6.5036   6.5036
     7.6294

          k = 0.0000-0.3333 0.3333 (   474 PWs)   bands (ev):

   -31.1619 -13.7280 -13.7089 -13.6229   0.9324   4.1213   5.4581   7.2691
     7.5054

          k =-0.3333 0.6667-0.3333 (   475 PWs)   bands (ev):

   -31.1604 -13.7264 -13.7264 -13.6887   3.1497   3.1497   3.4064   6.4705
     7.6880

          k = 0.0000 0.0000 0.6667 (   458 PWs)   bands (ev):

   -31.1587 -13.6330 -13.6330 -13.6119   2.1529   4.2393   5.4540   5.4540
     6.0201

     the Fermi energy is     2.0198 ev

!    total energy              =    -109.48243269 Ry
     Harris-Foulkes estimate   =    -109.48243269 Ry
     estimated scf accuracy    <          4.4E-11 Ry

     total all-electron energy =     -1200.807432 Ry

     The total energy is the sum of the following terms:

     one-electron contribution =     -34.80601495 Ry
     hartree contribution      =      18.39549997 Ry
     xc contribution           =     -10.92089476 Ry
     ewald contribution        =     -29.89633977 Ry
     one-center paw contrib.   =     -52.25420136 Ry
     smearing contrib. (-TS)   =      -0.00048182 Ry

     convergence has been achieved in   6 iterations

     Forces acting on atoms (cartesian axes, Ry/au):

     atom    1 type  1   force =     0.00000000    0.00000000    0.00000000

     Total force =     0.000000     Total SCF correction =     0.000000


     Computing stress (Cartesian axis) and pressure

          total   stress  (Ry/bohr**3)                   (kbar)     P= -339.18
  -0.00230573   0.00000000  -0.00000000       -339.18      0.00     -0.00
   0.00000000  -0.00230573   0.00000000          0.00   -339.18      0.00
  -0.00000000   0.00000000  -0.00230573         -0.00      0.00   -339.18


     Writing output data file K.save/

     init_run     :      0.16s CPU      0.16s WALL (       1 calls)
     electrons    :      0.50s CPU      0.52s WALL (       1 calls)
     forces       :      0.02s CPU      0.02s WALL (       1 calls)
     stress       :      0.04s CPU      0.04s WALL (       1 calls)

     Called by init_run:
     wfcinit      :      0.01s CPU      0.01s WALL (       1 calls)
     potinit      :      0.05s CPU      0.05s WALL (       1 calls)
     hinit0       :      0.09s CPU      0.09s WALL (       1 calls)

     Called by electrons:
     c_bands      :      0.18s CPU      0.19s WALL (       7 calls)
     sum_band     :      0.06s CPU      0.06s WALL (       7 calls)
     v_of_rho     :      0.00s CPU      0.00s WALL (       7 calls)
     newd         :      0.03s CPU      0.03s WALL (       7 calls)
     PAW_pot      :      0.27s CPU      0.27s WALL (       7 calls)
     mix_rho      :      0.00s CPU      0.00s WALL (       7 calls)

     Called by c_bands:
     init_us_2    :      0.01s CPU      0.01s WALL (      68 calls)
     cegterg      :      0.17s CPU      0.18s WALL (      28 calls)

     Called by sum_band:
     sum_band:bec :      0.00s CPU      0.00s WALL (      28 calls)
     addusdens    :      0.02s CPU      0.02s WALL (       7 calls)

     Called by *egterg:
     h_psi        :      0.12s CPU      0.13s WALL (     135 calls)
     s_psi        :      0.00s CPU      0.00s WALL (     135 calls)
     g_psi        :      0.00s CPU      0.00s WALL (     103 calls)
     cdiaghg      :      0.03s CPU      0.03s WALL (     127 calls)

     Called by h_psi:
     h_psi:pot    :      0.12s CPU      0.13s WALL (     135 calls)
     h_psi:calbec :      0.01s CPU      0.01s WALL (     135 calls)
     vloc_psi     :      0.11s CPU      0.12s WALL (     135 calls)
     add_vuspsi   :      0.00s CPU      0.00s WALL (     135 calls)

     General routines
     calbec       :      0.01s CPU      0.01s WALL (     183 calls)
     fft          :      0.01s CPU      0.01s WALL (      38 calls)
     ffts         :      0.00s CPU      0.00s WALL (       7 calls)
     fftw         :      0.12s CPU      0.13s WALL (    1696 calls)

     Parallel routines
     fft_scatt_xy :      0.01s CPU      0.01s WALL (    1741 calls)
     fft_scatt_yz :      0.04s CPU      0.05s WALL (    1741 calls)

     PWSCF        :     1.44s CPU         1.51s WALL


   This run was terminated on:   0:13:12   8Apr2024            

=------------------------------------------------------------------------------=
   JOB DONE.
=------------------------------------------------------------------------------=
