
     Program PWSCF v.6.3MaX starts on  8Apr2024 at  0:25:27 

     This program is part of the open-source Quantum ESPRESSO suite
     for quantum simulation of materials; please cite
         "P. Giannozzi et al., J. Phys.:Condens. Matter 21 395502 (2009);
         "P. Giannozzi et al., J. Phys.:Condens. Matter 29 465901 (2017);
          URL http://www.quantum-espresso.org", 
     in publications or presentations arising from this work. More details at
     http://www.quantum-espresso.org/quote

     Parallel version (MPI), running on     5 processors

     MPI processes distributed on     1 nodes
     R & G space division:  proc/nbgrp/npool/nimage =       5
     Waiting for input...
     Reading input from standard input

     Current dimensions of program PWSCF are:
     Max number of different atomic species (ntypx) = 10
     Max number of k-points (npk) =  40000
     Max angular momentum in pseudopotentials (lmaxx) =  3
               file K.pbe-spn-kjpaw_psl.1.0.0.UPF: wavefunction(s)  3S renormalized

     Subspace diagonalization in iterative solution of the eigenvalue problem:
     a serial algorithm will be used


     Parallelization info
     --------------------
     sticks:   dense  smooth     PW     G-vecs:    dense   smooth      PW
     Min         175     175     53                 3283     3283     546
     Max         175     175     53                 3283     3283     547
     Sum         875     875    265                16415    16415    2731



     bravais-lattice index     =            3
     lattice parameter (alat)  =       9.8600  a.u.
     unit-cell volume          =     479.2926 (a.u.)^3
     number of atoms/cell      =            1
     number of atomic types    =            1
     number of electrons       =         9.00
     number of Kohn-Sham states=            9
     kinetic-energy cutoff     =      40.0000  Ry
     charge density cutoff     =     160.0000  Ry
     convergence threshold     =      1.0E-08
     mixing beta               =       0.7000
     number of iterations used =            8  plain     mixing
     Exchange-correlation      = SLA PW PBX PBC ( 1  4  3  4 0 0)

     celldm(1)=   9.860000  celldm(2)=   0.000000  celldm(3)=   0.000000
     celldm(4)=   0.000000  celldm(5)=   0.000000  celldm(6)=   0.000000

     crystal axes: (cart. coord. in units of alat)
               a(1) = (   0.500000   0.500000   0.500000 )  
               a(2) = (  -0.500000   0.500000   0.500000 )  
               a(3) = (  -0.500000  -0.500000   0.500000 )  

     reciprocal axes: (cart. coord. in units 2 pi/alat)
               b(1) = (  1.000000  0.000000  1.000000 )  
               b(2) = ( -1.000000  1.000000  0.000000 )  
               b(3) = (  0.000000 -1.000000  1.000000 )  


     PseudoPot. # 1 for K  read from file:
     /home/lorenzo/pseudos/K/K.pbe-spn-kjpaw_psl.1.0.0.UPF
     MD5 check sum: 34cc42130a09071ebe376fd42eb21491
     Pseudo is Projector augmented-wave + core cor, Zval =  9.0
     Generated using "atomic" code by A. Dal Corso v.6.2.2
     Shape of augmentation charge: PSQ
     Using radial grid of 1165 points,  6 beta functions with: 
                l(1) =   0
                l(2) =   0
                l(3) =   1
                l(4) =   1
                l(5) =   2
                l(6) =   2
     Q(r) pseudized with 0 coefficients 


     atomic species   valence    mass     pseudopotential
        K              9.00    39.09830     K ( 1.00)

     48 Sym. Ops., with inversion, found



   Cartesian axes

     site n.     atom                  positions (alat units)
         1           K   tau(   1) = (   0.0000000   0.0000000   0.0000000  )

     number of k points=    56  gaussian smearing, width (Ry)=  0.0100
                       cart. coord. in units 2pi/alat
        k(    1) = (   0.0000000   0.0000000   0.0000000), wk =   0.0015026
        k(    2) = (   0.0000000  -0.0909091   0.0909091), wk =   0.0180316
        k(    3) = (   0.0000000  -0.1818182   0.1818182), wk =   0.0180316
        k(    4) = (   0.0000000  -0.2727273   0.2727273), wk =   0.0180316
        k(    5) = (   0.0000000  -0.3636364   0.3636364), wk =   0.0180316
        k(    6) = (   0.0000000  -0.4545455   0.4545455), wk =   0.0180316
        k(    7) = (  -0.0909091  -0.0909091   0.1818182), wk =   0.0360631
        k(    8) = (  -0.0909091  -0.1818182   0.2727273), wk =   0.0721262
        k(    9) = (  -0.0909091  -0.2727273   0.3636364), wk =   0.0721262
        k(   10) = (  -0.0909091  -0.3636364   0.4545455), wk =   0.0721262
        k(   11) = (  -0.0909091   0.5454545  -0.4545455), wk =   0.0360631
        k(   12) = (  -0.1818182  -0.1818182   0.3636364), wk =   0.0360631
        k(   13) = (  -0.1818182  -0.2727273   0.4545455), wk =   0.0721262
        k(   14) = (  -0.1818182   0.6363636  -0.4545455), wk =   0.0721262
        k(   15) = (  -0.2727273   0.7272727  -0.4545455), wk =   0.0360631
        k(   16) = (  -0.2727273   0.6363636  -0.3636364), wk =   0.0360631
        k(   17) = (   0.0000000   0.0000000   0.1818182), wk =   0.0090158
        k(   18) = (   0.0000000  -0.0909091   0.2727273), wk =   0.0360631
        k(   19) = (   0.0000000  -0.1818182   0.3636364), wk =   0.0360631
        k(   20) = (   0.0000000  -0.2727273   0.4545455), wk =   0.0360631
        k(   21) = (   0.0000000  -0.3636364   0.5454545), wk =   0.0360631
        k(   22) = (  -0.0909091  -0.0909091   0.3636364), wk =   0.0360631
        k(   23) = (  -0.0909091  -0.1818182   0.4545455), wk =   0.0721262
        k(   24) = (  -0.0909091  -0.2727273   0.5454545), wk =   0.0721262
        k(   25) = (  -0.0909091   0.6363636  -0.3636364), wk =   0.0360631
        k(   26) = (  -0.1818182   0.1818182   0.1818182), wk =   0.0120210
        k(   27) = (  -0.1818182  -0.1818182   0.5454545), wk =   0.0360631
        k(   28) = (  -0.1818182   0.7272727  -0.3636364), wk =   0.0721262
        k(   29) = (  -0.2727273   0.2727273   0.1818182), wk =   0.0360631
        k(   30) = (  -0.2727273   0.7272727  -0.2727273), wk =   0.0120210
        k(   31) = (  -0.3636364   0.3636364   0.1818182), wk =   0.0360631
        k(   32) = (  -0.3636364   0.2727273   0.2727273), wk =   0.0360631
        k(   33) = (   0.5454545  -0.5454545   0.1818182), wk =   0.0360631
        k(   34) = (   0.5454545  -0.6363636   0.2727273), wk =   0.0721262
        k(   35) = (   0.4545455  -0.5454545   0.2727273), wk =   0.0360631
        k(   36) = (   0.4545455  -0.6363636   0.3636364), wk =   0.0360631
        k(   37) = (   0.0000000   0.0000000   0.3636364), wk =   0.0090158
        k(   38) = (   0.0000000  -0.0909091   0.4545455), wk =   0.0360631
        k(   39) = (   0.0000000  -0.1818182   0.5454545), wk =   0.0360631
        k(   40) = (   0.0000000  -0.2727273   0.6363636), wk =   0.0360631
        k(   41) = (  -0.0909091  -0.0909091   0.5454545), wk =   0.0360631
        k(   42) = (  -0.0909091  -0.1818182   0.6363636), wk =   0.0721262
        k(   43) = (  -0.0909091   0.7272727  -0.2727273), wk =   0.0360631
        k(   44) = (  -0.1818182   0.8181818  -0.2727273), wk =   0.0360631
        k(   45) = (   0.6363636  -0.6363636   0.3636364), wk =   0.0120210
        k(   46) = (   0.5454545  -0.5454545   0.3636364), wk =   0.0360631
        k(   47) = (   0.4545455  -0.5454545   0.4545455), wk =   0.0120210
        k(   48) = (   0.0000000   0.0000000   0.5454545), wk =   0.0090158
        k(   49) = (   0.0000000  -0.0909091   0.6363636), wk =   0.0360631
        k(   50) = (   0.0000000  -0.1818182   0.7272727), wk =   0.0360631
        k(   51) = (  -0.0909091  -0.0909091   0.7272727), wk =   0.0360631
        k(   52) = (  -0.0909091   0.8181818  -0.1818182), wk =   0.0360631
        k(   53) = (   0.0000000   0.0000000   0.7272727), wk =   0.0090158
        k(   54) = (   0.0000000  -0.0909091   0.8181818), wk =   0.0360631
        k(   55) = (  -0.0909091   0.9090909  -0.0909091), wk =   0.0120210
        k(   56) = (   0.0000000   0.0000000   0.9090909), wk =   0.0090158

     Dense  grid:    16415 G-vectors     FFT dimensions: (  36,  36,  36)

     Estimated max dynamical RAM per process >      17.05 MB

     Estimated total dynamical RAM >      85.26 MB

     Check: negative/imaginary core charge=   -0.000011    0.000000

     Initial potential from superposition of free atoms

     starting charge    8.98117, renormalised to    9.00000
     Starting wfcs are    8 randomized atomic wfcs +    1 random wfcs
     Checking if some PAW data can be deallocated... 

     total cpu time spent up to now is        1.4 secs

     Self-consistent Calculation

     iteration #  1     ecut=    40.00 Ry     beta= 0.70
     Davidson diagonalization with overlap
     ethr =  1.00E-02,  avg # of iterations =  6.7

     Threshold (ethr) on eigenvalues was too large:
     Diagonalizing with lowered threshold

     Davidson diagonalization with overlap
     ethr =  1.41E-05,  avg # of iterations =  6.6

     total cpu time spent up to now is        4.8 secs

     total energy              =    -113.00958049 Ry
     Harris-Foulkes estimate   =    -113.01007843 Ry
     estimated scf accuracy    <       0.00126532 Ry

     iteration #  2     ecut=    40.00 Ry     beta= 0.70
     Davidson diagonalization with overlap
     ethr =  1.41E-05,  avg # of iterations =  2.2

     total cpu time spent up to now is        5.9 secs

     total energy              =    -113.00979663 Ry
     Harris-Foulkes estimate   =    -113.00980544 Ry
     estimated scf accuracy    <       0.00009811 Ry

     iteration #  3     ecut=    40.00 Ry     beta= 0.70
     Davidson diagonalization with overlap
     ethr =  1.09E-06,  avg # of iterations =  2.1

     total cpu time spent up to now is        6.9 secs

     total energy              =    -113.00980833 Ry
     Harris-Foulkes estimate   =    -113.00980621 Ry
     estimated scf accuracy    <       0.00000673 Ry

     iteration #  4     ecut=    40.00 Ry     beta= 0.70
     Davidson diagonalization with overlap
     ethr =  7.48E-08,  avg # of iterations =  1.6

     total cpu time spent up to now is        7.9 secs

     total energy              =    -113.00980909 Ry
     Harris-Foulkes estimate   =    -113.00980909 Ry
     estimated scf accuracy    <       0.00000006 Ry

     iteration #  5     ecut=    40.00 Ry     beta= 0.70
     Davidson diagonalization with overlap
     ethr =  6.16E-10,  avg # of iterations =  2.6

     total cpu time spent up to now is        8.9 secs

     End of self-consistent calculation

          k = 0.0000 0.0000 0.0000 (  2093 PWs)   bands (ev):

   -30.1626 -13.6115 -13.6115 -13.6115  -0.2605   6.2638   6.2638   7.1810
     7.1817

          k = 0.0000-0.0909 0.0909 (  2048 PWs)   bands (ev):

   -30.1620 -13.6177 -13.6135 -13.6115  -0.1548   6.1061   6.1297   6.3483
     7.0070

          k = 0.0000-0.1818 0.1818 (  2048 PWs)   bands (ev):

   -30.1610 -13.6341 -13.6190 -13.6115   0.1564   5.5100   5.8271   6.5988
     6.9433

          k = 0.0000-0.2727 0.2727 (  2046 PWs)   bands (ev):

   -30.1596 -13.6555 -13.6262 -13.6115   0.6554   4.6934   5.5098   7.0060
     7.0237

          k = 0.0000-0.3636 0.3636 (  2048 PWs)   bands (ev):

   -30.1584 -13.6750 -13.6327 -13.6114   1.3129   3.8320   5.2666   7.0096
     7.3162

          k = 0.0000-0.4545 0.4545 (  2044 PWs)   bands (ev):

   -30.1576 -13.6864 -13.6366 -13.6114   2.0805   2.9710   5.1375   6.8934
     7.5955

          k =-0.0909-0.0909 0.1818 (  2057 PWs)   bands (ev):

   -30.1614 -13.6291 -13.6157 -13.6130   0.0537   5.7680   5.8623   6.5075
     6.8350

          k =-0.0909-0.1818 0.2727 (  2053 PWs)   bands (ev):

   -30.1601 -13.6471 -13.6223 -13.6136   0.4591   5.0947   5.5128   6.7965
     6.8307

          k =-0.0909-0.2727 0.3636 (  2056 PWs)   bands (ev):

   -30.1589 -13.6662 -13.6303 -13.6137   1.0387   4.2858   5.2278   6.8607
     7.2087

          k =-0.0909-0.3636 0.4545 (  2042 PWs)   bands (ev):

   -30.1578 -13.6806 -13.6365 -13.6138   1.7564   3.4409   5.0442   6.7802
     7.5113

          k =-0.0909 0.5455-0.4545 (  2054 PWs)   bands (ev):

   -30.1575 -13.6859 -13.6388 -13.6138   2.4708   2.6868   4.9810   6.6994
     7.6768

          k =-0.1818-0.1818 0.3636 (  2050 PWs)   bands (ev):

   -30.1590 -13.6617 -13.6287 -13.6166   0.9460   4.6019   5.0481   6.8429
     6.9958

          k =-0.1818-0.2727 0.4545 (  2054 PWs)   bands (ev):

   -30.1580 -13.6732 -13.6378 -13.6178   1.5892   3.9417   4.7139   6.8058
     7.1251

          k =-0.1818 0.6364-0.4545 (  2058 PWs)   bands (ev):

   -30.1573 -13.6793 -13.6442 -13.6182   2.3452   3.1610   4.5551   6.6061
     7.4100

          k =-0.2727 0.7273-0.4545 (  2052 PWs)   bands (ev):

   -30.1573 -13.6738 -13.6490 -13.6201   2.2719   3.6193   4.1204   6.6914
     7.1078

          k =-0.2727 0.6364-0.3636 (  2046 PWs)   bands (ev):

   -30.1570 -13.6711 -13.6562 -13.6207   2.9864   3.0522   3.8839   6.5914
     7.2987

          k = 0.0000 0.0000 0.1818 (  2058 PWs)   bands (ev):

   -30.1617 -13.6195 -13.6156 -13.6156  -0.0500   6.0554   6.0554   6.3873
     6.5736

          k = 0.0000-0.0909 0.2727 (  2044 PWs)   bands (ev):

   -30.1606 -13.6342 -13.6211 -13.6165   0.2585   5.5421   5.8048   6.3593
     6.6115

          k = 0.0000-0.1818 0.3636 (  2047 PWs)   bands (ev):

   -30.1593 -13.6549 -13.6284 -13.6163   0.7533   4.7308   5.5164   6.4036
     7.0078

          k = 0.0000-0.2727 0.4545 (  2056 PWs)   bands (ev):

   -30.1581 -13.6737 -13.6350 -13.6161   1.4055   3.8846   5.2896   6.4119
     7.5137

          k = 0.0000-0.3636 0.5455 (  2049 PWs)   bands (ev):

   -30.1573 -13.6848 -13.6390 -13.6159   2.1699   3.0336   5.1680   6.3365
     7.5527

          k =-0.0909-0.0909 0.3636 (  2052 PWs)   bands (ev):

   -30.1595 -13.6482 -13.6273 -13.6201   0.6568   5.0520   5.4874   6.2365
     6.8667

          k =-0.0909-0.1818 0.4545 (  2048 PWs)   bands (ev):

   -30.1582 -13.6650 -13.6355 -13.6207   1.2261   4.3454   5.1727   6.3001
     7.1844

          k =-0.0909-0.2727 0.5455 (  2048 PWs)   bands (ev):

   -30.1573 -13.6779 -13.6420 -13.6207   1.9319   3.5539   4.9668   6.2600
     7.3011

          k =-0.0909 0.6364-0.3636 (  2048 PWs)   bands (ev):

   -30.1569 -13.6827 -13.6444 -13.6206   2.6788   2.7790   4.8937   6.1981
     7.4185

          k =-0.1818 0.1818 0.1818 (  2057 PWs)   bands (ev):

   -30.1605 -13.6446 -13.6161 -13.6161   0.3593   5.3666   5.3666   6.7258
     7.1436

          k =-0.1818-0.1818 0.5455 (  2050 PWs)   bands (ev):

   -30.1572 -13.6725 -13.6456 -13.6227   1.8502   3.9360   4.6143   6.4843
     6.9771

          k =-0.1818 0.7273-0.3636 (  2055 PWs)   bands (ev):

   -30.1567 -13.6756 -13.6538 -13.6232   2.5808   3.3364   4.2717   6.5323
     7.0891

          k =-0.2727 0.2727 0.1818 (  2051 PWs)   bands (ev):

   -30.1593 -13.6608 -13.6242 -13.6165   0.8507   4.6813   5.0347   6.9237
     7.2134

          k =-0.2727 0.7273-0.2727 (  2043 PWs)   bands (ev):

   -30.1564 -13.6666 -13.6666 -13.6238   3.1807   3.1807   3.7144   6.9518
     7.1655

          k =-0.3636 0.3636 0.1818 (  2049 PWs)   bands (ev):

   -30.1582 -13.6737 -13.6335 -13.6170   1.4996   3.9118   4.8047   6.8408
     7.4223

          k =-0.3636 0.2727 0.2727 (  2053 PWs)   bands (ev):

   -30.1583 -13.6703 -13.6304 -13.6211   1.4126   4.2639   4.5539   6.7294
     7.3325

          k = 0.5455-0.5455 0.1818 (  2046 PWs)   bands (ev):

   -30.1575 -13.6807 -13.6397 -13.6172   2.2609   3.0978   4.6877   6.6193
     7.6525

          k = 0.5455-0.6364 0.2727 (  2051 PWs)   bands (ev):

   -30.1576 -13.6738 -13.6405 -13.6227   2.1091   3.6384   4.3034   6.3388
     7.4688

          k = 0.4545-0.5455 0.2727 (  2051 PWs)   bands (ev):

   -30.1574 -13.6738 -13.6458 -13.6232   2.8730   2.8891   4.2311   6.1657
     7.5737

          k = 0.4545-0.6364 0.3636 (  2043 PWs)   bands (ev):

   -30.1572 -13.6668 -13.6521 -13.6258   2.8092   3.4083   3.7660   5.9739
     7.5556

          k = 0.0000 0.0000 0.3636 (  2046 PWs)   bands (ev):

   -30.1596 -13.6377 -13.6268 -13.6268   0.5590   5.5278   5.6959   5.6959
     6.7418

          k = 0.0000-0.0909 0.4545 (  2051 PWs)   bands (ev):

   -30.1584 -13.6534 -13.6343 -13.6290   1.0405   4.7937   5.5135   5.7579
     7.0663

          k = 0.0000-0.1818 0.5455 (  2048 PWs)   bands (ev):

   -30.1572 -13.6702 -13.6412 -13.6284   1.6743   4.0188   5.3452   5.7441
     7.1237

          k = 0.0000-0.2727 0.6364 (  2054 PWs)   bands (ev):

   -30.1565 -13.6803 -13.6452 -13.6278   2.4188   3.2201   5.2492   5.6218
     7.1669

          k =-0.0909-0.0909 0.5455 (  2048 PWs)   bands (ev):

   -30.1572 -13.6639 -13.6430 -13.6325   1.5870   4.3345   5.1605   5.8400
     6.9180

          k =-0.0909-0.1818 0.6364 (  2041 PWs)   bands (ev):

   -30.1563 -13.6736 -13.6505 -13.6326   2.2597   3.7305   4.8171   5.9242
     6.8019

          k =-0.0909 0.7273-0.2727 (  2044 PWs)   bands (ev):

   -30.1559 -13.6773 -13.6534 -13.6324   2.9608   3.0489   4.6899   5.9024
     6.9206

          k =-0.1818 0.8182-0.2727 (  2037 PWs)   bands (ev):

   -30.1557 -13.6718 -13.6617 -13.6333   2.9175   3.4632   4.1856   6.3124
     6.6335

          k = 0.6364-0.6364 0.3636 (  2049 PWs)   bands (ev):

   -30.1577 -13.6715 -13.6320 -13.6320   2.0284   4.0412   4.0412   6.1002
     7.6294

          k = 0.5455-0.5455 0.3636 (  2046 PWs)   bands (ev):

   -30.1574 -13.6665 -13.6441 -13.6329   2.7373   3.4472   3.9311   5.6268
     7.6876

          k = 0.4545-0.5455 0.4545 (  2052 PWs)   bands (ev):

   -30.1573 -13.6540 -13.6540 -13.6380   3.3039   3.3040   3.5922   5.3020
     7.7594

          k = 0.0000 0.0000 0.5455 (  2050 PWs)   bands (ev):

   -30.1572 -13.6548 -13.6421 -13.6421   1.4979   4.6128   5.4696   5.4696
     6.7826

          k = 0.0000-0.0909 0.6364 (  2043 PWs)   bands (ev):

   -30.1561 -13.6659 -13.6492 -13.6441   2.0928   4.1112   5.3785   5.4015
     6.4288

          k = 0.0000-0.1818 0.7273 (  2033 PWs)   bands (ev):

   -30.1554 -13.6745 -13.6534 -13.6433   2.7722   3.4913   5.1507   5.3534
     6.5702

          k =-0.0909-0.0909 0.7273 (  2029 PWs)   bands (ev):

   -30.1552 -13.6699 -13.6579 -13.6464   2.6943   3.7879   4.8651   5.7163
     6.2296

          k =-0.0909 0.8182-0.1818 (  2029 PWs)   bands (ev):

   -30.1549 -13.6714 -13.6621 -13.6462   3.2187   3.4099   4.6066   5.8141
     6.2991

          k = 0.0000 0.0000 0.7273 (  2030 PWs)   bands (ev):

   -30.1550 -13.6639 -13.6565 -13.6565   2.6152   3.9700   5.4346   5.4347
     5.7869

          k = 0.0000-0.0909 0.8182 (  2031 PWs)   bands (ev):

   -30.1544 -13.6692 -13.6609 -13.6573   3.1576   3.6674   5.1352   5.4456
     5.9387

          k =-0.0909 0.9091-0.0909 (  2013 PWs)   bands (ev):

   -30.1540 -13.6670 -13.6670 -13.6583   3.4986   3.4986   4.9786   5.7426
     5.7426

          k = 0.0000 0.0000 0.9091 (  2002 PWs)   bands (ev):

   -30.1537 -13.6663 -13.6653 -13.6653   3.4794   3.6418   5.4831   5.4981
     5.4981

     the Fermi energy is     1.9702 ev

!    total energy              =    -113.00980911 Ry
     Harris-Foulkes estimate   =    -113.00980911 Ry
     estimated scf accuracy    <          1.9E-09 Ry

     total all-electron energy =     -1204.248519 Ry

     The total energy is the sum of the following terms:

     one-electron contribution =     -35.39965914 Ry
     hartree contribution      =      18.87864893 Ry
     xc contribution           =     -11.17030742 Ry
     ewald contribution        =     -29.89633978 Ry
     one-center paw contrib.   =     -55.42171127 Ry
     smearing contrib. (-TS)   =      -0.00044042 Ry

     convergence has been achieved in   5 iterations

     Forces acting on atoms (cartesian axes, Ry/au):

     atom    1 type  1   force =     0.00000000    0.00000000    0.00000000

     Total force =     0.000000     Total SCF correction =     0.000000


     Computing stress (Cartesian axis) and pressure

          total   stress  (Ry/bohr**3)                   (kbar)     P=    0.54
   0.00000367  -0.00000000   0.00000000          0.54     -0.00      0.00
  -0.00000000   0.00000367  -0.00000000         -0.00      0.54     -0.00
   0.00000000  -0.00000000   0.00000367          0.00     -0.00      0.54


     Writing output data file K.save/

     init_run     :      0.64s CPU      0.67s WALL (       1 calls)
     electrons    :      7.09s CPU      7.50s WALL (       1 calls)
     forces       :      0.10s CPU      0.10s WALL (       1 calls)
     stress       :      0.39s CPU      0.39s WALL (       1 calls)

     Called by init_run:
     wfcinit      :      0.34s CPU      0.36s WALL (       1 calls)
     potinit      :      0.11s CPU      0.12s WALL (       1 calls)
     hinit0       :      0.14s CPU      0.14s WALL (       1 calls)

     Called by electrons:
     c_bands      :      5.56s CPU      5.89s WALL (       6 calls)
     sum_band     :      0.96s CPU      1.01s WALL (       6 calls)
     v_of_rho     :      0.05s CPU      0.06s WALL (       6 calls)
     newd         :      0.10s CPU      0.11s WALL (       6 calls)
     PAW_pot      :      0.53s CPU      0.56s WALL (       6 calls)
     mix_rho      :      0.00s CPU      0.00s WALL (       6 calls)

     Called by c_bands:
     init_us_2    :      0.20s CPU      0.21s WALL (     840 calls)
     cegterg      :      5.31s CPU      5.64s WALL (     336 calls)

     Called by sum_band:
     sum_band:bec :      0.00s CPU      0.00s WALL (     336 calls)
     addusdens    :      0.09s CPU      0.09s WALL (       6 calls)

     Called by *egterg:
     h_psi        :      4.34s CPU      4.63s WALL (    1610 calls)
     s_psi        :      0.13s CPU      0.14s WALL (    1610 calls)
     g_psi        :      0.01s CPU      0.01s WALL (    1218 calls)
     cdiaghg      :      0.36s CPU      0.37s WALL (    1498 calls)

     Called by h_psi:
     h_psi:pot    :      4.31s CPU      4.60s WALL (    1610 calls)
     h_psi:calbec :      0.23s CPU      0.24s WALL (    1610 calls)
     vloc_psi     :      3.93s CPU      4.20s WALL (    1610 calls)
     add_vuspsi   :      0.14s CPU      0.15s WALL (    1610 calls)

     General routines
     calbec       :      0.35s CPU      0.37s WALL (    2226 calls)
     fft          :      0.03s CPU      0.03s WALL (      93 calls)
     ffts         :      0.00s CPU      0.00s WALL (       6 calls)
     fftw         :      4.31s CPU      4.60s WALL (   21010 calls)

     Parallel routines
     fft_scatt_xy :      0.34s CPU      0.36s WALL (   21109 calls)
     fft_scatt_yz :      1.16s CPU      1.24s WALL (   21109 calls)

     PWSCF        :     9.03s CPU         9.56s WALL


   This run was terminated on:   0:25:37   8Apr2024            

=------------------------------------------------------------------------------=
   JOB DONE.
=------------------------------------------------------------------------------=
