
     Program PWSCF v.6.3MaX starts on  8Apr2024 at  0:50:58 

     This program is part of the open-source Quantum ESPRESSO suite
     for quantum simulation of materials; please cite
         "P. Giannozzi et al., J. Phys.:Condens. Matter 21 395502 (2009);
         "P. Giannozzi et al., J. Phys.:Condens. Matter 29 465901 (2017);
          URL http://www.quantum-espresso.org", 
     in publications or presentations arising from this work. More details at
     http://www.quantum-espresso.org/quote

     Parallel version (MPI), running on     5 processors

     MPI processes distributed on     1 nodes
     R & G space division:  proc/nbgrp/npool/nimage =       5
     Waiting for input...
     Reading input from standard input

     Current dimensions of program PWSCF are:
     Max number of different atomic species (ntypx) = 10
     Max number of k-points (npk) =  40000
     Max angular momentum in pseudopotentials (lmaxx) =  3
               file K.pbe-spn-kjpaw_psl.1.0.0.UPF: wavefunction(s)  3S renormalized

     Subspace diagonalization in iterative solution of the eigenvalue problem:
     a serial algorithm will be used


     Parallelization info
     --------------------
     sticks:   dense  smooth     PW     G-vecs:    dense   smooth      PW
     Min         282     282     82                 6766     6766    1056
     Max         283     283     83                 6768     6768    1057
     Sum        1411    1411    411                33837    33837    5281



     bravais-lattice index     =            3
     lattice parameter (alat)  =       9.8600  a.u.
     unit-cell volume          =     479.2926 (a.u.)^3
     number of atoms/cell      =            1
     number of atomic types    =            1
     number of electrons       =         9.00
     number of Kohn-Sham states=            9
     kinetic-energy cutoff     =      65.0000  Ry
     charge density cutoff     =     260.0000  Ry
     convergence threshold     =      1.0E-08
     mixing beta               =       0.7000
     number of iterations used =            8  plain     mixing
     Exchange-correlation      = SLA PW PBX PBC ( 1  4  3  4 0 0)

     celldm(1)=   9.860000  celldm(2)=   0.000000  celldm(3)=   0.000000
     celldm(4)=   0.000000  celldm(5)=   0.000000  celldm(6)=   0.000000

     crystal axes: (cart. coord. in units of alat)
               a(1) = (   0.500000   0.500000   0.500000 )  
               a(2) = (  -0.500000   0.500000   0.500000 )  
               a(3) = (  -0.500000  -0.500000   0.500000 )  

     reciprocal axes: (cart. coord. in units 2 pi/alat)
               b(1) = (  1.000000  0.000000  1.000000 )  
               b(2) = ( -1.000000  1.000000  0.000000 )  
               b(3) = (  0.000000 -1.000000  1.000000 )  


     PseudoPot. # 1 for K  read from file:
     /home/lorenzo/pseudos/K/K.pbe-spn-kjpaw_psl.1.0.0.UPF
     MD5 check sum: 34cc42130a09071ebe376fd42eb21491
     Pseudo is Projector augmented-wave + core cor, Zval =  9.0
     Generated using "atomic" code by A. Dal Corso v.6.2.2
     Shape of augmentation charge: PSQ
     Using radial grid of 1165 points,  6 beta functions with: 
                l(1) =   0
                l(2) =   0
                l(3) =   1
                l(4) =   1
                l(5) =   2
                l(6) =   2
     Q(r) pseudized with 0 coefficients 


     atomic species   valence    mass     pseudopotential
        K              9.00    39.09830     K ( 1.00)

     48 Sym. Ops., with inversion, found



   Cartesian axes

     site n.     atom                  positions (alat units)
         1           K   tau(   1) = (   0.0000000   0.0000000   0.0000000  )

     number of k points=    10  gaussian smearing, width (Ry)=  0.0100
                       cart. coord. in units 2pi/alat
        k(    1) = (   0.0000000   0.0000000   0.0000000), wk =   0.0160000
        k(    2) = (   0.0000000  -0.2000000   0.2000000), wk =   0.1920000
        k(    3) = (   0.0000000  -0.4000000   0.4000000), wk =   0.1920000
        k(    4) = (  -0.2000000  -0.2000000   0.4000000), wk =   0.3840000
        k(    5) = (  -0.2000000   0.6000000  -0.4000000), wk =   0.3840000
        k(    6) = (   0.0000000   0.0000000   0.4000000), wk =   0.0960000
        k(    7) = (   0.0000000  -0.2000000   0.6000000), wk =   0.3840000
        k(    8) = (  -0.2000000   0.8000000  -0.2000000), wk =   0.1280000
        k(    9) = (   0.6000000  -0.6000000   0.4000000), wk =   0.1280000
        k(   10) = (   0.0000000   0.0000000   0.8000000), wk =   0.0960000

     Dense  grid:    33837 G-vectors     FFT dimensions: (  45,  45,  45)

     Estimated max dynamical RAM per process >      28.37 MB

     Estimated total dynamical RAM >     141.83 MB

     Check: negative/imaginary core charge=   -0.000004    0.000000

     Initial potential from superposition of free atoms

     starting charge    8.98117, renormalised to    9.00000
     Starting wfcs are    8 randomized atomic wfcs +    1 random wfcs
     Checking if some PAW data can be deallocated... 

     total cpu time spent up to now is        1.2 secs

     Self-consistent Calculation

     iteration #  1     ecut=    65.00 Ry     beta= 0.70
     Davidson diagonalization with overlap
     ethr =  1.00E-02,  avg # of iterations =  7.5

     Threshold (ethr) on eigenvalues was too large:
     Diagonalizing with lowered threshold

     Davidson diagonalization with overlap
     ethr =  1.38E-05,  avg # of iterations =  6.4

     total cpu time spent up to now is        2.5 secs

     total energy              =    -113.01122039 Ry
     Harris-Foulkes estimate   =    -113.01173780 Ry
     estimated scf accuracy    <       0.00125010 Ry

     iteration #  2     ecut=    65.00 Ry     beta= 0.70
     Davidson diagonalization with overlap
     ethr =  1.39E-05,  avg # of iterations =  2.3

     total cpu time spent up to now is        3.1 secs

     total energy              =    -113.01144208 Ry
     Harris-Foulkes estimate   =    -113.01145195 Ry
     estimated scf accuracy    <       0.00010071 Ry

     iteration #  3     ecut=    65.00 Ry     beta= 0.70
     Davidson diagonalization with overlap
     ethr =  1.12E-06,  avg # of iterations =  2.1

     total cpu time spent up to now is        3.6 secs

     total energy              =    -113.01145408 Ry
     Harris-Foulkes estimate   =    -113.01145187 Ry
     estimated scf accuracy    <       0.00000691 Ry

     iteration #  4     ecut=    65.00 Ry     beta= 0.70
     Davidson diagonalization with overlap
     ethr =  7.68E-08,  avg # of iterations =  1.8

     total cpu time spent up to now is        4.1 secs

     total energy              =    -113.01145482 Ry
     Harris-Foulkes estimate   =    -113.01145482 Ry
     estimated scf accuracy    <       0.00000005 Ry

     iteration #  5     ecut=    65.00 Ry     beta= 0.70
     Davidson diagonalization with overlap
     ethr =  5.78E-10,  avg # of iterations =  2.3

     total cpu time spent up to now is        4.6 secs

     End of self-consistent calculation

          k = 0.0000 0.0000 0.0000 (  4213 PWs)   bands (ev):

   -30.1644 -13.6132 -13.6132 -13.6132  -0.2609   6.2639   6.2639   6.2639
     7.1816

          k = 0.0000-0.2000 0.2000 (  4220 PWs)   bands (ev):

   -30.1627 -13.6399 -13.6221 -13.6132   0.2415   5.3546   5.7610   6.6681
     6.9565

          k = 0.0000-0.4000 0.4000 (  4244 PWs)   bands (ev):

   -30.1600 -13.6824 -13.6364 -13.6131   1.6103   3.4841   5.1999   6.9629
     7.4150

          k =-0.2000-0.2000 0.4000 (  4245 PWs)   bands (ev):

   -30.1606 -13.6683 -13.6339 -13.6191   1.1824   4.3793   4.8743   6.8810
     7.0116

          k =-0.2000 0.6000-0.4000 (  4224 PWs)   bands (ev):

   -30.1592 -13.6801 -13.6487 -13.6206   2.7676   2.8279   4.4146   6.5726
     7.4665

          k = 0.0000 0.0000 0.4000 (  4229 PWs)   bands (ev):

   -30.1612 -13.6432 -13.6314 -13.6314   0.7230   5.3266   5.6353   5.6353
     6.8364

          k = 0.0000-0.2000 0.6000 (  4242 PWs)   bands (ev):

   -30.1587 -13.6760 -13.6464 -13.6328   2.0309   3.7403   5.3123   5.5819
     6.9965

          k =-0.2000 0.8000-0.2000 (  4259 PWs)   bands (ev):

   -30.1575 -13.6693 -13.6693 -13.6374   3.2766   3.2766   4.0864   6.4241
     6.4241

          k = 0.6000-0.6000 0.4000 (  4228 PWs)   bands (ev):

   -30.1595 -13.6701 -13.6380 -13.6380   2.4384   3.8418   3.8419   5.7298
     7.6987

          k = 0.0000 0.0000 0.8000 (  4272 PWs)   bands (ev):

   -30.1565 -13.6671 -13.6626 -13.6626   3.0318   3.7992   5.4570   5.4571
     5.5701

     the Fermi energy is     1.9839 ev

!    total energy              =    -113.01145483 Ry
     Harris-Foulkes estimate   =    -113.01145483 Ry
     estimated scf accuracy    <          2.3E-09 Ry

     total all-electron energy =     -1204.250165 Ry

     The total energy is the sum of the following terms:

     one-electron contribution =     -35.40542943 Ry
     hartree contribution      =      18.88073004 Ry
     xc contribution           =     -11.16980453 Ry
     ewald contribution        =     -29.89633970 Ry
     one-center paw contrib.   =     -55.41964961 Ry
     smearing contrib. (-TS)   =      -0.00096161 Ry

     convergence has been achieved in   5 iterations

     Forces acting on atoms (cartesian axes, Ry/au):

     atom    1 type  1   force =     0.00000000    0.00000000    0.00000000

     Total force =     0.000000     Total SCF correction =     0.000000


     Computing stress (Cartesian axis) and pressure

          total   stress  (Ry/bohr**3)                   (kbar)     P=    1.35
   0.00000919   0.00000000  -0.00000000          1.35      0.00     -0.00
   0.00000000   0.00000919   0.00000000          0.00      1.35      0.00
  -0.00000000   0.00000000   0.00000919         -0.00      0.00      1.35


     Writing output data file K.save/

     init_run     :      0.48s CPU      0.51s WALL (       1 calls)
     electrons    :      3.25s CPU      3.38s WALL (       1 calls)
     forces       :      0.10s CPU      0.10s WALL (       1 calls)
     stress       :      0.34s CPU      0.35s WALL (       1 calls)

     Called by init_run:
     wfcinit      :      0.10s CPU      0.10s WALL (       1 calls)
     potinit      :      0.11s CPU      0.13s WALL (       1 calls)
     hinit0       :      0.19s CPU      0.19s WALL (       1 calls)

     Called by electrons:
     c_bands      :      1.96s CPU      2.04s WALL (       6 calls)
     sum_band     :      0.54s CPU      0.57s WALL (       6 calls)
     v_of_rho     :      0.12s CPU      0.13s WALL (       6 calls)
     newd         :      0.19s CPU      0.20s WALL (       6 calls)
     PAW_pot      :      0.55s CPU      0.58s WALL (       6 calls)
     mix_rho      :      0.01s CPU      0.01s WALL (       6 calls)

     Called by c_bands:
     init_us_2    :      0.08s CPU      0.08s WALL (     150 calls)
     cegterg      :      1.86s CPU      1.94s WALL (      60 calls)

     Called by sum_band:
     sum_band:bec :      0.00s CPU      0.00s WALL (      60 calls)
     addusdens    :      0.18s CPU      0.19s WALL (       6 calls)

     Called by *egterg:
     h_psi        :      1.54s CPU      1.61s WALL (     294 calls)
     s_psi        :      0.05s CPU      0.05s WALL (     294 calls)
     g_psi        :      0.01s CPU      0.01s WALL (     224 calls)
     cdiaghg      :      0.07s CPU      0.07s WALL (     274 calls)

     Called by h_psi:
     h_psi:pot    :      1.52s CPU      1.60s WALL (     294 calls)
     h_psi:calbec :      0.09s CPU      0.10s WALL (     294 calls)
     vloc_psi     :      1.37s CPU      1.44s WALL (     294 calls)
     add_vuspsi   :      0.05s CPU      0.06s WALL (     294 calls)

     General routines
     calbec       :      0.14s CPU      0.15s WALL (     404 calls)
     fft          :      0.07s CPU      0.08s WALL (      93 calls)
     ffts         :      0.00s CPU      0.00s WALL (       6 calls)
     fftw         :      1.52s CPU      1.59s WALL (    3768 calls)

     Parallel routines
     fft_scatt_xy :      0.12s CPU      0.12s WALL (    3867 calls)
     fft_scatt_yz :      0.42s CPU      0.45s WALL (    3867 calls)

     PWSCF        :     4.89s CPU         5.10s WALL


   This run was terminated on:   0:51: 4   8Apr2024            

=------------------------------------------------------------------------------=
   JOB DONE.
=------------------------------------------------------------------------------=
