
     Program PWSCF v.6.3MaX starts on  8Apr2024 at  1:28:14 

     This program is part of the open-source Quantum ESPRESSO suite
     for quantum simulation of materials; please cite
         "P. Giannozzi et al., J. Phys.:Condens. Matter 21 395502 (2009);
         "P. Giannozzi et al., J. Phys.:Condens. Matter 29 465901 (2017);
          URL http://www.quantum-espresso.org", 
     in publications or presentations arising from this work. More details at
     http://www.quantum-espresso.org/quote

     Parallel version (MPI), running on     5 processors

     MPI processes distributed on     1 nodes
     R & G space division:  proc/nbgrp/npool/nimage =       5
     Waiting for input...
     Reading input from standard input

     Current dimensions of program PWSCF are:
     Max number of different atomic species (ntypx) = 10
     Max number of k-points (npk) =  40000
     Max angular momentum in pseudopotentials (lmaxx) =  3
               file K.pz-spn-rrkjus_psl.1.0.0.UPF: wavefunction(s)  3S renormalized

     Subspace diagonalization in iterative solution of the eigenvalue problem:
     a serial algorithm will be used


     Parallelization info
     --------------------
     sticks:   dense  smooth     PW     G-vecs:    dense   smooth      PW
     Min         393     393    111                11072    11072    1677
     Max         394     394    112                11073    11073    1679
     Sum        1967    1967    557                55361    55361    8391



     bravais-lattice index     =            3
     lattice parameter (alat)  =       9.8600  a.u.
     unit-cell volume          =     479.2926 (a.u.)^3
     number of atoms/cell      =            1
     number of atomic types    =            1
     number of electrons       =         9.00
     number of Kohn-Sham states=            9
     kinetic-energy cutoff     =      90.0000  Ry
     charge density cutoff     =     360.0000  Ry
     convergence threshold     =      1.0E-08
     mixing beta               =       0.7000
     number of iterations used =            8  plain     mixing
     Exchange-correlation      = LDA ( 1  1  0  0 0 0)

     celldm(1)=   9.860000  celldm(2)=   0.000000  celldm(3)=   0.000000
     celldm(4)=   0.000000  celldm(5)=   0.000000  celldm(6)=   0.000000

     crystal axes: (cart. coord. in units of alat)
               a(1) = (   0.500000   0.500000   0.500000 )  
               a(2) = (  -0.500000   0.500000   0.500000 )  
               a(3) = (  -0.500000  -0.500000   0.500000 )  

     reciprocal axes: (cart. coord. in units 2 pi/alat)
               b(1) = (  1.000000  0.000000  1.000000 )  
               b(2) = ( -1.000000  1.000000  0.000000 )  
               b(3) = (  0.000000 -1.000000  1.000000 )  


     PseudoPot. # 1 for K  read from file:
     /home/lorenzo/pseudos/K/K.pz-spn-rrkjus_psl.1.0.0.UPF
     MD5 check sum: af434a66a3b91719abff201b8f79bb09
     Pseudo is Ultrasoft + core correction, Zval =  9.0
     Generated using "atomic" code by A. Dal Corso v.6.2.2
     Using radial grid of 1165 points,  6 beta functions with: 
                l(1) =   0
                l(2) =   0
                l(3) =   1
                l(4) =   1
                l(5) =   2
                l(6) =   2
     Q(r) pseudized with 0 coefficients 


     atomic species   valence    mass     pseudopotential
        K              9.00    39.09830     K ( 1.00)

     48 Sym. Ops., with inversion, found



   Cartesian axes

     site n.     atom                  positions (alat units)
         1           K   tau(   1) = (   0.0000000   0.0000000   0.0000000  )

     number of k points=     8  gaussian smearing, width (Ry)=  0.0100
                       cart. coord. in units 2pi/alat
        k(    1) = (   0.0000000   0.0000000   0.0000000), wk =   0.0312500
        k(    2) = (   0.0000000  -0.2500000   0.2500000), wk =   0.3750000
        k(    3) = (   0.0000000   0.5000000  -0.5000000), wk =   0.1875000
        k(    4) = (  -0.2500000   0.7500000  -0.5000000), wk =   0.7500000
        k(    5) = (   0.0000000   0.0000000   0.5000000), wk =   0.1875000
        k(    6) = (   0.0000000   0.7500000  -0.2500000), wk =   0.3750000
        k(    7) = (   0.5000000  -0.5000000   0.5000000), wk =   0.0625000
        k(    8) = (   0.0000000   0.0000000  -1.0000000), wk =   0.0312500

     Dense  grid:    55361 G-vectors     FFT dimensions: (  54,  54,  54)

     Estimated max dynamical RAM per process >      45.24 MB

     Estimated total dynamical RAM >     226.22 MB

     Check: negative/imaginary core charge=   -0.000001    0.000000

     Initial potential from superposition of free atoms

     starting charge    8.98437, renormalised to    9.00000
     Starting wfcs are    8 randomized atomic wfcs +    1 random wfcs

     total cpu time spent up to now is        1.4 secs

     Self-consistent Calculation

     iteration #  1     ecut=    90.00 Ry     beta= 0.70
     Davidson diagonalization with overlap
     ethr =  1.00E-02,  avg # of iterations =  7.6

     Threshold (ethr) on eigenvalues was too large:
     Diagonalizing with lowered threshold

     Davidson diagonalization with overlap
     ethr =  1.28E-05,  avg # of iterations =  5.0

     total cpu time spent up to now is        3.1 secs

     total energy              =     -58.73907206 Ry
     Harris-Foulkes estimate   =     -58.73962129 Ry
     estimated scf accuracy    <       0.00111709 Ry

     iteration #  2     ecut=    90.00 Ry     beta= 0.70
     Davidson diagonalization with overlap
     ethr =  1.24E-05,  avg # of iterations =  2.0

     total cpu time spent up to now is        3.7 secs

     total energy              =     -58.73926754 Ry
     Harris-Foulkes estimate   =     -58.73928338 Ry
     estimated scf accuracy    <       0.00009011 Ry

     iteration #  3     ecut=    90.00 Ry     beta= 0.70
     Davidson diagonalization with overlap
     ethr =  1.00E-06,  avg # of iterations =  1.4

     total cpu time spent up to now is        4.3 secs

     total energy              =     -58.73927638 Ry
     Harris-Foulkes estimate   =     -58.73927550 Ry
     estimated scf accuracy    <       0.00000569 Ry

     iteration #  4     ecut=    90.00 Ry     beta= 0.70
     Davidson diagonalization with overlap
     ethr =  6.32E-08,  avg # of iterations =  2.4

     total cpu time spent up to now is        5.1 secs

     total energy              =     -58.73927706 Ry
     Harris-Foulkes estimate   =     -58.73927706 Ry
     estimated scf accuracy    <       0.00000004 Ry

     iteration #  5     ecut=    90.00 Ry     beta= 0.70
     Davidson diagonalization with overlap
     ethr =  4.10E-10,  avg # of iterations =  2.0

     total cpu time spent up to now is        6.2 secs

     End of self-consistent calculation

          k = 0.0000 0.0000 0.0000 (  6819 PWs)   bands (ev):

   -30.0968 -13.7351 -13.7351 -13.7351  -0.4768   5.9296   5.9296   6.8752
     6.8754

          k = 0.0000-0.2500 0.2500 (  6909 PWs)   bands (ev):

   -30.0942 -13.7754 -13.7486 -13.7351   0.3021   4.6612   5.2849   6.5593
     6.6851

          k = 0.0000 0.5000-0.5000 (  6926 PWs)   bands (ev):

   -30.0916 -13.8149 -13.7620 -13.7350   2.1432   2.4881   4.8355   6.5330
     7.8341

          k =-0.2500 0.7500-0.5000 (  6918 PWs)   bands (ev):

   -30.0916 -13.8002 -13.7685 -13.7433   1.7058   3.6271   4.1187   6.4599
     6.7133

          k = 0.0000 0.0000 0.5000 (  6927 PWs)   bands (ev):

   -30.0919 -13.7765 -13.7630 -13.7630   1.0312   4.6025   5.2342   5.2343
     6.7669

          k = 0.0000 0.7500-0.2500 (  6928 PWs)   bands (ev):

   -30.0896 -13.8038 -13.7773 -13.7641   2.8156   2.8867   4.9321   5.0582
     6.4845

          k = 0.5000-0.5000 0.5000 (  6888 PWs)   bands (ev):

   -30.0913 -13.7740 -13.7740 -13.7740   3.2327   3.2327   3.2327   4.7554
     7.4352

          k = 0.0000 0.0000-1.0000 (  6986 PWs)   bands (ev):

   -30.0875 -13.7926 -13.7926 -13.7926   3.4007   3.4007   5.2836   5.2836
     5.2836

     the Fermi energy is     1.7159 ev

!    total energy              =     -58.73927707 Ry
     Harris-Foulkes estimate   =     -58.73927707 Ry
     estimated scf accuracy    <          6.4E-10 Ry

     The total energy is the sum of the following terms:

     one-electron contribution =     -36.65037157 Ry
     hartree contribution      =      18.82674830 Ry
     xc contribution           =     -11.01720991 Ry
     ewald contribution        =     -29.89633970 Ry
     smearing contrib. (-TS)   =      -0.00210419 Ry

     convergence has been achieved in   5 iterations

     Forces acting on atoms (cartesian axes, Ry/au):

     atom    1 type  1   force =     0.00000000    0.00000000    0.00000000

     Total force =     0.000000     Total SCF correction =     0.000000


     Computing stress (Cartesian axis) and pressure

          total   stress  (Ry/bohr**3)                   (kbar)     P=   -2.94
  -0.00001998   0.00000000  -0.00000000         -2.94      0.00     -0.00
   0.00000000  -0.00001998   0.00000000          0.00     -2.94      0.00
  -0.00000000   0.00000000  -0.00001998         -0.00      0.00     -2.94


     Writing output data file K.save/

     init_run     :      0.51s CPU      0.54s WALL (       1 calls)
     electrons    :      4.67s CPU      4.80s WALL (       1 calls)
     forces       :      0.17s CPU      0.17s WALL (       1 calls)
     stress       :      0.54s CPU      0.54s WALL (       1 calls)

     Called by init_run:
     wfcinit      :      0.13s CPU      0.13s WALL (       1 calls)
     potinit      :      0.02s CPU      0.02s WALL (       1 calls)
     hinit0       :      0.24s CPU      0.24s WALL (       1 calls)

     Called by electrons:
     c_bands      :      3.35s CPU      3.44s WALL (       6 calls)
     sum_band     :      0.96s CPU      0.99s WALL (       6 calls)
     v_of_rho     :      0.04s CPU      0.04s WALL (       6 calls)
     newd         :      0.34s CPU      0.35s WALL (       6 calls)
     mix_rho      :      0.02s CPU      0.02s WALL (       6 calls)

     Called by c_bands:
     init_us_2    :      0.11s CPU      0.11s WALL (     120 calls)
     cegterg      :      3.20s CPU      3.29s WALL (      48 calls)

     Called by sum_band:
     sum_band:bec :      0.00s CPU      0.00s WALL (      48 calls)
     addusdens    :      0.34s CPU      0.35s WALL (       6 calls)

     Called by *egterg:
     h_psi        :      2.68s CPU      2.77s WALL (     219 calls)
     s_psi        :      0.07s CPU      0.07s WALL (     219 calls)
     g_psi        :      0.01s CPU      0.01s WALL (     163 calls)
     cdiaghg      :      0.07s CPU      0.07s WALL (     203 calls)

     Called by h_psi:
     h_psi:pot    :      2.66s CPU      2.75s WALL (     219 calls)
     h_psi:calbec :      0.17s CPU      0.17s WALL (     219 calls)
     vloc_psi     :      2.41s CPU      2.49s WALL (     219 calls)
     add_vuspsi   :      0.08s CPU      0.08s WALL (     219 calls)

     General routines
     calbec       :      0.27s CPU      0.27s WALL (     307 calls)
     fft          :      0.06s CPU      0.06s WALL (      34 calls)
     ffts         :      0.01s CPU      0.01s WALL (       6 calls)
     fftw         :      2.62s CPU      2.71s WALL (    2878 calls)

     Parallel routines
     fft_scatt_xy :      0.19s CPU      0.20s WALL (    2918 calls)
     fft_scatt_yz :      0.93s CPU      0.96s WALL (    2918 calls)

     PWSCF        :     6.80s CPU         7.03s WALL


   This run was terminated on:   1:28:21   8Apr2024            

=------------------------------------------------------------------------------=
   JOB DONE.
=------------------------------------------------------------------------------=
