
     Program PWSCF v.6.3MaX starts on  8Apr2024 at  0:23:46 

     This program is part of the open-source Quantum ESPRESSO suite
     for quantum simulation of materials; please cite
         "P. Giannozzi et al., J. Phys.:Condens. Matter 21 395502 (2009);
         "P. Giannozzi et al., J. Phys.:Condens. Matter 29 465901 (2017);
          URL http://www.quantum-espresso.org", 
     in publications or presentations arising from this work. More details at
     http://www.quantum-espresso.org/quote

     Parallel version (MPI), running on     5 processors

     MPI processes distributed on     1 nodes
     R & G space division:  proc/nbgrp/npool/nimage =       5
     Waiting for input...
     Reading input from standard input

     Current dimensions of program PWSCF are:
     Max number of different atomic species (ntypx) = 10
     Max number of k-points (npk) =  40000
     Max angular momentum in pseudopotentials (lmaxx) =  3
               file K.pbe-spn-kjpaw_psl.1.0.0.UPF: wavefunction(s)  3S renormalized

     Subspace diagonalization in iterative solution of the eigenvalue problem:
     a serial algorithm will be used


     Parallelization info
     --------------------
     sticks:   dense  smooth     PW     G-vecs:    dense   smooth      PW
     Min         153     153     45                 2690     2690     434
     Max         154     154     46                 2691     2691     435
     Sum         769     769    229                13451    13451    2171



     bravais-lattice index     =            3
     lattice parameter (alat)  =       9.8600  a.u.
     unit-cell volume          =     479.2926 (a.u.)^3
     number of atoms/cell      =            1
     number of atomic types    =            1
     number of electrons       =         9.00
     number of Kohn-Sham states=            9
     kinetic-energy cutoff     =      35.0000  Ry
     charge density cutoff     =     140.0000  Ry
     convergence threshold     =      1.0E-08
     mixing beta               =       0.7000
     number of iterations used =            8  plain     mixing
     Exchange-correlation      = SLA PW PBX PBC ( 1  4  3  4 0 0)

     celldm(1)=   9.860000  celldm(2)=   0.000000  celldm(3)=   0.000000
     celldm(4)=   0.000000  celldm(5)=   0.000000  celldm(6)=   0.000000

     crystal axes: (cart. coord. in units of alat)
               a(1) = (   0.500000   0.500000   0.500000 )  
               a(2) = (  -0.500000   0.500000   0.500000 )  
               a(3) = (  -0.500000  -0.500000   0.500000 )  

     reciprocal axes: (cart. coord. in units 2 pi/alat)
               b(1) = (  1.000000  0.000000  1.000000 )  
               b(2) = ( -1.000000  1.000000  0.000000 )  
               b(3) = (  0.000000 -1.000000  1.000000 )  


     PseudoPot. # 1 for K  read from file:
     /home/lorenzo/pseudos/K/K.pbe-spn-kjpaw_psl.1.0.0.UPF
     MD5 check sum: 34cc42130a09071ebe376fd42eb21491
     Pseudo is Projector augmented-wave + core cor, Zval =  9.0
     Generated using "atomic" code by A. Dal Corso v.6.2.2
     Shape of augmentation charge: PSQ
     Using radial grid of 1165 points,  6 beta functions with: 
                l(1) =   0
                l(2) =   0
                l(3) =   1
                l(4) =   1
                l(5) =   2
                l(6) =   2
     Q(r) pseudized with 0 coefficients 


     atomic species   valence    mass     pseudopotential
        K              9.00    39.09830     K ( 1.00)

     48 Sym. Ops., with inversion, found



   Cartesian axes

     site n.     atom                  positions (alat units)
         1           K   tau(   1) = (   0.0000000   0.0000000   0.0000000  )

     number of k points=    20  gaussian smearing, width (Ry)=  0.0100
                       cart. coord. in units 2pi/alat
        k(    1) = (   0.0000000   0.0000000   0.0000000), wk =   0.0058309
        k(    2) = (   0.0000000  -0.1428571   0.1428571), wk =   0.0699708
        k(    3) = (   0.0000000  -0.2857143   0.2857143), wk =   0.0699708
        k(    4) = (   0.0000000  -0.4285714   0.4285714), wk =   0.0699708
        k(    5) = (  -0.1428571  -0.1428571   0.2857143), wk =   0.1399417
        k(    6) = (  -0.1428571  -0.2857143   0.4285714), wk =   0.2798834
        k(    7) = (  -0.1428571   0.5714286  -0.4285714), wk =   0.1399417
        k(    8) = (  -0.2857143   0.7142857  -0.4285714), wk =   0.1399417
        k(    9) = (   0.0000000   0.0000000   0.2857143), wk =   0.0349854
        k(   10) = (   0.0000000  -0.1428571   0.4285714), wk =   0.1399417
        k(   11) = (   0.0000000  -0.2857143   0.5714286), wk =   0.1399417
        k(   12) = (  -0.1428571  -0.1428571   0.5714286), wk =   0.1399417
        k(   13) = (  -0.1428571   0.7142857  -0.2857143), wk =   0.1399417
        k(   14) = (  -0.2857143   0.2857143   0.2857143), wk =   0.0466472
        k(   15) = (   0.5714286  -0.5714286   0.2857143), wk =   0.1399417
        k(   16) = (   0.4285714  -0.5714286   0.4285714), wk =   0.0466472
        k(   17) = (   0.0000000   0.0000000   0.5714286), wk =   0.0349854
        k(   18) = (   0.0000000  -0.1428571   0.7142857), wk =   0.1399417
        k(   19) = (  -0.1428571   0.8571429  -0.1428571), wk =   0.0466472
        k(   20) = (   0.0000000   0.0000000   0.8571429), wk =   0.0349854

     Dense  grid:    13451 G-vectors     FFT dimensions: (  36,  36,  36)

     Estimated max dynamical RAM per process >      12.63 MB

     Estimated total dynamical RAM >      63.16 MB

     Check: negative/imaginary core charge=   -0.000007    0.000000

     Initial potential from superposition of free atoms

     starting charge    8.98117, renormalised to    9.00000
     Starting wfcs are    8 randomized atomic wfcs +    1 random wfcs
     Checking if some PAW data can be deallocated... 

     total cpu time spent up to now is        1.1 secs

     Self-consistent Calculation

     iteration #  1     ecut=    35.00 Ry     beta= 0.70
     Davidson diagonalization with overlap
     ethr =  1.00E-02,  avg # of iterations =  7.0

     Threshold (ethr) on eigenvalues was too large:
     Diagonalizing with lowered threshold

     Davidson diagonalization with overlap
     ethr =  1.40E-05,  avg # of iterations =  7.0

     total cpu time spent up to now is        2.3 secs

     total energy              =    -113.00927937 Ry
     Harris-Foulkes estimate   =    -113.00978164 Ry
     estimated scf accuracy    <       0.00126436 Ry

     iteration #  2     ecut=    35.00 Ry     beta= 0.70
     Davidson diagonalization with overlap
     ethr =  1.40E-05,  avg # of iterations =  2.1

     total cpu time spent up to now is        2.8 secs

     total energy              =    -113.00949414 Ry
     Harris-Foulkes estimate   =    -113.00950319 Ry
     estimated scf accuracy    <       0.00009823 Ry

     iteration #  3     ecut=    35.00 Ry     beta= 0.70
     Davidson diagonalization with overlap
     ethr =  1.09E-06,  avg # of iterations =  2.1

     total cpu time spent up to now is        3.2 secs

     total energy              =    -113.00950572 Ry
     Harris-Foulkes estimate   =    -113.00950363 Ry
     estimated scf accuracy    <       0.00000667 Ry

     iteration #  4     ecut=    35.00 Ry     beta= 0.70
     Davidson diagonalization with overlap
     ethr =  7.41E-08,  avg # of iterations =  1.8

     total cpu time spent up to now is        3.6 secs

     total energy              =    -113.00950650 Ry
     Harris-Foulkes estimate   =    -113.00950650 Ry
     estimated scf accuracy    <       0.00000006 Ry

     iteration #  5     ecut=    35.00 Ry     beta= 0.70
     Davidson diagonalization with overlap
     ethr =  6.19E-10,  avg # of iterations =  2.4

     total cpu time spent up to now is        4.0 secs

     End of self-consistent calculation

          k = 0.0000 0.0000 0.0000 (  1721 PWs)   bands (ev):

   -30.1608 -13.6111 -13.6111 -13.6111  -0.2613   6.2649   6.2649   6.2649
     7.1823

          k = 0.0000-0.1429 0.1429 (  1661 PWs)   bands (ev):

   -30.1596 -13.6257 -13.6160 -13.6111  -0.0021   5.8135   5.9676   6.4732
     6.9387

          k = 0.0000-0.2857 0.2857 (  1665 PWs)   bands (ev):

   -30.1576 -13.6582 -13.6268 -13.6111   0.7397   4.5714   5.4700   7.0333
     7.0773

          k = 0.0000-0.4286 0.4286 (  1671 PWs)   bands (ev):

   -30.1560 -13.6838 -13.6355 -13.6111   1.8541   3.2126   5.1623   6.9242
     7.5078

          k =-0.1429-0.1429 0.2857 (  1667 PWs)   bands (ev):

   -30.1581 -13.6480 -13.6217 -13.6145   0.4990   5.1070   5.4098   6.7963
     6.8095

          k =-0.1429-0.2857 0.4286 (  1679 PWs)   bands (ev):

   -30.1564 -13.6724 -13.6347 -13.6158   1.4334   3.9661   4.9264   6.7992
     7.2375

          k =-0.1429 0.5714-0.4286 (  1669 PWs)   bands (ev):

   -30.1555 -13.6826 -13.6413 -13.6160   2.5866   2.7399   4.7625   6.6027
     7.7270

          k =-0.2857 0.7143-0.4286 (  1675 PWs)   bands (ev):

   -30.1553 -13.6723 -13.6519 -13.6201   2.4809   3.5065   3.9783   6.6483
     7.1583

          k = 0.0000 0.0000 0.2857 (  1669 PWs)   bands (ev):

   -30.1588 -13.6290 -13.6209 -13.6209   0.2516   5.8450   5.8450   5.9767
     6.5657

          k = 0.0000-0.1429 0.4286 (  1677 PWs)   bands (ev):

   -30.1568 -13.6565 -13.6321 -13.6224   0.9776   4.6568   5.4866   6.0208
     7.0948

          k = 0.0000-0.2857 0.5714 (  1681 PWs)   bands (ev):

   -30.1553 -13.6801 -13.6410 -13.6217   2.0702   3.3623   5.2306   5.9356
     7.3480

          k =-0.1429-0.1429 0.5714 (  1681 PWs)   bands (ev):

   -30.1552 -13.6702 -13.6464 -13.6275   1.8668   4.0161   4.7899   6.1633
     6.9012

          k =-0.1429 0.7143-0.2857 (  1677 PWs)   bands (ev):

   -30.1544 -13.6757 -13.6554 -13.6277   2.9687   3.0540   4.3800   6.2508
     7.0055

          k =-0.2857 0.2857 0.2857 (  1652 PWs)   bands (ev):

   -30.1567 -13.6673 -13.6233 -13.6233   1.2115   4.5503   4.5503   6.7856
     7.4277

          k = 0.5714-0.5714 0.2857 (  1672 PWs)   bands (ev):

   -30.1557 -13.6729 -13.6403 -13.6247   2.2859   3.4937   4.2718   6.1377
     7.5918

          k = 0.4286-0.5714 0.4286 (  1667 PWs)   bands (ev):

   -30.1554 -13.6563 -13.6563 -13.6320   3.2495   3.2495   3.5987   5.5311
     7.7202

          k = 0.0000 0.0000 0.5714 (  1681 PWs)   bands (ev):

   -30.1551 -13.6562 -13.6439 -13.6439   1.6512   4.5025   5.4537   5.4537
     6.6117

          k = 0.0000-0.1429 0.7143 (  1678 PWs)   bands (ev):

   -30.1536 -13.6717 -13.6534 -13.6453   2.6339   3.7029   5.1751   5.3760
     6.4196

          k =-0.1429 0.8571-0.1429 (  1686 PWs)   bands (ev):

   -30.1530 -13.6671 -13.6671 -13.6478   3.3899   3.3899   4.5200   6.0332
     6.0332

          k = 0.0000 0.0000 0.8571 (  1674 PWs)   bands (ev):

   -30.1523 -13.6656 -13.6632 -13.6632   3.3021   3.7019   5.4793   5.4793
     5.4909

     the Fermi energy is     1.9399 ev

!    total energy              =    -113.00950652 Ry
     Harris-Foulkes estimate   =    -113.00950652 Ry
     estimated scf accuracy    <          1.8E-09 Ry

     total all-electron energy =     -1204.248217 Ry

     The total energy is the sum of the following terms:

     one-electron contribution =     -35.39956562 Ry
     hartree contribution      =      18.87901168 Ry
     xc contribution           =     -11.17022572 Ry
     ewald contribution        =     -29.89633975 Ry
     one-center paw contrib.   =     -55.42179930 Ry
     smearing contrib. (-TS)   =      -0.00058780 Ry

     convergence has been achieved in   5 iterations

     Forces acting on atoms (cartesian axes, Ry/au):

     atom    1 type  1   force =     0.00000000    0.00000000    0.00000000

     Total force =     0.000000     Total SCF correction =     0.000000


     Computing stress (Cartesian axis) and pressure

          total   stress  (Ry/bohr**3)                   (kbar)     P=    1.11
   0.00000758   0.00000000  -0.00000000          1.11      0.00     -0.00
   0.00000000   0.00000758   0.00000000          0.00      1.11      0.00
  -0.00000000   0.00000000   0.00000758         -0.00      0.00      1.11


     Writing output data file K.save/

     init_run     :      0.38s CPU      0.41s WALL (       1 calls)
     electrons    :      2.73s CPU      2.87s WALL (       1 calls)
     forces       :      0.05s CPU      0.05s WALL (       1 calls)
     stress       :      0.22s CPU      0.22s WALL (       1 calls)

     Called by init_run:
     wfcinit      :      0.09s CPU      0.10s WALL (       1 calls)
     potinit      :      0.12s CPU      0.14s WALL (       1 calls)
     hinit0       :      0.14s CPU      0.14s WALL (       1 calls)

     Called by electrons:
     c_bands      :      1.79s CPU      1.89s WALL (       6 calls)
     sum_band     :      0.40s CPU      0.42s WALL (       6 calls)
     v_of_rho     :      0.05s CPU      0.06s WALL (       6 calls)
     newd         :      0.07s CPU      0.08s WALL (       6 calls)
     PAW_pot      :      0.53s CPU      0.55s WALL (       6 calls)
     mix_rho      :      0.00s CPU      0.00s WALL (       6 calls)

     Called by c_bands:
     init_us_2    :      0.06s CPU      0.07s WALL (     300 calls)
     cegterg      :      1.71s CPU      1.81s WALL (     120 calls)

     Called by sum_band:
     sum_band:bec :      0.00s CPU      0.00s WALL (     120 calls)
     addusdens    :      0.07s CPU      0.08s WALL (       6 calls)

     Called by *egterg:
     h_psi        :      1.41s CPU      1.49s WALL (     588 calls)
     s_psi        :      0.04s CPU      0.04s WALL (     588 calls)
     g_psi        :      0.00s CPU      0.00s WALL (     448 calls)
     cdiaghg      :      0.13s CPU      0.13s WALL (     548 calls)

     Called by h_psi:
     h_psi:pot    :      1.40s CPU      1.48s WALL (     588 calls)
     h_psi:calbec :      0.07s CPU      0.07s WALL (     588 calls)
     vloc_psi     :      1.29s CPU      1.36s WALL (     588 calls)
     add_vuspsi   :      0.04s CPU      0.05s WALL (     588 calls)

     General routines
     calbec       :      0.12s CPU      0.12s WALL (     808 calls)
     fft          :      0.04s CPU      0.04s WALL (      93 calls)
     ffts         :      0.00s CPU      0.00s WALL (       6 calls)
     fftw         :      1.43s CPU      1.51s WALL (    7512 calls)

     Parallel routines
     fft_scatt_xy :      0.12s CPU      0.13s WALL (    7611 calls)
     fft_scatt_yz :      0.36s CPU      0.39s WALL (    7611 calls)

     PWSCF        :     4.13s CPU         4.37s WALL


   This run was terminated on:   0:23:50   8Apr2024            

=------------------------------------------------------------------------------=
   JOB DONE.
=------------------------------------------------------------------------------=
