
     Program PWSCF v.6.3MaX starts on  8Apr2024 at  1:12:57 

     This program is part of the open-source Quantum ESPRESSO suite
     for quantum simulation of materials; please cite
         "P. Giannozzi et al., J. Phys.:Condens. Matter 21 395502 (2009);
         "P. Giannozzi et al., J. Phys.:Condens. Matter 29 465901 (2017);
          URL http://www.quantum-espresso.org", 
     in publications or presentations arising from this work. More details at
     http://www.quantum-espresso.org/quote

     Parallel version (MPI), running on     5 processors

     MPI processes distributed on     1 nodes
     R & G space division:  proc/nbgrp/npool/nimage =       5
     Waiting for input...
     Reading input from standard input

     Current dimensions of program PWSCF are:
     Max number of different atomic species (ntypx) = 10
     Max number of k-points (npk) =  40000
     Max angular momentum in pseudopotentials (lmaxx) =  3
               file K.pz-spn-kjpaw_psl.1.0.0.UPF: wavefunction(s)  3S renormalized

     Subspace diagonalization in iterative solution of the eigenvalue problem:
     a serial algorithm will be used


     Parallelization info
     --------------------
     sticks:   dense  smooth     PW     G-vecs:    dense   smooth      PW
     Min         351     351     99                 9272     9272    1421
     Max         351     351    100                 9273     9273    1422
     Sum        1755    1755    499                46361    46361    7107



     bravais-lattice index     =            3
     lattice parameter (alat)  =       9.8600  a.u.
     unit-cell volume          =     479.2926 (a.u.)^3
     number of atoms/cell      =            1
     number of atomic types    =            1
     number of electrons       =         9.00
     number of Kohn-Sham states=            9
     kinetic-energy cutoff     =      80.0000  Ry
     charge density cutoff     =     320.0000  Ry
     convergence threshold     =      1.0E-08
     mixing beta               =       0.7000
     number of iterations used =            8  plain     mixing
     Exchange-correlation      = SLA PZ NOGX NOGC ( 1  1  0  0 0 0)

     celldm(1)=   9.860000  celldm(2)=   0.000000  celldm(3)=   0.000000
     celldm(4)=   0.000000  celldm(5)=   0.000000  celldm(6)=   0.000000

     crystal axes: (cart. coord. in units of alat)
               a(1) = (   0.500000   0.500000   0.500000 )  
               a(2) = (  -0.500000   0.500000   0.500000 )  
               a(3) = (  -0.500000  -0.500000   0.500000 )  

     reciprocal axes: (cart. coord. in units 2 pi/alat)
               b(1) = (  1.000000  0.000000  1.000000 )  
               b(2) = ( -1.000000  1.000000  0.000000 )  
               b(3) = (  0.000000 -1.000000  1.000000 )  


     PseudoPot. # 1 for K  read from file:
     /home/lorenzo/pseudos/K/K.pz-spn-kjpaw_psl.1.0.0.UPF
     MD5 check sum: 59b94f4c1a6681f21e103574f2c5fc67
     Pseudo is Projector augmented-wave + core cor, Zval =  9.0
     Generated using "atomic" code by A. Dal Corso v.6.2.2
     Shape of augmentation charge: PSQ
     Using radial grid of 1165 points,  6 beta functions with: 
                l(1) =   0
                l(2) =   0
                l(3) =   1
                l(4) =   1
                l(5) =   2
                l(6) =   2
     Q(r) pseudized with 0 coefficients 


     atomic species   valence    mass     pseudopotential
        K              9.00    39.09830     K ( 1.00)

     48 Sym. Ops., with inversion, found



   Cartesian axes

     site n.     atom                  positions (alat units)
         1           K   tau(   1) = (   0.0000000   0.0000000   0.0000000  )

     number of k points=    29  gaussian smearing, width (Ry)=  0.0100
                       cart. coord. in units 2pi/alat
        k(    1) = (   0.0000000   0.0000000   0.0000000), wk =   0.0039062
        k(    2) = (   0.0000000  -0.1250000   0.1250000), wk =   0.0468750
        k(    3) = (   0.0000000  -0.2500000   0.2500000), wk =   0.0468750
        k(    4) = (   0.0000000  -0.3750000   0.3750000), wk =   0.0468750
        k(    5) = (   0.0000000   0.5000000  -0.5000000), wk =   0.0234375
        k(    6) = (  -0.1250000  -0.1250000   0.2500000), wk =   0.0937500
        k(    7) = (  -0.1250000  -0.2500000   0.3750000), wk =   0.1875000
        k(    8) = (  -0.1250000   0.6250000  -0.5000000), wk =   0.1875000
        k(    9) = (  -0.2500000   0.7500000  -0.5000000), wk =   0.0937500
        k(   10) = (  -0.2500000   0.6250000  -0.3750000), wk =   0.0937500
        k(   11) = (   0.0000000   0.0000000   0.2500000), wk =   0.0234375
        k(   12) = (   0.0000000  -0.1250000   0.3750000), wk =   0.0937500
        k(   13) = (   0.0000000  -0.2500000   0.5000000), wk =   0.0937500
        k(   14) = (   0.0000000   0.6250000  -0.3750000), wk =   0.0468750
        k(   15) = (  -0.1250000  -0.1250000   0.5000000), wk =   0.0937500
        k(   16) = (  -0.1250000   0.7500000  -0.3750000), wk =   0.1875000
        k(   17) = (  -0.2500000   0.2500000   0.2500000), wk =   0.0312500
        k(   18) = (  -0.2500000   0.7500000  -0.2500000), wk =   0.0312500
        k(   19) = (   0.6250000  -0.6250000   0.2500000), wk =   0.0937500
        k(   20) = (   0.5000000  -0.5000000   0.2500000), wk =   0.0468750
        k(   21) = (   0.5000000  -0.6250000   0.3750000), wk =   0.0937500
        k(   22) = (   0.0000000   0.0000000   0.5000000), wk =   0.0234375
        k(   23) = (   0.0000000  -0.1250000   0.6250000), wk =   0.0937500
        k(   24) = (   0.0000000   0.7500000  -0.2500000), wk =   0.0468750
        k(   25) = (  -0.1250000   0.8750000  -0.2500000), wk =   0.0937500
        k(   26) = (   0.5000000  -0.5000000   0.5000000), wk =   0.0078125
        k(   27) = (   0.0000000   0.0000000   0.7500000), wk =   0.0234375
        k(   28) = (   0.0000000   0.8750000  -0.1250000), wk =   0.0468750
        k(   29) = (   0.0000000   0.0000000  -1.0000000), wk =   0.0039062

     Dense  grid:    46361 G-vectors     FFT dimensions: (  50,  50,  50)

     Estimated max dynamical RAM per process >      41.35 MB

     Estimated total dynamical RAM >     206.77 MB

     Initial potential from superposition of free atoms

     starting charge    8.98437, renormalised to    9.00000
     Starting wfcs are    8 randomized atomic wfcs +    1 random wfcs
     Checking if some PAW data can be deallocated... 

     total cpu time spent up to now is        1.6 secs

     Self-consistent Calculation

     iteration #  1     ecut=    80.00 Ry     beta= 0.70
     Davidson diagonalization with overlap
     ethr =  1.00E-02,  avg # of iterations =  6.5

     Threshold (ethr) on eigenvalues was too large:
     Diagonalizing with lowered threshold

     Davidson diagonalization with overlap
     ethr =  1.22E-05,  avg # of iterations =  6.4

     total cpu time spent up to now is        5.9 secs

     total energy              =    -109.87141892 Ry
     Harris-Foulkes estimate   =    -109.87197293 Ry
     estimated scf accuracy    <       0.00110328 Ry

     iteration #  2     ecut=    80.00 Ry     beta= 0.70
     Davidson diagonalization with overlap
     ethr =  1.23E-05,  avg # of iterations =  2.1

     total cpu time spent up to now is        7.5 secs

     total energy              =    -109.87160512 Ry
     Harris-Foulkes estimate   =    -109.87163016 Ry
     estimated scf accuracy    <       0.00008936 Ry

     iteration #  3     ecut=    80.00 Ry     beta= 0.70
     Davidson diagonalization with overlap
     ethr =  9.93E-07,  avg # of iterations =  2.1

     total cpu time spent up to now is        9.0 secs

     total energy              =    -109.87161650 Ry
     Harris-Foulkes estimate   =    -109.87161623 Ry
     estimated scf accuracy    <       0.00000596 Ry

     iteration #  4     ecut=    80.00 Ry     beta= 0.70
     Davidson diagonalization with overlap
     ethr =  6.62E-08,  avg # of iterations =  1.4

     total cpu time spent up to now is       10.2 secs

     total energy              =    -109.87161719 Ry
     Harris-Foulkes estimate   =    -109.87161719 Ry
     estimated scf accuracy    <       0.00000004 Ry

     iteration #  5     ecut=    80.00 Ry     beta= 0.70
     Davidson diagonalization with overlap
     ethr =  4.50E-10,  avg # of iterations =  2.4

     total cpu time spent up to now is       12.2 secs

     End of self-consistent calculation

          k = 0.0000 0.0000 0.0000 (  5775 PWs)   bands (ev):

   -30.0987 -13.7368 -13.7368 -13.7368  -0.4767   5.9286   5.9286   6.8743
     6.8748

          k = 0.0000-0.1250 0.1250 (  5766 PWs)   bands (ev):

   -30.0979 -13.7486 -13.7407 -13.7368  -0.2766   5.6288   5.7063   6.0888
     6.6495

          k = 0.0000-0.2500 0.2500 (  5766 PWs)   bands (ev):

   -30.0961 -13.7770 -13.7502 -13.7367   0.3022   4.6610   5.2841   6.5582
     6.6843

          k = 0.0000-0.3750 0.3750 (  5798 PWs)   bands (ev):

   -30.0943 -13.8050 -13.7597 -13.7367   1.1936   3.5134   4.9543   6.6640
     7.0596

          k = 0.0000 0.5000-0.5000 (  5788 PWs)   bands (ev):

   -30.0935 -13.8165 -13.7636 -13.7367   2.1431   2.4884   4.8349   6.5321
     7.8346

          k =-0.1250-0.1250 0.2500 (  5759 PWs)   bands (ev):

   -30.0966 -13.7682 -13.7452 -13.7396   0.1133   5.0787   5.2816   6.3687
     6.4910

          k =-0.1250-0.2500 0.3750 (  5796 PWs)   bands (ev):

   -30.0948 -13.7933 -13.7566 -13.7407   0.8517   4.1236   4.8463   6.5260
     6.8131

          k =-0.1250 0.6250-0.5000 (  5796 PWs)   bands (ev):

   -30.0935 -13.8102 -13.7658 -13.7409   1.8488   3.0165   4.6146   6.3547
     7.1990

          k =-0.2500 0.7500-0.5000 (  5816 PWs)   bands (ev):

   -30.0935 -13.8019 -13.7701 -13.7450   1.7059   3.6271   4.1184   6.4591
     6.7125

          k =-0.2500 0.6250-0.3750 (  5795 PWs)   bands (ev):

   -30.0930 -13.8016 -13.7803 -13.7460   2.7309   2.7576   3.8109   6.2434
     7.0003

          k = 0.0000 0.0000 0.2500 (  5758 PWs)   bands (ev):

   -30.0972 -13.7516 -13.7447 -13.7447  -0.0796   5.6099   5.6099   5.9347
     6.1589

          k = 0.0000-0.1250 0.3750 (  5786 PWs)   bands (ev):

   -30.0954 -13.7762 -13.7544 -13.7462   0.4901   4.7250   5.2904   5.8516
     6.5731

          k = 0.0000-0.2500 0.5000 (  5812 PWs)   bands (ev):

   -30.0937 -13.8024 -13.7641 -13.7455   1.3685   3.6132   5.0058   5.8596
     7.0814

          k = 0.0000 0.6250-0.3750 (  5784 PWs)   bands (ev):

   -30.0929 -13.8133 -13.7681 -13.7452   2.3477   2.5715   4.8996   5.7549
     7.1326

          k =-0.1250-0.1250 0.5000 (  5784 PWs)   bands (ev):

   -30.0937 -13.7928 -13.7662 -13.7512   1.2035   4.1233   4.7917   5.8670
     6.7620

          k =-0.1250 0.7500-0.3750 (  5805 PWs)   bands (ev):

   -30.0925 -13.8050 -13.7770 -13.7516   2.1691   3.2328   4.3702   5.9249
     6.7478

          k =-0.2500 0.2500 0.2500 (  5768 PWs)   bands (ev):

   -30.0953 -13.7890 -13.7463 -13.7463   0.6737   4.5695   4.5695   6.5646
     6.9949

          k =-0.2500 0.7500-0.2500 (  5804 PWs)   bands (ev):

   -30.0920 -13.7949 -13.7949 -13.7527   3.0209   3.0209   3.5230   6.4915
     6.9761

          k = 0.6250-0.6250 0.2500 (  5787 PWs)   bands (ev):

   -30.0939 -13.8015 -13.7611 -13.7474   1.5431   3.6647   4.2558   6.2040
     7.1467

          k = 0.5000-0.5000 0.2500 (  5784 PWs)   bands (ev):

   -30.0934 -13.8043 -13.7696 -13.7479   2.5433   2.6695   4.1509   5.8934
     7.2772

          k = 0.5000-0.6250 0.3750 (  5785 PWs)   bands (ev):

   -30.0933 -13.7949 -13.7740 -13.7550   2.4746   3.3301   3.6203   5.4623
     7.2751

          k = 0.0000 0.0000 0.5000 (  5762 PWs)   bands (ev):

   -30.0938 -13.7781 -13.7646 -13.7646   1.0313   4.6027   5.2337   5.2337
     6.7662

          k = 0.0000-0.1250 0.6250 (  5791 PWs)   bands (ev):

   -30.0922 -13.7963 -13.7748 -13.7666   1.8584   3.8168   5.1148   5.1394
     6.3056

          k = 0.0000 0.7500-0.2500 (  5796 PWs)   bands (ev):

   -30.0915 -13.8054 -13.7790 -13.7657   2.8159   2.8867   4.9319   5.0577
     6.4838

          k =-0.1250 0.8750-0.2500 (  5791 PWs)   bands (ev):

   -30.0911 -13.7991 -13.7882 -13.7697   2.7013   3.4253   4.3061   5.6549
     6.0547

          k = 0.5000-0.5000 0.5000 (  5828 PWs)   bands (ev):

   -30.0932 -13.7756 -13.7756 -13.7756   3.2328   3.2328   3.2328   4.7545
     7.4341

          k = 0.0000 0.0000 0.7500 (  5782 PWs)   bands (ev):

   -30.0907 -13.7921 -13.7854 -13.7854   2.5567   3.7084   5.1945   5.1945
     5.4147

          k = 0.0000 0.8750-0.1250 (  5774 PWs)   bands (ev):

   -30.0900 -13.7975 -13.7898 -13.7859   3.1744   3.3533   4.8311   5.2173
     5.6896

          k = 0.0000 0.0000-1.0000 (  5858 PWs)   bands (ev):

   -30.0895 -13.7943 -13.7943 -13.7943   3.4011   5.2833   5.2833   5.2833
     7.2558

     the Fermi energy is     1.7669 ev

!    total energy              =    -109.87161721 Ry
     Harris-Foulkes estimate   =    -109.87161721 Ry
     estimated scf accuracy    <          3.8E-09 Ry

     total all-electron energy =     -1201.196617 Ry

     The total energy is the sum of the following terms:

     one-electron contribution =     -35.36973550 Ry
     hartree contribution      =      18.82585187 Ry
     xc contribution           =     -11.01685649 Ry
     ewald contribution        =     -29.89633970 Ry
     one-center paw contrib.   =     -52.41376715 Ry
     smearing contrib. (-TS)   =      -0.00077024 Ry

     convergence has been achieved in   5 iterations

     Forces acting on atoms (cartesian axes, Ry/au):

     atom    1 type  1   force =     0.00000000    0.00000000    0.00000000

     Total force =     0.000000     Total SCF correction =     0.000000


     Computing stress (Cartesian axis) and pressure

          total   stress  (Ry/bohr**3)                   (kbar)     P=   -3.90
  -0.00002649  -0.00000000   0.00000000         -3.90     -0.00      0.00
  -0.00000000  -0.00002649   0.00000000         -0.00     -3.90      0.00
   0.00000000   0.00000000  -0.00002649          0.00      0.00     -3.90


     Writing output data file K.save/

     init_run     :      0.77s CPU      0.81s WALL (       1 calls)
     electrons    :     10.34s CPU     10.68s WALL (       1 calls)
     forces       :      0.21s CPU      0.21s WALL (       1 calls)
     stress       :      0.77s CPU      0.77s WALL (       1 calls)

     Called by init_run:
     wfcinit      :      0.39s CPU      0.41s WALL (       1 calls)
     potinit      :      0.06s CPU      0.07s WALL (       1 calls)
     hinit0       :      0.21s CPU      0.22s WALL (       1 calls)

     Called by electrons:
     c_bands      :      8.19s CPU      8.46s WALL (       6 calls)
     sum_band     :      1.68s CPU      1.74s WALL (       6 calls)
     v_of_rho     :      0.02s CPU      0.02s WALL (       6 calls)
     newd         :      0.26s CPU      0.27s WALL (       6 calls)
     PAW_pot      :      0.25s CPU      0.25s WALL (       6 calls)
     mix_rho      :      0.01s CPU      0.01s WALL (       6 calls)

     Called by c_bands:
     init_us_2    :      0.30s CPU      0.30s WALL (     435 calls)
     cegterg      :      7.82s CPU      8.09s WALL (     174 calls)

     Called by sum_band:
     sum_band:bec :      0.00s CPU      0.00s WALL (     174 calls)
     addusdens    :      0.25s CPU      0.26s WALL (       6 calls)

     Called by *egterg:
     h_psi        :      6.56s CPU      6.82s WALL (     814 calls)
     s_psi        :      0.20s CPU      0.21s WALL (     814 calls)
     g_psi        :      0.02s CPU      0.02s WALL (     611 calls)
     cdiaghg      :      0.21s CPU      0.22s WALL (     756 calls)

     Called by h_psi:
     h_psi:pot    :      6.52s CPU      6.78s WALL (     814 calls)
     h_psi:calbec :      0.39s CPU      0.39s WALL (     814 calls)
     vloc_psi     :      5.90s CPU      6.15s WALL (     814 calls)
     add_vuspsi   :      0.23s CPU      0.23s WALL (     814 calls)

     General routines
     calbec       :      0.66s CPU      0.67s WALL (    1133 calls)
     fft          :      0.05s CPU      0.05s WALL (      34 calls)
     ffts         :      0.00s CPU      0.01s WALL (       6 calls)
     fftw         :      6.47s CPU      6.74s WALL (   10914 calls)

     Parallel routines
     fft_scatt_xy :      0.49s CPU      0.51s WALL (   10954 calls)
     fft_scatt_yz :      1.66s CPU      1.73s WALL (   10954 calls)

     PWSCF        :    12.91s CPU        13.42s WALL


   This run was terminated on:   1:13:10   8Apr2024            

=------------------------------------------------------------------------------=
   JOB DONE.
=------------------------------------------------------------------------------=
