
     Program PWSCF v.6.3MaX starts on  8Apr2024 at  1: 3:20 

     This program is part of the open-source Quantum ESPRESSO suite
     for quantum simulation of materials; please cite
         "P. Giannozzi et al., J. Phys.:Condens. Matter 21 395502 (2009);
         "P. Giannozzi et al., J. Phys.:Condens. Matter 29 465901 (2017);
          URL http://www.quantum-espresso.org", 
     in publications or presentations arising from this work. More details at
     http://www.quantum-espresso.org/quote

     Parallel version (MPI), running on     5 processors

     MPI processes distributed on     1 nodes
     R & G space division:  proc/nbgrp/npool/nimage =       5
     Waiting for input...
     Reading input from standard input

     Current dimensions of program PWSCF are:
     Max number of different atomic species (ntypx) = 10
     Max number of k-points (npk) =  40000
     Max angular momentum in pseudopotentials (lmaxx) =  3
               file K.pbe-spn-rrkjus_psl.1.0.0.UPF: wavefunction(s)  3S renormalized

     Subspace diagonalization in iterative solution of the eigenvalue problem:
     a serial algorithm will be used


     Parallelization info
     --------------------
     sticks:   dense  smooth     PW     G-vecs:    dense   smooth      PW
     Min         330     330     94                 8429     8429    1305
     Max         331     331     95                 8430     8430    1307
     Sum        1653    1653    471                42147    42147    6531



     bravais-lattice index     =            3
     lattice parameter (alat)  =       9.8600  a.u.
     unit-cell volume          =     479.2926 (a.u.)^3
     number of atoms/cell      =            1
     number of atomic types    =            1
     number of electrons       =         9.00
     number of Kohn-Sham states=            9
     kinetic-energy cutoff     =      75.0000  Ry
     charge density cutoff     =     300.0000  Ry
     convergence threshold     =      1.0E-08
     mixing beta               =       0.7000
     number of iterations used =            8  plain     mixing
     Exchange-correlation      = PBE ( 1  4  3  4 0 0)

     celldm(1)=   9.860000  celldm(2)=   0.000000  celldm(3)=   0.000000
     celldm(4)=   0.000000  celldm(5)=   0.000000  celldm(6)=   0.000000

     crystal axes: (cart. coord. in units of alat)
               a(1) = (   0.500000   0.500000   0.500000 )  
               a(2) = (  -0.500000   0.500000   0.500000 )  
               a(3) = (  -0.500000  -0.500000   0.500000 )  

     reciprocal axes: (cart. coord. in units 2 pi/alat)
               b(1) = (  1.000000  0.000000  1.000000 )  
               b(2) = ( -1.000000  1.000000  0.000000 )  
               b(3) = (  0.000000 -1.000000  1.000000 )  


     PseudoPot. # 1 for K  read from file:
     /home/lorenzo/pseudos/K/K.pbe-spn-rrkjus_psl.1.0.0.UPF
     MD5 check sum: 897b700350bb708b0563e904352feb48
     Pseudo is Ultrasoft + core correction, Zval =  9.0
     Generated using "atomic" code by A. Dal Corso v.6.2.2
     Using radial grid of 1165 points,  6 beta functions with: 
                l(1) =   0
                l(2) =   0
                l(3) =   1
                l(4) =   1
                l(5) =   2
                l(6) =   2
     Q(r) pseudized with 0 coefficients 


     atomic species   valence    mass     pseudopotential
        K              9.00    39.09830     K ( 1.00)

     48 Sym. Ops., with inversion, found



   Cartesian axes

     site n.     atom                  positions (alat units)
         1           K   tau(   1) = (   0.0000000   0.0000000   0.0000000  )

     number of k points=     8  gaussian smearing, width (Ry)=  0.0100
                       cart. coord. in units 2pi/alat
        k(    1) = (   0.0000000   0.0000000   0.0000000), wk =   0.0312500
        k(    2) = (   0.0000000  -0.2500000   0.2500000), wk =   0.3750000
        k(    3) = (   0.0000000   0.5000000  -0.5000000), wk =   0.1875000
        k(    4) = (  -0.2500000   0.7500000  -0.5000000), wk =   0.7500000
        k(    5) = (   0.0000000   0.0000000   0.5000000), wk =   0.1875000
        k(    6) = (   0.0000000   0.7500000  -0.2500000), wk =   0.3750000
        k(    7) = (   0.5000000  -0.5000000   0.5000000), wk =   0.0625000
        k(    8) = (   0.0000000   0.0000000  -1.0000000), wk =   0.0312500

     Dense  grid:    42147 G-vectors     FFT dimensions: (  48,  48,  48)

     Estimated max dynamical RAM per process >      34.71 MB

     Estimated total dynamical RAM >     173.55 MB

     Check: negative/imaginary core charge=   -0.000002    0.000000

     Initial potential from superposition of free atoms

     starting charge    8.98117, renormalised to    9.00000
     Starting wfcs are    8 randomized atomic wfcs +    1 random wfcs

     total cpu time spent up to now is        1.3 secs

     Self-consistent Calculation

     iteration #  1     ecut=    75.00 Ry     beta= 0.70
     Davidson diagonalization with overlap
     ethr =  1.00E-02,  avg # of iterations =  7.5

     Threshold (ethr) on eigenvalues was too large:
     Diagonalizing with lowered threshold

     Davidson diagonalization with overlap
     ethr =  1.49E-05,  avg # of iterations =  6.0

     total cpu time spent up to now is        2.5 secs

     total energy              =     -58.76970578 Ry
     Harris-Foulkes estimate   =     -58.77021183 Ry
     estimated scf accuracy    <       0.00126912 Ry

     iteration #  2     ecut=    75.00 Ry     beta= 0.70
     Davidson diagonalization with overlap
     ethr =  1.41E-05,  avg # of iterations =  2.0

     total cpu time spent up to now is        3.0 secs

     total energy              =     -58.76993738 Ry
     Harris-Foulkes estimate   =     -58.76993787 Ry
     estimated scf accuracy    <       0.00010236 Ry

     iteration #  3     ecut=    75.00 Ry     beta= 0.70
     Davidson diagonalization with overlap
     ethr =  1.14E-06,  avg # of iterations =  2.9

     total cpu time spent up to now is        3.4 secs

     total energy              =     -58.76994755 Ry
     Harris-Foulkes estimate   =     -58.76994475 Ry
     estimated scf accuracy    <       0.00000692 Ry

     iteration #  4     ecut=    75.00 Ry     beta= 0.70
     Davidson diagonalization with overlap
     ethr =  7.69E-08,  avg # of iterations =  1.5

     total cpu time spent up to now is        3.7 secs

     total energy              =     -58.76994806 Ry
     Harris-Foulkes estimate   =     -58.76994806 Ry
     estimated scf accuracy    <       0.00000005 Ry

     iteration #  5     ecut=    75.00 Ry     beta= 0.70
     Davidson diagonalization with overlap
     ethr =  5.50E-10,  avg # of iterations =  2.9

     total cpu time spent up to now is        4.2 secs

     End of self-consistent calculation

          k = 0.0000 0.0000 0.0000 (  5281 PWs)   bands (ev):

   -30.1634 -13.6123 -13.6123 -13.6123  -0.2620   6.2641   6.2641   6.2641
     7.1823

          k = 0.0000-0.2500 0.2500 (  5269 PWs)   bands (ev):

   -30.1610 -13.6509 -13.6251 -13.6122   0.5128   4.9034   5.5842   6.8904
     7.0051

          k = 0.0000 0.5000-0.5000 (  5284 PWs)   bands (ev):

   -30.1586 -13.6887 -13.6379 -13.6122   2.3888   2.6479   5.1205   6.8721
     7.9891

          k =-0.2500 0.7500-0.5000 (  5250 PWs)   bands (ev):

   -30.1586 -13.6746 -13.6442 -13.6201   1.9104   3.8314   4.3655   6.7979
     7.0269

          k = 0.0000 0.0000 0.5000 (  5258 PWs)   bands (ev):

   -30.1588 -13.6519 -13.6389 -13.6389   1.2365   4.8175   5.5067   5.5067
     7.0910

          k = 0.0000 0.7500-0.2500 (  5278 PWs)   bands (ev):

   -30.1567 -13.6780 -13.6526 -13.6400   2.9887   3.1108   5.2003   5.3177
     6.7719

          k = 0.5000-0.5000 0.5000 (  5216 PWs)   bands (ev):

   -30.1583 -13.6495 -13.6495 -13.6495   3.4265   3.4265   3.4265   5.1278
     7.7851

          k = 0.0000 0.0000-1.0000 (  5162 PWs)   bands (ev):

   -30.1547 -13.6673 -13.6673 -13.6673   3.5989   3.5989   5.5109   5.5109
     5.5109

     the Fermi energy is     1.9204 ev

!    total energy              =     -58.76994807 Ry
     Harris-Foulkes estimate   =     -58.76994808 Ry
     estimated scf accuracy    <          1.2E-09 Ry

     The total energy is the sum of the following terms:

     one-electron contribution =     -36.58274681 Ry
     hartree contribution      =      18.88153926 Ry
     xc contribution           =     -11.17029666 Ry
     ewald contribution        =     -29.89633970 Ry
     smearing contrib. (-TS)   =      -0.00210416 Ry

     convergence has been achieved in   5 iterations

     Forces acting on atoms (cartesian axes, Ry/au):

     atom    1 type  1   force =     0.00000000    0.00000000    0.00000000

     Total force =     0.000000     Total SCF correction =     0.000000


     Computing stress (Cartesian axis) and pressure

          total   stress  (Ry/bohr**3)                   (kbar)     P=    2.32
   0.00001574  -0.00000000   0.00000000          2.32     -0.00      0.00
  -0.00000000   0.00001574  -0.00000000         -0.00      2.32     -0.00
   0.00000000  -0.00000000   0.00001574          0.00     -0.00      2.32


     Writing output data file K.save/

     init_run     :      0.46s CPU      0.48s WALL (       1 calls)
     electrons    :      2.81s CPU      2.92s WALL (       1 calls)
     forces       :      0.12s CPU      0.13s WALL (       1 calls)
     stress       :      0.43s CPU      0.44s WALL (       1 calls)

     Called by init_run:
     wfcinit      :      0.11s CPU      0.12s WALL (       1 calls)
     potinit      :      0.03s CPU      0.03s WALL (       1 calls)
     hinit0       :      0.22s CPU      0.23s WALL (       1 calls)

     Called by electrons:
     c_bands      :      1.92s CPU      2.00s WALL (       6 calls)
     sum_band     :      0.56s CPU      0.57s WALL (       6 calls)
     v_of_rho     :      0.13s CPU      0.14s WALL (       6 calls)
     newd         :      0.25s CPU      0.25s WALL (       6 calls)
     mix_rho      :      0.01s CPU      0.01s WALL (       6 calls)

     Called by c_bands:
     init_us_2    :      0.08s CPU      0.08s WALL (     120 calls)
     cegterg      :      1.83s CPU      1.91s WALL (      48 calls)

     Called by sum_band:
     sum_band:bec :      0.00s CPU      0.00s WALL (      48 calls)
     addusdens    :      0.23s CPU      0.24s WALL (       6 calls)

     Called by *egterg:
     h_psi        :      1.48s CPU      1.56s WALL (     238 calls)
     s_psi        :      0.05s CPU      0.05s WALL (     238 calls)
     g_psi        :      0.00s CPU      0.01s WALL (     182 calls)
     cdiaghg      :      0.06s CPU      0.06s WALL (     222 calls)

     Called by h_psi:
     h_psi:pot    :      1.47s CPU      1.55s WALL (     238 calls)
     h_psi:calbec :      0.10s CPU      0.10s WALL (     238 calls)
     vloc_psi     :      1.32s CPU      1.38s WALL (     238 calls)
     add_vuspsi   :      0.05s CPU      0.06s WALL (     238 calls)

     General routines
     calbec       :      0.15s CPU      0.15s WALL (     326 calls)
     fft          :      0.08s CPU      0.09s WALL (      93 calls)
     ffts         :      0.00s CPU      0.00s WALL (       6 calls)
     fftw         :      1.41s CPU      1.48s WALL (    2922 calls)

     Parallel routines
     fft_scatt_xy :      0.12s CPU      0.12s WALL (    3021 calls)
     fft_scatt_yz :      0.41s CPU      0.44s WALL (    3021 calls)

     PWSCF        :     4.64s CPU         4.82s WALL


   This run was terminated on:   1: 3:24   8Apr2024            

=------------------------------------------------------------------------------=
   JOB DONE.
=------------------------------------------------------------------------------=
