
     Program PWSCF v.6.3MaX starts on  8Apr2024 at  1: 1:50 

     This program is part of the open-source Quantum ESPRESSO suite
     for quantum simulation of materials; please cite
         "P. Giannozzi et al., J. Phys.:Condens. Matter 21 395502 (2009);
         "P. Giannozzi et al., J. Phys.:Condens. Matter 29 465901 (2017);
          URL http://www.quantum-espresso.org", 
     in publications or presentations arising from this work. More details at
     http://www.quantum-espresso.org/quote

     Parallel version (MPI), running on     5 processors

     MPI processes distributed on     1 nodes
     R & G space division:  proc/nbgrp/npool/nimage =       5
     Waiting for input...
     Reading input from standard input

     Current dimensions of program PWSCF are:
     Max number of different atomic species (ntypx) = 10
     Max number of k-points (npk) =  40000
     Max angular momentum in pseudopotentials (lmaxx) =  3
               file K.pz-spn-kjpaw_psl.1.0.0.UPF: wavefunction(s)  3S renormalized

     Subspace diagonalization in iterative solution of the eigenvalue problem:
     a serial algorithm will be used


     Parallelization info
     --------------------
     sticks:   dense  smooth     PW     G-vecs:    dense   smooth      PW
     Min         330     330     94                 8429     8429    1305
     Max         331     331     95                 8430     8430    1307
     Sum        1653    1653    471                42147    42147    6531



     bravais-lattice index     =            3
     lattice parameter (alat)  =       9.8600  a.u.
     unit-cell volume          =     479.2926 (a.u.)^3
     number of atoms/cell      =            1
     number of atomic types    =            1
     number of electrons       =         9.00
     number of Kohn-Sham states=            9
     kinetic-energy cutoff     =      75.0000  Ry
     charge density cutoff     =     300.0000  Ry
     convergence threshold     =      1.0E-08
     mixing beta               =       0.7000
     number of iterations used =            8  plain     mixing
     Exchange-correlation      = SLA PZ NOGX NOGC ( 1  1  0  0 0 0)

     celldm(1)=   9.860000  celldm(2)=   0.000000  celldm(3)=   0.000000
     celldm(4)=   0.000000  celldm(5)=   0.000000  celldm(6)=   0.000000

     crystal axes: (cart. coord. in units of alat)
               a(1) = (   0.500000   0.500000   0.500000 )  
               a(2) = (  -0.500000   0.500000   0.500000 )  
               a(3) = (  -0.500000  -0.500000   0.500000 )  

     reciprocal axes: (cart. coord. in units 2 pi/alat)
               b(1) = (  1.000000  0.000000  1.000000 )  
               b(2) = ( -1.000000  1.000000  0.000000 )  
               b(3) = (  0.000000 -1.000000  1.000000 )  


     PseudoPot. # 1 for K  read from file:
     /home/lorenzo/pseudos/K/K.pz-spn-kjpaw_psl.1.0.0.UPF
     MD5 check sum: 59b94f4c1a6681f21e103574f2c5fc67
     Pseudo is Projector augmented-wave + core cor, Zval =  9.0
     Generated using "atomic" code by A. Dal Corso v.6.2.2
     Shape of augmentation charge: PSQ
     Using radial grid of 1165 points,  6 beta functions with: 
                l(1) =   0
                l(2) =   0
                l(3) =   1
                l(4) =   1
                l(5) =   2
                l(6) =   2
     Q(r) pseudized with 0 coefficients 


     atomic species   valence    mass     pseudopotential
        K              9.00    39.09830     K ( 1.00)

     48 Sym. Ops., with inversion, found



   Cartesian axes

     site n.     atom                  positions (alat units)
         1           K   tau(   1) = (   0.0000000   0.0000000   0.0000000  )

     number of k points=    56  gaussian smearing, width (Ry)=  0.0100
                       cart. coord. in units 2pi/alat
        k(    1) = (   0.0000000   0.0000000   0.0000000), wk =   0.0015026
        k(    2) = (   0.0000000  -0.0909091   0.0909091), wk =   0.0180316
        k(    3) = (   0.0000000  -0.1818182   0.1818182), wk =   0.0180316
        k(    4) = (   0.0000000  -0.2727273   0.2727273), wk =   0.0180316
        k(    5) = (   0.0000000  -0.3636364   0.3636364), wk =   0.0180316
        k(    6) = (   0.0000000  -0.4545455   0.4545455), wk =   0.0180316
        k(    7) = (  -0.0909091  -0.0909091   0.1818182), wk =   0.0360631
        k(    8) = (  -0.0909091  -0.1818182   0.2727273), wk =   0.0721262
        k(    9) = (  -0.0909091  -0.2727273   0.3636364), wk =   0.0721262
        k(   10) = (  -0.0909091  -0.3636364   0.4545455), wk =   0.0721262
        k(   11) = (  -0.0909091   0.5454545  -0.4545455), wk =   0.0360631
        k(   12) = (  -0.1818182  -0.1818182   0.3636364), wk =   0.0360631
        k(   13) = (  -0.1818182  -0.2727273   0.4545455), wk =   0.0721262
        k(   14) = (  -0.1818182   0.6363636  -0.4545455), wk =   0.0721262
        k(   15) = (  -0.2727273   0.7272727  -0.4545455), wk =   0.0360631
        k(   16) = (  -0.2727273   0.6363636  -0.3636364), wk =   0.0360631
        k(   17) = (   0.0000000   0.0000000   0.1818182), wk =   0.0090158
        k(   18) = (   0.0000000  -0.0909091   0.2727273), wk =   0.0360631
        k(   19) = (   0.0000000  -0.1818182   0.3636364), wk =   0.0360631
        k(   20) = (   0.0000000  -0.2727273   0.4545455), wk =   0.0360631
        k(   21) = (   0.0000000  -0.3636364   0.5454545), wk =   0.0360631
        k(   22) = (  -0.0909091  -0.0909091   0.3636364), wk =   0.0360631
        k(   23) = (  -0.0909091  -0.1818182   0.4545455), wk =   0.0721262
        k(   24) = (  -0.0909091  -0.2727273   0.5454545), wk =   0.0721262
        k(   25) = (  -0.0909091   0.6363636  -0.3636364), wk =   0.0360631
        k(   26) = (  -0.1818182   0.1818182   0.1818182), wk =   0.0120210
        k(   27) = (  -0.1818182  -0.1818182   0.5454545), wk =   0.0360631
        k(   28) = (  -0.1818182   0.7272727  -0.3636364), wk =   0.0721262
        k(   29) = (  -0.2727273   0.2727273   0.1818182), wk =   0.0360631
        k(   30) = (  -0.2727273   0.7272727  -0.2727273), wk =   0.0120210
        k(   31) = (  -0.3636364   0.3636364   0.1818182), wk =   0.0360631
        k(   32) = (  -0.3636364   0.2727273   0.2727273), wk =   0.0360631
        k(   33) = (   0.5454545  -0.5454545   0.1818182), wk =   0.0360631
        k(   34) = (   0.5454545  -0.6363636   0.2727273), wk =   0.0721262
        k(   35) = (   0.4545455  -0.5454545   0.2727273), wk =   0.0360631
        k(   36) = (   0.4545455  -0.6363636   0.3636364), wk =   0.0360631
        k(   37) = (   0.0000000   0.0000000   0.3636364), wk =   0.0090158
        k(   38) = (   0.0000000  -0.0909091   0.4545455), wk =   0.0360631
        k(   39) = (   0.0000000  -0.1818182   0.5454545), wk =   0.0360631
        k(   40) = (   0.0000000  -0.2727273   0.6363636), wk =   0.0360631
        k(   41) = (  -0.0909091  -0.0909091   0.5454545), wk =   0.0360631
        k(   42) = (  -0.0909091  -0.1818182   0.6363636), wk =   0.0721262
        k(   43) = (  -0.0909091   0.7272727  -0.2727273), wk =   0.0360631
        k(   44) = (  -0.1818182   0.8181818  -0.2727273), wk =   0.0360631
        k(   45) = (   0.6363636  -0.6363636   0.3636364), wk =   0.0120210
        k(   46) = (   0.5454545  -0.5454545   0.3636364), wk =   0.0360631
        k(   47) = (   0.4545455  -0.5454545   0.4545455), wk =   0.0120210
        k(   48) = (   0.0000000   0.0000000   0.5454545), wk =   0.0090158
        k(   49) = (   0.0000000  -0.0909091   0.6363636), wk =   0.0360631
        k(   50) = (   0.0000000  -0.1818182   0.7272727), wk =   0.0360631
        k(   51) = (  -0.0909091  -0.0909091   0.7272727), wk =   0.0360631
        k(   52) = (  -0.0909091   0.8181818  -0.1818182), wk =   0.0360631
        k(   53) = (   0.0000000   0.0000000   0.7272727), wk =   0.0090158
        k(   54) = (   0.0000000  -0.0909091   0.8181818), wk =   0.0360631
        k(   55) = (  -0.0909091   0.9090909  -0.0909091), wk =   0.0120210
        k(   56) = (   0.0000000   0.0000000   0.9090909), wk =   0.0090158

     Dense  grid:    42147 G-vectors     FFT dimensions: (  48,  48,  48)

     Estimated max dynamical RAM per process >      41.64 MB

     Estimated total dynamical RAM >     208.19 MB

     Check: negative/imaginary core charge=   -0.000002    0.000000

     Initial potential from superposition of free atoms

     starting charge    8.98437, renormalised to    9.00000
     Starting wfcs are    8 randomized atomic wfcs +    1 random wfcs
     Checking if some PAW data can be deallocated... 

     total cpu time spent up to now is        1.8 secs

     Self-consistent Calculation

     iteration #  1     ecut=    75.00 Ry     beta= 0.70
     Davidson diagonalization with overlap
     ethr =  1.00E-02,  avg # of iterations =  6.5

     Threshold (ethr) on eigenvalues was too large:
     Diagonalizing with lowered threshold

     Davidson diagonalization with overlap
     ethr =  1.22E-05,  avg # of iterations =  5.8

     total cpu time spent up to now is        9.2 secs

     total energy              =    -109.87179537 Ry
     Harris-Foulkes estimate   =    -109.87235191 Ry
     estimated scf accuracy    <       0.00110691 Ry

     iteration #  2     ecut=    75.00 Ry     beta= 0.70
     Davidson diagonalization with overlap
     ethr =  1.23E-05,  avg # of iterations =  2.2

     total cpu time spent up to now is       12.0 secs

     total energy              =    -109.87198233 Ry
     Harris-Foulkes estimate   =    -109.87200756 Ry
     estimated scf accuracy    <       0.00008958 Ry

     iteration #  3     ecut=    75.00 Ry     beta= 0.70
     Davidson diagonalization with overlap
     ethr =  9.95E-07,  avg # of iterations =  2.2

     total cpu time spent up to now is       14.7 secs

     total energy              =    -109.87199373 Ry
     Harris-Foulkes estimate   =    -109.87199347 Ry
     estimated scf accuracy    <       0.00000597 Ry

     iteration #  4     ecut=    75.00 Ry     beta= 0.70
     Davidson diagonalization with overlap
     ethr =  6.63E-08,  avg # of iterations =  1.5

     total cpu time spent up to now is       16.9 secs

     total energy              =    -109.87199441 Ry
     Harris-Foulkes estimate   =    -109.87199441 Ry
     estimated scf accuracy    <       0.00000004 Ry

     iteration #  5     ecut=    75.00 Ry     beta= 0.70
     Davidson diagonalization with overlap
     ethr =  4.44E-10,  avg # of iterations =  2.6

     total cpu time spent up to now is       19.9 secs

     End of self-consistent calculation

          k = 0.0000 0.0000 0.0000 (  5281 PWs)   bands (ev):

   -30.0990 -13.7372 -13.7372 -13.7372  -0.4767   5.9286   5.9286   6.8742
     6.8743

          k = 0.0000-0.0909 0.0909 (  5281 PWs)   bands (ev):

   -30.0986 -13.7436 -13.7393 -13.7372  -0.3704   5.7870   5.8033   6.0136
     6.7092

          k = 0.0000-0.1818 0.1818 (  5263 PWs)   bands (ev):

   -30.0975 -13.7608 -13.7451 -13.7372  -0.0575   5.2383   5.5169   6.2654
     6.6322

          k = 0.0000-0.2727 0.2727 (  5251 PWs)   bands (ev):

   -30.0961 -13.7831 -13.7525 -13.7371   0.4437   4.4573   5.2121   6.6744
     6.7005

          k = 0.0000-0.3636 0.3636 (  5265 PWs)   bands (ev):

   -30.0947 -13.8034 -13.7594 -13.7371   1.1024   3.6196   4.9766   6.6779
     7.0316

          k = 0.0000-0.4545 0.4545 (  5252 PWs)   bands (ev):

   -30.0939 -13.8153 -13.7635 -13.7371   1.8625   2.7787   4.8510   6.5552
     7.2827

          k =-0.0909-0.0909 0.1818 (  5271 PWs)   bands (ev):

   -30.0979 -13.7555 -13.7416 -13.7388  -0.1607   5.4770   5.5563   6.1742
     6.5385

          k =-0.0909-0.1818 0.2727 (  5250 PWs)   bands (ev):

   -30.0966 -13.7744 -13.7485 -13.7394   0.2468   4.8426   5.2237   6.4691
     6.5244

          k =-0.0909-0.2727 0.3636 (  5251 PWs)   bands (ev):

   -30.0952 -13.7943 -13.7568 -13.7395   0.8284   4.0621   4.9479   6.5537
     6.8826

          k =-0.0909-0.3636 0.4545 (  5246 PWs)   bands (ev):

   -30.0941 -13.8092 -13.7633 -13.7396   1.5458   3.2364   4.7691   6.4616
     7.1872

          k =-0.0909 0.5455-0.4545 (  5254 PWs)   bands (ev):

   -30.0937 -13.8148 -13.7658 -13.7396   2.2257   2.5232   4.7075   6.3745
     7.3333

          k =-0.1818-0.1818 0.3636 (  5245 PWs)   bands (ev):

   -30.0954 -13.7896 -13.7551 -13.7425   0.7359   4.3695   4.7830   6.5356
     6.6698

          k =-0.1818-0.2727 0.4545 (  5263 PWs)   bands (ev):

   -30.0943 -13.8016 -13.7646 -13.7438   1.3812   3.7284   4.4597   6.4857
     6.8015

          k =-0.1818 0.6364-0.4545 (  5261 PWs)   bands (ev):

   -30.0936 -13.8079 -13.7714 -13.7442   2.1357   2.9610   4.3046   6.2760
     7.0810

          k =-0.2727 0.7273-0.4545 (  5260 PWs)   bands (ev):

   -30.0935 -13.8021 -13.7763 -13.7462   2.0676   3.4204   3.8724   6.3489
     6.7904

          k =-0.2727 0.6364-0.3636 (  5254 PWs)   bands (ev):

   -30.0933 -13.7994 -13.7839 -13.7468   2.8103   2.8290   3.6393   6.2467
     6.9738

          k = 0.0000 0.0000 0.1818 (  5281 PWs)   bands (ev):

   -30.0982 -13.7455 -13.7415 -13.7415  -0.2650   5.7376   5.7376   6.0515
     6.3059

          k = 0.0000-0.0909 0.2727 (  5261 PWs)   bands (ev):

   -30.0971 -13.7609 -13.7473 -13.7425   0.0453   5.2723   5.5008   6.0807
     6.2765

          k = 0.0000-0.1818 0.3636 (  5244 PWs)   bands (ev):

   -30.0957 -13.7824 -13.7549 -13.7422   0.5425   4.4961   5.2234   6.1225
     6.6749

          k = 0.0000-0.2727 0.4545 (  5254 PWs)   bands (ev):

   -30.0944 -13.8020 -13.7618 -13.7419   1.1962   3.6719   5.0036   6.1305
     7.1731

          k = 0.0000-0.3636 0.5455 (  5256 PWs)   bands (ev):

   -30.0936 -13.8136 -13.7659 -13.7418   1.9552   2.8385   4.8851   6.0475
     7.2157

          k =-0.0909-0.0909 0.3636 (  5248 PWs)   bands (ev):

   -30.0959 -13.7755 -13.7538 -13.7461   0.4458   4.8097   5.2038   5.9519
     6.5328

          k =-0.0909-0.1818 0.4545 (  5255 PWs)   bands (ev):

   -30.0946 -13.7930 -13.7622 -13.7468   1.0177   4.1247   4.9021   6.0148
     6.8513

          k =-0.0909-0.2727 0.5455 (  5258 PWs)   bands (ev):

   -30.0935 -13.8065 -13.7691 -13.7468   1.7246   3.3481   4.7021   5.9694
     6.9674

          k =-0.0909 0.6364-0.3636 (  5261 PWs)   bands (ev):

   -30.0932 -13.8115 -13.7716 -13.7467   2.4385   2.6118   4.6306   5.9028
     7.6234

          k =-0.1818 0.1818 0.1818 (  5249 PWs)   bands (ev):

   -30.0969 -13.7718 -13.7420 -13.7420   0.1465   5.0939   5.0939   6.3976
     6.8292

          k =-0.1818-0.1818 0.5455 (  5269 PWs)   bands (ev):

   -30.0935 -13.8009 -13.7728 -13.7489   1.6448   3.7300   4.3580   6.1924
     6.6401

          k =-0.1818 0.7273-0.3636 (  5266 PWs)   bands (ev):

   -30.0929 -13.8041 -13.7814 -13.7494   2.3791   3.1357   4.0202   6.2263
     6.7645

          k =-0.2727 0.2727 0.1818 (  5260 PWs)   bands (ev):

   -30.0957 -13.7887 -13.7505 -13.7424   0.6400   4.4419   4.7723   6.6021
     6.8874

          k =-0.2727 0.7273-0.2727 (  5282 PWs)   bands (ev):

   -30.0926 -13.7947 -13.7947 -13.7501   2.9984   2.9984   3.4317   6.6457
     6.8074

          k =-0.3636 0.3636 0.1818 (  5259 PWs)   bands (ev):

   -30.0945 -13.8021 -13.7602 -13.7429   1.2908   3.6966   4.5481   6.5144
     7.0892

          k =-0.3636 0.2727 0.2727 (  5259 PWs)   bands (ev):

   -30.0947 -13.7985 -13.7569 -13.7472   1.2043   4.0394   4.3113   6.4073
     7.0031

          k = 0.5455-0.5455 0.1818 (  5256 PWs)   bands (ev):

   -30.0938 -13.8094 -13.7666 -13.7431   2.0485   2.8997   4.4338   6.2831
     7.3122

          k = 0.5455-0.6364 0.2727 (  5254 PWs)   bands (ev):

   -30.0939 -13.8022 -13.7675 -13.7489   1.9034   3.4305   4.0674   6.0043
     7.1336

          k = 0.4545-0.5455 0.2727 (  5242 PWs)   bands (ev):

   -30.0936 -13.8022 -13.7730 -13.7494   2.6391   2.7162   3.9968   5.8263
     7.2338

          k = 0.4545-0.6364 0.3636 (  5237 PWs)   bands (ev):

   -30.0935 -13.7949 -13.7796 -13.7521   2.6108   3.2150   3.5254   5.6324
     7.2164

          k = 0.0000 0.0000 0.3636 (  5257 PWs)   bands (ev):

   -30.0961 -13.7645 -13.7533 -13.7533   0.3478   5.2966   5.4050   5.4050
     6.4043

          k = 0.0000-0.0909 0.4545 (  5253 PWs)   bands (ev):

   -30.0947 -13.7809 -13.7611 -13.7554   0.8320   4.5673   5.2325   5.4871
     6.7295

          k = 0.0000-0.1818 0.5455 (  5260 PWs)   bands (ev):

   -30.0935 -13.7985 -13.7682 -13.7548   1.4685   3.8070   5.0700   5.4783
     6.7962

          k = 0.0000-0.2727 0.6364 (  5263 PWs)   bands (ev):

   -30.0928 -13.8090 -13.7724 -13.7542   2.2132   3.0185   4.9768   5.3521
     6.8514

          k =-0.0909-0.0909 0.5455 (  5281 PWs)   bands (ev):

   -30.0935 -13.7919 -13.7702 -13.7592   1.3818   4.1217   4.8957   5.5671
     6.5938

          k =-0.0909-0.1818 0.6364 (  5264 PWs)   bands (ev):

   -30.0925 -13.8020 -13.7780 -13.7592   2.0582   3.5267   4.5580   5.6482
     6.4903

          k =-0.0909 0.7273-0.2727 (  5259 PWs)   bands (ev):

   -30.0922 -13.8059 -13.7810 -13.7591   2.7868   2.8216   4.4321   5.6224
     6.6225

          k =-0.1818 0.8182-0.2727 (  5262 PWs)   bands (ev):

   -30.0919 -13.8002 -13.7896 -13.7599   2.7250   3.2727   3.9159   6.0341
     6.3381

          k = 0.6364-0.6364 0.3636 (  5243 PWs)   bands (ev):

   -30.0940 -13.7998 -13.7585 -13.7585   1.8236   3.8220   3.8220   5.7667
     7.2863

          k = 0.5455-0.5455 0.3636 (  5239 PWs)   bands (ev):

   -30.0937 -13.7945 -13.7712 -13.7595   2.5378   3.2429   3.7147   5.2798
     7.3389

          k = 0.4545-0.5455 0.4545 (  5237 PWs)   bands (ev):

   -30.0936 -13.7815 -13.7815 -13.7648   3.1135   3.1135   3.3706   4.9432
     7.4102

          k = 0.0000 0.0000 0.5455 (  5266 PWs)   bands (ev):

   -30.0935 -13.7823 -13.7692 -13.7692   1.2929   4.3998   5.2011   5.2011
     6.4674

          k = 0.0000-0.0909 0.6364 (  5259 PWs)   bands (ev):

   -30.0923 -13.7940 -13.7766 -13.7713   1.8919   3.9043   5.1158   5.1409
     6.1265

          k = 0.0000-0.1818 0.7273 (  5254 PWs)   bands (ev):

   -30.0916 -13.8030 -13.7810 -13.7704   2.5770   3.2873   4.8817   5.0962
     6.2860

          k =-0.0909-0.0909 0.7273 (  5265 PWs)   bands (ev):

   -30.0914 -13.7981 -13.7857 -13.7737   2.4988   3.5887   4.6012   5.4593
     5.9450

          k =-0.0909 0.8182-0.1818 (  5260 PWs)   bands (ev):

   -30.0911 -13.7998 -13.7900 -13.7735   3.0352   3.2074   4.3375   5.5541
     6.0323

          k = 0.0000 0.0000 0.7273 (  5250 PWs)   bands (ev):

   -30.0912 -13.7919 -13.7843 -13.7843   2.4193   3.7661   5.1864   5.1864
     5.4929

          k = 0.0000-0.0909 0.8182 (  5276 PWs)   bands (ev):

   -30.0906 -13.7975 -13.7888 -13.7851   2.9659   3.4677   4.8677   5.2039
     5.6819

          k =-0.0909 0.9091-0.0909 (  5261 PWs)   bands (ev):

   -30.0903 -13.7952 -13.7952 -13.7861   3.3045   3.3045   4.7171   5.5003
     5.5003

          k = 0.0000 0.0000 0.9091 (  5254 PWs)   bands (ev):

   -30.0899 -13.7945 -13.7934 -13.7934   3.2837   3.4417   5.2326   5.2662
     5.2662

     the Fermi energy is     1.7632 ev

!    total energy              =    -109.87199443 Ry
     Harris-Foulkes estimate   =    -109.87199443 Ry
     estimated scf accuracy    <          3.9E-09 Ry

     total all-electron energy =     -1201.196994 Ry

     The total energy is the sum of the following terms:

     one-electron contribution =     -35.37021379 Ry
     hartree contribution      =      18.82556930 Ry
     xc contribution           =     -11.01678610 Ry
     ewald contribution        =     -29.89633970 Ry
     one-center paw contrib.   =     -52.41378434 Ry
     smearing contrib. (-TS)   =      -0.00043981 Ry

     convergence has been achieved in   5 iterations

     Forces acting on atoms (cartesian axes, Ry/au):

     atom    1 type  1   force =     0.00000000    0.00000000    0.00000000

     Total force =     0.000000     Total SCF correction =     0.000000


     Computing stress (Cartesian axis) and pressure

          total   stress  (Ry/bohr**3)                   (kbar)     P=   -4.04
  -0.00002744  -0.00000000   0.00000000         -4.04     -0.00      0.00
  -0.00000000  -0.00002744  -0.00000000         -0.00     -4.04     -0.00
   0.00000000  -0.00000000  -0.00002744          0.00     -0.00     -4.04


     Writing output data file K.save/

     init_run     :      1.03s CPU      1.07s WALL (       1 calls)
     electrons    :     17.55s CPU     18.17s WALL (       1 calls)
     forces       :      0.30s CPU      0.30s WALL (       1 calls)
     stress       :      1.07s CPU      1.07s WALL (       1 calls)

     Called by init_run:
     wfcinit      :      0.66s CPU      0.69s WALL (       1 calls)
     potinit      :      0.06s CPU      0.06s WALL (       1 calls)
     hinit0       :      0.20s CPU      0.21s WALL (       1 calls)

     Called by electrons:
     c_bands      :     14.49s CPU     15.00s WALL (       6 calls)
     sum_band     :      2.55s CPU      2.65s WALL (       6 calls)
     v_of_rho     :      0.03s CPU      0.03s WALL (       6 calls)
     newd         :      0.27s CPU      0.28s WALL (       6 calls)
     PAW_pot      :      0.25s CPU      0.26s WALL (       6 calls)
     mix_rho      :      0.01s CPU      0.01s WALL (       6 calls)

     Called by c_bands:
     init_us_2    :      0.55s CPU      0.55s WALL (     840 calls)
     cegterg      :     13.79s CPU     14.30s WALL (     336 calls)

     Called by sum_band:
     sum_band:bec :      0.00s CPU      0.00s WALL (     336 calls)
     addusdens    :      0.24s CPU      0.25s WALL (       6 calls)

     Called by *egterg:
     h_psi        :     11.25s CPU     11.75s WALL (    1558 calls)
     s_psi        :      0.36s CPU      0.37s WALL (    1558 calls)
     g_psi        :      0.04s CPU      0.04s WALL (    1166 calls)
     cdiaghg      :      0.40s CPU      0.40s WALL (    1446 calls)

     Called by h_psi:
     h_psi:pot    :     11.17s CPU     11.67s WALL (    1558 calls)
     h_psi:calbec :      0.76s CPU      0.79s WALL (    1558 calls)
     vloc_psi     :      9.99s CPU     10.45s WALL (    1558 calls)
     add_vuspsi   :      0.41s CPU      0.42s WALL (    1558 calls)

     General routines
     calbec       :      1.24s CPU      1.27s WALL (    2174 calls)
     fft          :      0.04s CPU      0.04s WALL (      34 calls)
     ffts         :      0.00s CPU      0.00s WALL (       6 calls)
     fftw         :     10.81s CPU     11.31s WALL (   21200 calls)

     Parallel routines
     fft_scatt_xy :      0.81s CPU      0.85s WALL (   21240 calls)
     fft_scatt_yz :      3.41s CPU      3.57s WALL (   21240 calls)

     PWSCF        :    20.78s CPU        21.61s WALL


   This run was terminated on:   1: 2:11   8Apr2024            

=------------------------------------------------------------------------------=
   JOB DONE.
=------------------------------------------------------------------------------=
