
     Program PWSCF v.6.3MaX starts on  8Apr2024 at  1:29:32 

     This program is part of the open-source Quantum ESPRESSO suite
     for quantum simulation of materials; please cite
         "P. Giannozzi et al., J. Phys.:Condens. Matter 21 395502 (2009);
         "P. Giannozzi et al., J. Phys.:Condens. Matter 29 465901 (2017);
          URL http://www.quantum-espresso.org", 
     in publications or presentations arising from this work. More details at
     http://www.quantum-espresso.org/quote

     Parallel version (MPI), running on     5 processors

     MPI processes distributed on     1 nodes
     R & G space division:  proc/nbgrp/npool/nimage =       5
     Waiting for input...
     Reading input from standard input

     Current dimensions of program PWSCF are:
     Max number of different atomic species (ntypx) = 10
     Max number of k-points (npk) =  40000
     Max angular momentum in pseudopotentials (lmaxx) =  3
               file K.pbe-spn-kjpaw_psl.1.0.0.UPF: wavefunction(s)  3S renormalized

     Subspace diagonalization in iterative solution of the eigenvalue problem:
     a serial algorithm will be used


     Parallelization info
     --------------------
     sticks:   dense  smooth     PW     G-vecs:    dense   smooth      PW
     Min         393     393    110                11072    11072    1648
     Max         394     394    111                11073    11073    1650
     Sum        1967    1967    553                55361    55361    8247



     bravais-lattice index     =            3
     lattice parameter (alat)  =       9.8600  a.u.
     unit-cell volume          =     479.2926 (a.u.)^3
     number of atoms/cell      =            1
     number of atomic types    =            1
     number of electrons       =         9.00
     number of Kohn-Sham states=            9
     kinetic-energy cutoff     =      90.0000  Ry
     charge density cutoff     =     360.0000  Ry
     convergence threshold     =      1.0E-08
     mixing beta               =       0.7000
     number of iterations used =            8  plain     mixing
     Exchange-correlation      = SLA PW PBX PBC ( 1  4  3  4 0 0)

     celldm(1)=   9.860000  celldm(2)=   0.000000  celldm(3)=   0.000000
     celldm(4)=   0.000000  celldm(5)=   0.000000  celldm(6)=   0.000000

     crystal axes: (cart. coord. in units of alat)
               a(1) = (   0.500000   0.500000   0.500000 )  
               a(2) = (  -0.500000   0.500000   0.500000 )  
               a(3) = (  -0.500000  -0.500000   0.500000 )  

     reciprocal axes: (cart. coord. in units 2 pi/alat)
               b(1) = (  1.000000  0.000000  1.000000 )  
               b(2) = ( -1.000000  1.000000  0.000000 )  
               b(3) = (  0.000000 -1.000000  1.000000 )  


     PseudoPot. # 1 for K  read from file:
     /home/lorenzo/pseudos/K/K.pbe-spn-kjpaw_psl.1.0.0.UPF
     MD5 check sum: 34cc42130a09071ebe376fd42eb21491
     Pseudo is Projector augmented-wave + core cor, Zval =  9.0
     Generated using "atomic" code by A. Dal Corso v.6.2.2
     Shape of augmentation charge: PSQ
     Using radial grid of 1165 points,  6 beta functions with: 
                l(1) =   0
                l(2) =   0
                l(3) =   1
                l(4) =   1
                l(5) =   2
                l(6) =   2
     Q(r) pseudized with 0 coefficients 


     atomic species   valence    mass     pseudopotential
        K              9.00    39.09830     K ( 1.00)

     48 Sym. Ops., with inversion, found



   Cartesian axes

     site n.     atom                  positions (alat units)
         1           K   tau(   1) = (   0.0000000   0.0000000   0.0000000  )

     number of k points=    20  gaussian smearing, width (Ry)=  0.0100
                       cart. coord. in units 2pi/alat
        k(    1) = (   0.0000000   0.0000000   0.0000000), wk =   0.0058309
        k(    2) = (   0.0000000  -0.1428571   0.1428571), wk =   0.0699708
        k(    3) = (   0.0000000  -0.2857143   0.2857143), wk =   0.0699708
        k(    4) = (   0.0000000  -0.4285714   0.4285714), wk =   0.0699708
        k(    5) = (  -0.1428571  -0.1428571   0.2857143), wk =   0.1399417
        k(    6) = (  -0.1428571  -0.2857143   0.4285714), wk =   0.2798834
        k(    7) = (  -0.1428571   0.5714286  -0.4285714), wk =   0.1399417
        k(    8) = (  -0.2857143   0.7142857  -0.4285714), wk =   0.1399417
        k(    9) = (   0.0000000   0.0000000   0.2857143), wk =   0.0349854
        k(   10) = (   0.0000000  -0.1428571   0.4285714), wk =   0.1399417
        k(   11) = (   0.0000000  -0.2857143   0.5714286), wk =   0.1399417
        k(   12) = (  -0.1428571  -0.1428571   0.5714286), wk =   0.1399417
        k(   13) = (  -0.1428571   0.7142857  -0.2857143), wk =   0.1399417
        k(   14) = (  -0.2857143   0.2857143   0.2857143), wk =   0.0466472
        k(   15) = (   0.5714286  -0.5714286   0.2857143), wk =   0.1399417
        k(   16) = (   0.4285714  -0.5714286   0.4285714), wk =   0.0466472
        k(   17) = (   0.0000000   0.0000000   0.5714286), wk =   0.0349854
        k(   18) = (   0.0000000  -0.1428571   0.7142857), wk =   0.1399417
        k(   19) = (  -0.1428571   0.8571429  -0.1428571), wk =   0.0466472
        k(   20) = (   0.0000000   0.0000000   0.8571429), wk =   0.0349854

     Dense  grid:    55361 G-vectors     FFT dimensions: (  54,  54,  54)

     Estimated max dynamical RAM per process >      47.52 MB

     Estimated total dynamical RAM >     237.60 MB

     Check: negative/imaginary core charge=   -0.000001    0.000000

     Initial potential from superposition of free atoms

     starting charge    8.98117, renormalised to    9.00000
     Starting wfcs are    8 randomized atomic wfcs +    1 random wfcs
     Checking if some PAW data can be deallocated... 

     total cpu time spent up to now is        1.9 secs

     Self-consistent Calculation

     iteration #  1     ecut=    90.00 Ry     beta= 0.70
     Davidson diagonalization with overlap
     ethr =  1.00E-02,  avg # of iterations =  6.7

     Threshold (ethr) on eigenvalues was too large:
     Diagonalizing with lowered threshold

     Davidson diagonalization with overlap
     ethr =  1.41E-05,  avg # of iterations =  7.0

     total cpu time spent up to now is        5.9 secs

     total energy              =    -113.01129805 Ry
     Harris-Foulkes estimate   =    -113.01181849 Ry
     estimated scf accuracy    <       0.00125976 Ry

     iteration #  2     ecut=    90.00 Ry     beta= 0.70
     Davidson diagonalization with overlap
     ethr =  1.40E-05,  avg # of iterations =  2.1

     total cpu time spent up to now is        7.3 secs

     total energy              =    -113.01152080 Ry
     Harris-Foulkes estimate   =    -113.01153080 Ry
     estimated scf accuracy    <       0.00010143 Ry

     iteration #  3     ecut=    90.00 Ry     beta= 0.70
     Davidson diagonalization with overlap
     ethr =  1.13E-06,  avg # of iterations =  2.2

     total cpu time spent up to now is        8.6 secs

     total energy              =    -113.01153275 Ry
     Harris-Foulkes estimate   =    -113.01153053 Ry
     estimated scf accuracy    <       0.00000692 Ry

     iteration #  4     ecut=    90.00 Ry     beta= 0.70
     Davidson diagonalization with overlap
     ethr =  7.69E-08,  avg # of iterations =  1.8

     total cpu time spent up to now is        9.9 secs

     total energy              =    -113.01153357 Ry
     Harris-Foulkes estimate   =    -113.01153357 Ry
     estimated scf accuracy    <       0.00000005 Ry

     iteration #  5     ecut=    90.00 Ry     beta= 0.70
     Davidson diagonalization with overlap
     ethr =  6.04E-10,  avg # of iterations =  2.4

     total cpu time spent up to now is       11.3 secs

     End of self-consistent calculation

          k = 0.0000 0.0000 0.0000 (  6819 PWs)   bands (ev):

   -30.1659 -13.6140 -13.6140 -13.6140  -0.2615   6.2636   6.2636   6.2636
     7.1810

          k = 0.0000-0.1429 0.1429 (  6883 PWs)   bands (ev):

   -30.1650 -13.6286 -13.6189 -13.6140  -0.0023   5.8120   5.9660   6.4713
     6.9368

          k = 0.0000-0.2857 0.2857 (  6905 PWs)   bands (ev):

   -30.1629 -13.6611 -13.6297 -13.6140   0.7394   4.5706   5.4687   7.0312
     7.0758

          k = 0.0000-0.4286 0.4286 (  6931 PWs)   bands (ev):

   -30.1613 -13.6867 -13.6384 -13.6140   1.8538   3.2120   5.1610   6.9229
     7.5057

          k =-0.1429-0.1429 0.2857 (  6897 PWs)   bands (ev):

   -30.1635 -13.6508 -13.6246 -13.6174   0.4988   5.1059   5.4086   6.7945
     6.8081

          k =-0.1429-0.2857 0.4286 (  6923 PWs)   bands (ev):

   -30.1617 -13.6752 -13.6376 -13.6187   1.4331   3.9654   4.9254   6.7982
     7.2364

          k =-0.1429 0.5714-0.4286 (  6901 PWs)   bands (ev):

   -30.1608 -13.6854 -13.6442 -13.6189   2.5865   2.7391   4.7615   6.6021
     7.6366

          k =-0.2857 0.7143-0.4286 (  6910 PWs)   bands (ev):

   -30.1606 -13.6752 -13.6547 -13.6230   2.4805   3.5057   3.9779   6.6484
     7.1564

          k = 0.0000 0.0000 0.2857 (  6887 PWs)   bands (ev):

   -30.1641 -13.6318 -13.6238 -13.6238   0.2514   5.8437   5.8437   5.9753
     6.5638

          k = 0.0000-0.1429 0.4286 (  6899 PWs)   bands (ev):

   -30.1622 -13.6593 -13.6350 -13.6253   0.9774   4.6560   5.4855   6.0198
     7.0929

          k = 0.0000-0.2857 0.5714 (  6920 PWs)   bands (ev):

   -30.1606 -13.6829 -13.6439 -13.6246   2.0699   3.3617   5.2296   5.9348
     7.3462

          k =-0.1429-0.1429 0.5714 (  6937 PWs)   bands (ev):

   -30.1605 -13.6731 -13.6493 -13.6304   1.8664   4.0153   4.7894   6.1621
     6.9001

          k =-0.1429 0.7143-0.2857 (  6923 PWs)   bands (ev):

   -30.1597 -13.6786 -13.6582 -13.6306   2.9679   3.0536   4.3796   6.2497
     7.6838

          k =-0.2857 0.2857 0.2857 (  6888 PWs)   bands (ev):

   -30.1622 -13.6702 -13.6262 -13.6262   1.2112   4.5493   4.5493   6.7859
     7.4248

          k = 0.5714-0.5714 0.2857 (  6906 PWs)   bands (ev):

   -30.1611 -13.6757 -13.6432 -13.6276   2.2855   3.4930   4.2710   6.1387
     7.5889

          k = 0.4286-0.5714 0.4286 (  6918 PWs)   bands (ev):

   -30.1608 -13.6591 -13.6591 -13.6349   3.2488   3.2488   3.5983   5.5323
     7.7175

          k = 0.0000 0.0000 0.5714 (  6931 PWs)   bands (ev):

   -30.1604 -13.6591 -13.6468 -13.6468   1.6508   4.5015   5.4529   5.4529
     6.6111

          k = 0.0000-0.1429 0.7143 (  6909 PWs)   bands (ev):

   -30.1589 -13.6745 -13.6563 -13.6482   2.6334   3.7021   5.1748   5.3753
     6.4188

          k =-0.1429 0.8571-0.1429 (  6899 PWs)   bands (ev):

   -30.1583 -13.6699 -13.6699 -13.6507   3.3891   3.3891   4.5201   6.0325
     6.0325

          k = 0.0000 0.0000 0.8571 (  6895 PWs)   bands (ev):

   -30.1576 -13.6685 -13.6661 -13.6661   3.3013   3.7010   5.4789   5.4789
     5.4908

     the Fermi energy is     1.9396 ev

!    total energy              =    -113.01153358 Ry
     Harris-Foulkes estimate   =    -113.01153358 Ry
     estimated scf accuracy    <          2.6E-09 Ry

     total all-electron energy =     -1204.250244 Ry

     The total energy is the sum of the following terms:

     one-electron contribution =     -35.40538478 Ry
     hartree contribution      =      18.88019212 Ry
     xc contribution           =     -11.16980287 Ry
     ewald contribution        =     -29.89633970 Ry
     one-center paw contrib.   =     -55.41961051 Ry
     smearing contrib. (-TS)   =      -0.00058785 Ry

     convergence has been achieved in   5 iterations

     Forces acting on atoms (cartesian axes, Ry/au):

     atom    1 type  1   force =     0.00000000    0.00000000    0.00000000

     Total force =     0.000000     Total SCF correction =     0.000000


     Computing stress (Cartesian axis) and pressure

          total   stress  (Ry/bohr**3)                   (kbar)     P=    1.35
   0.00000917  -0.00000000   0.00000000          1.35     -0.00      0.00
  -0.00000000   0.00000917  -0.00000000         -0.00      1.35     -0.00
   0.00000000  -0.00000000   0.00000917          0.00     -0.00      1.35


     Writing output data file K.save/

     init_run     :      0.90s CPU      0.95s WALL (       1 calls)
     electrons    :      9.13s CPU      9.43s WALL (       1 calls)
     forces       :      0.21s CPU      0.21s WALL (       1 calls)
     stress       :      0.71s CPU      0.71s WALL (       1 calls)

     Called by init_run:
     wfcinit      :      0.38s CPU      0.39s WALL (       1 calls)
     potinit      :      0.13s CPU      0.15s WALL (       1 calls)
     hinit0       :      0.24s CPU      0.24s WALL (       1 calls)

     Called by electrons:
     c_bands      :      6.76s CPU      6.97s WALL (       6 calls)
     sum_band     :      1.49s CPU      1.55s WALL (       6 calls)
     v_of_rho     :      0.19s CPU      0.19s WALL (       6 calls)
     newd         :      0.30s CPU      0.32s WALL (       6 calls)
     PAW_pot      :      0.53s CPU      0.55s WALL (       6 calls)
     mix_rho      :      0.02s CPU      0.02s WALL (       6 calls)

     Called by c_bands:
     init_us_2    :      0.24s CPU      0.25s WALL (     300 calls)
     cegterg      :      6.47s CPU      6.68s WALL (     120 calls)

     Called by sum_band:
     sum_band:bec :      0.00s CPU      0.00s WALL (     120 calls)
     addusdens    :      0.32s CPU      0.33s WALL (       6 calls)

     Called by *egterg:
     h_psi        :      5.50s CPU      5.71s WALL (     582 calls)
     s_psi        :      0.17s CPU      0.17s WALL (     582 calls)
     g_psi        :      0.02s CPU      0.02s WALL (     442 calls)
     cdiaghg      :      0.15s CPU      0.15s WALL (     542 calls)

     Called by h_psi:
     h_psi:pot    :      5.47s CPU      5.68s WALL (     582 calls)
     h_psi:calbec :      0.31s CPU      0.32s WALL (     582 calls)
     vloc_psi     :      4.97s CPU      5.16s WALL (     582 calls)
     add_vuspsi   :      0.18s CPU      0.19s WALL (     582 calls)

     General routines
     calbec       :      0.47s CPU      0.49s WALL (     802 calls)
     fft          :      0.11s CPU      0.12s WALL (      93 calls)
     ffts         :      0.01s CPU      0.01s WALL (       6 calls)
     fftw         :      5.37s CPU      5.59s WALL (    7508 calls)

     Parallel routines
     fft_scatt_xy :      0.45s CPU      0.47s WALL (    7607 calls)
     fft_scatt_yz :      1.19s CPU      1.25s WALL (    7607 calls)

     PWSCF        :    11.91s CPU        12.34s WALL


   This run was terminated on:   1:29:45   8Apr2024            

=------------------------------------------------------------------------------=
   JOB DONE.
=------------------------------------------------------------------------------=
