
     Program PWSCF v.6.3MaX starts on  8Apr2024 at  0:25:37 

     This program is part of the open-source Quantum ESPRESSO suite
     for quantum simulation of materials; please cite
         "P. Giannozzi et al., J. Phys.:Condens. Matter 21 395502 (2009);
         "P. Giannozzi et al., J. Phys.:Condens. Matter 29 465901 (2017);
          URL http://www.quantum-espresso.org", 
     in publications or presentations arising from this work. More details at
     http://www.quantum-espresso.org/quote

     Parallel version (MPI), running on     5 processors

     MPI processes distributed on     1 nodes
     R & G space division:  proc/nbgrp/npool/nimage =       5
     Waiting for input...
     Reading input from standard input

     Current dimensions of program PWSCF are:
     Max number of different atomic species (ntypx) = 10
     Max number of k-points (npk) =  40000
     Max angular momentum in pseudopotentials (lmaxx) =  3
               file K.pbe-spn-rrkjus_psl.1.0.0.UPF: wavefunction(s)  3S renormalized

     Subspace diagonalization in iterative solution of the eigenvalue problem:
     a serial algorithm will be used


     Parallelization info
     --------------------
     sticks:   dense  smooth     PW     G-vecs:    dense   smooth      PW
     Min         175     175     53                 3283     3283     546
     Max         175     175     53                 3283     3283     547
     Sum         875     875    265                16415    16415    2731



     bravais-lattice index     =            3
     lattice parameter (alat)  =       9.8600  a.u.
     unit-cell volume          =     479.2926 (a.u.)^3
     number of atoms/cell      =            1
     number of atomic types    =            1
     number of electrons       =         9.00
     number of Kohn-Sham states=            9
     kinetic-energy cutoff     =      40.0000  Ry
     charge density cutoff     =     160.0000  Ry
     convergence threshold     =      1.0E-08
     mixing beta               =       0.7000
     number of iterations used =            8  plain     mixing
     Exchange-correlation      = PBE ( 1  4  3  4 0 0)

     celldm(1)=   9.860000  celldm(2)=   0.000000  celldm(3)=   0.000000
     celldm(4)=   0.000000  celldm(5)=   0.000000  celldm(6)=   0.000000

     crystal axes: (cart. coord. in units of alat)
               a(1) = (   0.500000   0.500000   0.500000 )  
               a(2) = (  -0.500000   0.500000   0.500000 )  
               a(3) = (  -0.500000  -0.500000   0.500000 )  

     reciprocal axes: (cart. coord. in units 2 pi/alat)
               b(1) = (  1.000000  0.000000  1.000000 )  
               b(2) = ( -1.000000  1.000000  0.000000 )  
               b(3) = (  0.000000 -1.000000  1.000000 )  


     PseudoPot. # 1 for K  read from file:
     /home/lorenzo/pseudos/K/K.pbe-spn-rrkjus_psl.1.0.0.UPF
     MD5 check sum: 897b700350bb708b0563e904352feb48
     Pseudo is Ultrasoft + core correction, Zval =  9.0
     Generated using "atomic" code by A. Dal Corso v.6.2.2
     Using radial grid of 1165 points,  6 beta functions with: 
                l(1) =   0
                l(2) =   0
                l(3) =   1
                l(4) =   1
                l(5) =   2
                l(6) =   2
     Q(r) pseudized with 0 coefficients 


     atomic species   valence    mass     pseudopotential
        K              9.00    39.09830     K ( 1.00)

     48 Sym. Ops., with inversion, found



   Cartesian axes

     site n.     atom                  positions (alat units)
         1           K   tau(   1) = (   0.0000000   0.0000000   0.0000000  )

     number of k points=    56  gaussian smearing, width (Ry)=  0.0100
                       cart. coord. in units 2pi/alat
        k(    1) = (   0.0000000   0.0000000   0.0000000), wk =   0.0015026
        k(    2) = (   0.0000000  -0.0909091   0.0909091), wk =   0.0180316
        k(    3) = (   0.0000000  -0.1818182   0.1818182), wk =   0.0180316
        k(    4) = (   0.0000000  -0.2727273   0.2727273), wk =   0.0180316
        k(    5) = (   0.0000000  -0.3636364   0.3636364), wk =   0.0180316
        k(    6) = (   0.0000000  -0.4545455   0.4545455), wk =   0.0180316
        k(    7) = (  -0.0909091  -0.0909091   0.1818182), wk =   0.0360631
        k(    8) = (  -0.0909091  -0.1818182   0.2727273), wk =   0.0721262
        k(    9) = (  -0.0909091  -0.2727273   0.3636364), wk =   0.0721262
        k(   10) = (  -0.0909091  -0.3636364   0.4545455), wk =   0.0721262
        k(   11) = (  -0.0909091   0.5454545  -0.4545455), wk =   0.0360631
        k(   12) = (  -0.1818182  -0.1818182   0.3636364), wk =   0.0360631
        k(   13) = (  -0.1818182  -0.2727273   0.4545455), wk =   0.0721262
        k(   14) = (  -0.1818182   0.6363636  -0.4545455), wk =   0.0721262
        k(   15) = (  -0.2727273   0.7272727  -0.4545455), wk =   0.0360631
        k(   16) = (  -0.2727273   0.6363636  -0.3636364), wk =   0.0360631
        k(   17) = (   0.0000000   0.0000000   0.1818182), wk =   0.0090158
        k(   18) = (   0.0000000  -0.0909091   0.2727273), wk =   0.0360631
        k(   19) = (   0.0000000  -0.1818182   0.3636364), wk =   0.0360631
        k(   20) = (   0.0000000  -0.2727273   0.4545455), wk =   0.0360631
        k(   21) = (   0.0000000  -0.3636364   0.5454545), wk =   0.0360631
        k(   22) = (  -0.0909091  -0.0909091   0.3636364), wk =   0.0360631
        k(   23) = (  -0.0909091  -0.1818182   0.4545455), wk =   0.0721262
        k(   24) = (  -0.0909091  -0.2727273   0.5454545), wk =   0.0721262
        k(   25) = (  -0.0909091   0.6363636  -0.3636364), wk =   0.0360631
        k(   26) = (  -0.1818182   0.1818182   0.1818182), wk =   0.0120210
        k(   27) = (  -0.1818182  -0.1818182   0.5454545), wk =   0.0360631
        k(   28) = (  -0.1818182   0.7272727  -0.3636364), wk =   0.0721262
        k(   29) = (  -0.2727273   0.2727273   0.1818182), wk =   0.0360631
        k(   30) = (  -0.2727273   0.7272727  -0.2727273), wk =   0.0120210
        k(   31) = (  -0.3636364   0.3636364   0.1818182), wk =   0.0360631
        k(   32) = (  -0.3636364   0.2727273   0.2727273), wk =   0.0360631
        k(   33) = (   0.5454545  -0.5454545   0.1818182), wk =   0.0360631
        k(   34) = (   0.5454545  -0.6363636   0.2727273), wk =   0.0721262
        k(   35) = (   0.4545455  -0.5454545   0.2727273), wk =   0.0360631
        k(   36) = (   0.4545455  -0.6363636   0.3636364), wk =   0.0360631
        k(   37) = (   0.0000000   0.0000000   0.3636364), wk =   0.0090158
        k(   38) = (   0.0000000  -0.0909091   0.4545455), wk =   0.0360631
        k(   39) = (   0.0000000  -0.1818182   0.5454545), wk =   0.0360631
        k(   40) = (   0.0000000  -0.2727273   0.6363636), wk =   0.0360631
        k(   41) = (  -0.0909091  -0.0909091   0.5454545), wk =   0.0360631
        k(   42) = (  -0.0909091  -0.1818182   0.6363636), wk =   0.0721262
        k(   43) = (  -0.0909091   0.7272727  -0.2727273), wk =   0.0360631
        k(   44) = (  -0.1818182   0.8181818  -0.2727273), wk =   0.0360631
        k(   45) = (   0.6363636  -0.6363636   0.3636364), wk =   0.0120210
        k(   46) = (   0.5454545  -0.5454545   0.3636364), wk =   0.0360631
        k(   47) = (   0.4545455  -0.5454545   0.4545455), wk =   0.0120210
        k(   48) = (   0.0000000   0.0000000   0.5454545), wk =   0.0090158
        k(   49) = (   0.0000000  -0.0909091   0.6363636), wk =   0.0360631
        k(   50) = (   0.0000000  -0.1818182   0.7272727), wk =   0.0360631
        k(   51) = (  -0.0909091  -0.0909091   0.7272727), wk =   0.0360631
        k(   52) = (  -0.0909091   0.8181818  -0.1818182), wk =   0.0360631
        k(   53) = (   0.0000000   0.0000000   0.7272727), wk =   0.0090158
        k(   54) = (   0.0000000  -0.0909091   0.8181818), wk =   0.0360631
        k(   55) = (  -0.0909091   0.9090909  -0.0909091), wk =   0.0120210
        k(   56) = (   0.0000000   0.0000000   0.9090909), wk =   0.0090158

     Dense  grid:    16415 G-vectors     FFT dimensions: (  36,  36,  36)

     Estimated max dynamical RAM per process >      17.05 MB

     Estimated total dynamical RAM >      85.26 MB

     Check: negative/imaginary core charge=   -0.000011    0.000000

     Initial potential from superposition of free atoms

     starting charge    8.98117, renormalised to    9.00000
     Starting wfcs are    8 randomized atomic wfcs +    1 random wfcs

     total cpu time spent up to now is        1.2 secs

     Self-consistent Calculation

     iteration #  1     ecut=    40.00 Ry     beta= 0.70
     Davidson diagonalization with overlap
     ethr =  1.00E-02,  avg # of iterations =  6.8

     Threshold (ethr) on eigenvalues was too large:
     Diagonalizing with lowered threshold

     Davidson diagonalization with overlap
     ethr =  1.43E-05,  avg # of iterations =  6.2

     total cpu time spent up to now is        4.1 secs

     total energy              =     -58.77234740 Ry
     Harris-Foulkes estimate   =     -58.77285909 Ry
     estimated scf accuracy    <       0.00128047 Ry

     iteration #  2     ecut=    40.00 Ry     beta= 0.70
     Davidson diagonalization with overlap
     ethr =  1.42E-05,  avg # of iterations =  2.1

     total cpu time spent up to now is        5.1 secs

     total energy              =     -58.77257645 Ry
     Harris-Foulkes estimate   =     -58.77257888 Ry
     estimated scf accuracy    <       0.00009951 Ry

     iteration #  3     ecut=    40.00 Ry     beta= 0.70
     Davidson diagonalization with overlap
     ethr =  1.11E-06,  avg # of iterations =  2.2

     total cpu time spent up to now is        6.0 secs

     total energy              =     -58.77258604 Ry
     Harris-Foulkes estimate   =     -58.77258359 Ry
     estimated scf accuracy    <       0.00000671 Ry

     iteration #  4     ecut=    40.00 Ry     beta= 0.70
     Davidson diagonalization with overlap
     ethr =  7.45E-08,  avg # of iterations =  1.7

     total cpu time spent up to now is        6.8 secs

     total energy              =     -58.77258665 Ry
     Harris-Foulkes estimate   =     -58.77258664 Ry
     estimated scf accuracy    <       0.00000005 Ry

     iteration #  5     ecut=    40.00 Ry     beta= 0.70
     Davidson diagonalization with overlap
     ethr =  5.34E-10,  avg # of iterations =  2.4

     total cpu time spent up to now is        7.7 secs

     End of self-consistent calculation

          k = 0.0000 0.0000 0.0000 (  2093 PWs)   bands (ev):

   -30.1620 -13.6114 -13.6114 -13.6114  -0.2605   6.2642   6.2642   6.2642
     7.1821

          k = 0.0000-0.0909 0.0909 (  2048 PWs)   bands (ev):

   -30.1614 -13.6175 -13.6134 -13.6113  -0.1548   6.1064   6.1300   6.3487
     7.0074

          k = 0.0000-0.1818 0.1818 (  2048 PWs)   bands (ev):

   -30.1604 -13.6340 -13.6189 -13.6113   0.1564   5.5103   5.8274   6.5991
     6.9444

          k = 0.0000-0.2727 0.2727 (  2046 PWs)   bands (ev):

   -30.1590 -13.6554 -13.6260 -13.6113   0.6554   4.6935   5.5100   7.0063
     7.0241

          k = 0.0000-0.3636 0.3636 (  2048 PWs)   bands (ev):

   -30.1578 -13.6748 -13.6326 -13.6113   1.3129   3.8321   5.2668   7.0099
     7.3164

          k = 0.0000-0.4545 0.4545 (  2044 PWs)   bands (ev):

   -30.1570 -13.6863 -13.6365 -13.6113   2.0806   2.9710   5.1377   6.8937
     7.5959

          k =-0.0909-0.0909 0.1818 (  2057 PWs)   bands (ev):

   -30.1608 -13.6289 -13.6156 -13.6128   0.0537   5.7682   5.8625   6.5078
     6.8351

          k =-0.0909-0.1818 0.2727 (  2053 PWs)   bands (ev):

   -30.1595 -13.6470 -13.6221 -13.6134   0.4592   5.0948   5.5130   6.7968
     6.8310

          k =-0.0909-0.2727 0.3636 (  2056 PWs)   bands (ev):

   -30.1582 -13.6661 -13.6301 -13.6136   1.0387   4.2859   5.2280   6.8610
     7.2090

          k =-0.0909-0.3636 0.4545 (  2042 PWs)   bands (ev):

   -30.1572 -13.6804 -13.6363 -13.6136   1.7565   3.4410   5.0444   6.7804
     7.5108

          k =-0.0909 0.5455-0.4545 (  2054 PWs)   bands (ev):

   -30.1569 -13.6857 -13.6387 -13.6137   2.4708   2.6868   4.9812   6.6996
     7.6774

          k =-0.1818-0.1818 0.3636 (  2050 PWs)   bands (ev):

   -30.1584 -13.6615 -13.6285 -13.6164   0.9460   4.6021   5.0483   6.8432
     6.9960

          k =-0.1818-0.2727 0.4545 (  2054 PWs)   bands (ev):

   -30.1573 -13.6730 -13.6376 -13.6177   1.5892   3.9418   4.7141   6.8061
     7.1253

          k =-0.1818 0.6364-0.4545 (  2058 PWs)   bands (ev):

   -30.1567 -13.6791 -13.6441 -13.6181   2.3453   3.1611   4.5552   6.6063
     7.4103

          k =-0.2727 0.7273-0.4545 (  2052 PWs)   bands (ev):

   -30.1567 -13.6736 -13.6488 -13.6200   2.2720   3.6194   4.1205   6.6914
     7.1082

          k =-0.2727 0.6364-0.3636 (  2046 PWs)   bands (ev):

   -30.1564 -13.6710 -13.6561 -13.6206   2.9865   3.0523   3.8840   6.5916
     7.2991

          k = 0.0000 0.0000 0.1818 (  2058 PWs)   bands (ev):

   -30.1611 -13.6193 -13.6155 -13.6155  -0.0500   6.0557   6.0557   6.3877
     6.5738

          k = 0.0000-0.0909 0.2727 (  2044 PWs)   bands (ev):

   -30.1600 -13.6341 -13.6210 -13.6164   0.2585   5.5423   5.8050   6.3595
     6.6118

          k = 0.0000-0.1818 0.3636 (  2047 PWs)   bands (ev):

   -30.1587 -13.6547 -13.6282 -13.6162   0.7533   4.7309   5.5166   6.4038
     7.0081

          k = 0.0000-0.2727 0.4545 (  2056 PWs)   bands (ev):

   -30.1575 -13.6735 -13.6349 -13.6159   1.4055   3.8847   5.2899   6.4121
     7.5190

          k = 0.0000-0.3636 0.5455 (  2049 PWs)   bands (ev):

   -30.1567 -13.6846 -13.6388 -13.6158   2.1700   3.0337   5.1682   6.3367
     7.5532

          k =-0.0909-0.0909 0.3636 (  2052 PWs)   bands (ev):

   -30.1589 -13.6480 -13.6272 -13.6199   0.6568   5.0522   5.4876   6.2368
     6.8671

          k =-0.0909-0.1818 0.4545 (  2048 PWs)   bands (ev):

   -30.1576 -13.6648 -13.6353 -13.6206   1.2262   4.3456   5.1729   6.3004
     7.1847

          k =-0.0909-0.2727 0.5455 (  2048 PWs)   bands (ev):

   -30.1566 -13.6777 -13.6418 -13.6205   1.9319   3.5539   4.9669   6.2602
     7.3014

          k =-0.0909 0.6364-0.3636 (  2048 PWs)   bands (ev):

   -30.1563 -13.6825 -13.6443 -13.6205   2.6788   2.7790   4.8939   6.1983
     7.4189

          k =-0.1818 0.1818 0.1818 (  2057 PWs)   bands (ev):

   -30.1599 -13.6445 -13.6159 -13.6159   0.3594   5.3668   5.3668   6.7261
     7.1440

          k =-0.1818-0.1818 0.5455 (  2050 PWs)   bands (ev):

   -30.1566 -13.6724 -13.6455 -13.6226   1.8503   3.9361   4.6144   6.4846
     6.9773

          k =-0.1818 0.7273-0.3636 (  2055 PWs)   bands (ev):

   -30.1561 -13.6754 -13.6536 -13.6231   2.5808   3.3364   4.2718   6.5325
     7.0894

          k =-0.2727 0.2727 0.1818 (  2051 PWs)   bands (ev):

   -30.1587 -13.6607 -13.6241 -13.6164   0.8508   4.6815   5.0349   6.9239
     7.2139

          k =-0.2727 0.7273-0.2727 (  2043 PWs)   bands (ev):

   -30.1558 -13.6665 -13.6665 -13.6237   3.1807   3.1807   3.7145   6.9521
     7.1658

          k =-0.3636 0.3636 0.1818 (  2049 PWs)   bands (ev):

   -30.1576 -13.6735 -13.6334 -13.6168   1.4996   3.9119   4.8049   6.8410
     7.4224

          k =-0.3636 0.2727 0.2727 (  2053 PWs)   bands (ev):

   -30.1577 -13.6702 -13.6302 -13.6209   1.4126   4.2641   4.5540   6.7295
     7.3329

          k = 0.5455-0.5455 0.1818 (  2046 PWs)   bands (ev):

   -30.1569 -13.6805 -13.6395 -13.6170   2.2609   3.0979   4.6878   6.6193
     7.6529

          k = 0.5455-0.6364 0.2727 (  2051 PWs)   bands (ev):

   -30.1570 -13.6737 -13.6404 -13.6226   2.1091   3.6385   4.3035   6.3389
     7.4692

          k = 0.4545-0.5455 0.2727 (  2051 PWs)   bands (ev):

   -30.1568 -13.6737 -13.6456 -13.6230   2.8730   2.8891   4.2313   6.1657
     7.5741

          k = 0.4545-0.6364 0.3636 (  2043 PWs)   bands (ev):

   -30.1566 -13.6666 -13.6519 -13.6257   2.8092   3.4084   3.7661   5.9740
     7.5560

          k = 0.0000 0.0000 0.3636 (  2046 PWs)   bands (ev):

   -30.1590 -13.6375 -13.6267 -13.6267   0.5590   5.5280   5.6961   5.6961
     6.7422

          k = 0.0000-0.0909 0.4545 (  2051 PWs)   bands (ev):

   -30.1578 -13.6532 -13.6342 -13.6288   1.0406   4.7938   5.5137   5.7581
     7.0667

          k = 0.0000-0.1818 0.5455 (  2048 PWs)   bands (ev):

   -30.1566 -13.6701 -13.6410 -13.6282   1.6743   4.0189   5.3453   5.7443
     7.1240

          k = 0.0000-0.2727 0.6364 (  2054 PWs)   bands (ev):

   -30.1559 -13.6802 -13.6451 -13.6277   2.4188   3.2202   5.2494   5.6220
     7.1674

          k =-0.0909-0.0909 0.5455 (  2048 PWs)   bands (ev):

   -30.1566 -13.6637 -13.6429 -13.6324   1.5870   4.3347   5.1606   5.8402
     6.9183

          k =-0.0909-0.1818 0.6364 (  2041 PWs)   bands (ev):

   -30.1557 -13.6734 -13.6504 -13.6325   2.2598   3.7306   4.8172   5.9244
     6.8022

          k =-0.0909 0.7273-0.2727 (  2044 PWs)   bands (ev):

   -30.1553 -13.6772 -13.6532 -13.6323   2.9608   3.0489   4.6900   5.9025
     6.9209

          k =-0.1818 0.8182-0.2727 (  2037 PWs)   bands (ev):

   -30.1551 -13.6717 -13.6615 -13.6331   2.9176   3.4633   4.1857   6.3127
     6.6337

          k = 0.6364-0.6364 0.3636 (  2049 PWs)   bands (ev):

   -30.1571 -13.6713 -13.6318 -13.6318   2.0285   4.0413   4.0413   6.1003
     7.6298

          k = 0.5455-0.5455 0.3636 (  2046 PWs)   bands (ev):

   -30.1568 -13.6663 -13.6440 -13.6327   2.7374   3.4473   3.9312   5.6268
     7.6859

          k = 0.4545-0.5455 0.4545 (  2052 PWs)   bands (ev):

   -30.1567 -13.6538 -13.6538 -13.6378   3.3040   3.3040   3.5923   5.3020
     7.7599

          k = 0.0000 0.0000 0.5455 (  2050 PWs)   bands (ev):

   -30.1566 -13.6546 -13.6419 -13.6419   1.4979   4.6129   5.4698   5.4698
     6.7828

          k = 0.0000-0.0909 0.6364 (  2043 PWs)   bands (ev):

   -30.1555 -13.6658 -13.6490 -13.6440   2.0928   4.1113   5.3786   5.4016
     6.4290

          k = 0.0000-0.1818 0.7273 (  2033 PWs)   bands (ev):

   -30.1548 -13.6744 -13.6532 -13.6431   2.7723   3.4914   5.1508   5.3535
     6.5705

          k =-0.0909-0.0909 0.7273 (  2029 PWs)   bands (ev):

   -30.1546 -13.6697 -13.6577 -13.6462   2.6943   3.7881   4.8652   5.7165
     6.2298

          k =-0.0909 0.8182-0.1818 (  2029 PWs)   bands (ev):

   -30.1543 -13.6713 -13.6619 -13.6460   3.2187   3.4100   4.6067   5.8142
     6.2992

          k = 0.0000 0.0000 0.7273 (  2030 PWs)   bands (ev):

   -30.1544 -13.6638 -13.6563 -13.6563   2.6152   3.9701   5.4347   5.4347
     5.7870

          k = 0.0000-0.0909 0.8182 (  2031 PWs)   bands (ev):

   -30.1538 -13.6690 -13.6607 -13.6572   3.1577   3.6675   5.1353   5.4457
     5.9387

          k =-0.0909 0.9091-0.0909 (  2013 PWs)   bands (ev):

   -30.1534 -13.6668 -13.6668 -13.6582   3.4987   3.4987   4.9786   5.7427
     5.7427

          k = 0.0000 0.0000 0.9091 (  2002 PWs)   bands (ev):

   -30.1531 -13.6661 -13.6651 -13.6651   3.4795   3.6419   5.4831   5.4981
     5.4981

     the Fermi energy is     1.9703 ev

!    total energy              =     -58.77258666 Ry
     Harris-Foulkes estimate   =     -58.77258666 Ry
     estimated scf accuracy    <          1.1E-09 Ry

     The total energy is the sum of the following terms:

     one-electron contribution =     -36.58453313 Ry
     hartree contribution      =      18.87915878 Ry
     xc contribution           =     -11.17043212 Ry
     ewald contribution        =     -29.89633978 Ry
     smearing contrib. (-TS)   =      -0.00044041 Ry

     convergence has been achieved in   5 iterations

     Forces acting on atoms (cartesian axes, Ry/au):

     atom    1 type  1   force =     0.00000000    0.00000000    0.00000000

     Total force =     0.000000     Total SCF correction =     0.000000


     Computing stress (Cartesian axis) and pressure

          total   stress  (Ry/bohr**3)                   (kbar)     P=    0.55
   0.00000372   0.00000000  -0.00000000          0.55      0.00     -0.00
   0.00000000   0.00000372   0.00000000          0.00      0.55      0.00
  -0.00000000   0.00000000   0.00000372         -0.00      0.00      0.55


     Writing output data file K.save/

     init_run     :      0.48s CPU      0.51s WALL (       1 calls)
     electrons    :      6.07s CPU      6.47s WALL (       1 calls)
     forces       :      0.10s CPU      0.10s WALL (       1 calls)
     stress       :      0.38s CPU      0.38s WALL (       1 calls)

     Called by init_run:
     wfcinit      :      0.28s CPU      0.30s WALL (       1 calls)
     potinit      :      0.01s CPU      0.02s WALL (       1 calls)
     hinit0       :      0.16s CPU      0.16s WALL (       1 calls)

     Called by electrons:
     c_bands      :      5.06s CPU      5.39s WALL (       6 calls)
     sum_band     :      0.88s CPU      0.94s WALL (       6 calls)
     v_of_rho     :      0.06s CPU      0.06s WALL (       6 calls)
     newd         :      0.10s CPU      0.10s WALL (       6 calls)
     mix_rho      :      0.00s CPU      0.00s WALL (       6 calls)

     Called by c_bands:
     init_us_2    :      0.20s CPU      0.20s WALL (     840 calls)
     cegterg      :      4.82s CPU      5.15s WALL (     336 calls)

     Called by sum_band:
     sum_band:bec :      0.00s CPU      0.00s WALL (     336 calls)
     addusdens    :      0.09s CPU      0.09s WALL (       6 calls)

     Called by *egterg:
     h_psi        :      3.92s CPU      4.21s WALL (    1593 calls)
     s_psi        :      0.13s CPU      0.14s WALL (    1593 calls)
     g_psi        :      0.01s CPU      0.01s WALL (    1201 calls)
     cdiaghg      :      0.33s CPU      0.35s WALL (    1481 calls)

     Called by h_psi:
     h_psi:pot    :      3.90s CPU      4.19s WALL (    1593 calls)
     h_psi:calbec :      0.20s CPU      0.21s WALL (    1593 calls)
     vloc_psi     :      3.55s CPU      3.82s WALL (    1593 calls)
     add_vuspsi   :      0.13s CPU      0.14s WALL (    1593 calls)

     General routines
     calbec       :      0.31s CPU      0.33s WALL (    2209 calls)
     fft          :      0.03s CPU      0.03s WALL (      93 calls)
     ffts         :      0.00s CPU      0.00s WALL (       6 calls)
     fftw         :      3.90s CPU      4.19s WALL (   20630 calls)

     Parallel routines
     fft_scatt_xy :      0.34s CPU      0.36s WALL (   20729 calls)
     fft_scatt_yz :      0.87s CPU      0.94s WALL (   20729 calls)

     PWSCF        :     7.78s CPU         8.32s WALL


   This run was terminated on:   0:25:46   8Apr2024            

=------------------------------------------------------------------------------=
   JOB DONE.
=------------------------------------------------------------------------------=
