
     Program PWSCF v.6.3MaX starts on  8Apr2024 at  0:17:38 

     This program is part of the open-source Quantum ESPRESSO suite
     for quantum simulation of materials; please cite
         "P. Giannozzi et al., J. Phys.:Condens. Matter 21 395502 (2009);
         "P. Giannozzi et al., J. Phys.:Condens. Matter 29 465901 (2017);
          URL http://www.quantum-espresso.org", 
     in publications or presentations arising from this work. More details at
     http://www.quantum-espresso.org/quote

     Parallel version (MPI), running on     5 processors

     MPI processes distributed on     1 nodes
     R & G space division:  proc/nbgrp/npool/nimage =       5
     Waiting for input...
     Reading input from standard input

     Current dimensions of program PWSCF are:
     Max number of different atomic species (ntypx) = 10
     Max number of k-points (npk) =  40000
     Max angular momentum in pseudopotentials (lmaxx) =  3
               file K.pbe-spn-rrkjus_psl.1.0.0.UPF: wavefunction(s)  3S renormalized

     Subspace diagonalization in iterative solution of the eigenvalue problem:
     a serial algorithm will be used


     Parallelization info
     --------------------
     sticks:   dense  smooth     PW     G-vecs:    dense   smooth      PW
     Min         110     110     34                 1630     1630     295
     Max         111     111     35                 1631     1631     297
     Sum         553     553    173                 8151     8151    1481



     bravais-lattice index     =            3
     lattice parameter (alat)  =       9.8600  a.u.
     unit-cell volume          =     479.2926 (a.u.)^3
     number of atoms/cell      =            1
     number of atomic types    =            1
     number of electrons       =         9.00
     number of Kohn-Sham states=            9
     kinetic-energy cutoff     =      25.0000  Ry
     charge density cutoff     =     100.0000  Ry
     convergence threshold     =      1.0E-08
     mixing beta               =       0.7000
     number of iterations used =            8  plain     mixing
     Exchange-correlation      = PBE ( 1  4  3  4 0 0)

     celldm(1)=   9.860000  celldm(2)=   0.000000  celldm(3)=   0.000000
     celldm(4)=   0.000000  celldm(5)=   0.000000  celldm(6)=   0.000000

     crystal axes: (cart. coord. in units of alat)
               a(1) = (   0.500000   0.500000   0.500000 )  
               a(2) = (  -0.500000   0.500000   0.500000 )  
               a(3) = (  -0.500000  -0.500000   0.500000 )  

     reciprocal axes: (cart. coord. in units 2 pi/alat)
               b(1) = (  1.000000  0.000000  1.000000 )  
               b(2) = ( -1.000000  1.000000  0.000000 )  
               b(3) = (  0.000000 -1.000000  1.000000 )  


     PseudoPot. # 1 for K  read from file:
     /home/lorenzo/pseudos/K/K.pbe-spn-rrkjus_psl.1.0.0.UPF
     MD5 check sum: 897b700350bb708b0563e904352feb48
     Pseudo is Ultrasoft + core correction, Zval =  9.0
     Generated using "atomic" code by A. Dal Corso v.6.2.2
     Using radial grid of 1165 points,  6 beta functions with: 
                l(1) =   0
                l(2) =   0
                l(3) =   1
                l(4) =   1
                l(5) =   2
                l(6) =   2
     Q(r) pseudized with 0 coefficients 


     atomic species   valence    mass     pseudopotential
        K              9.00    39.09830     K ( 1.00)

     48 Sym. Ops., with inversion, found



   Cartesian axes

     site n.     atom                  positions (alat units)
         1           K   tau(   1) = (   0.0000000   0.0000000   0.0000000  )

     number of k points=     8  gaussian smearing, width (Ry)=  0.0100
                       cart. coord. in units 2pi/alat
        k(    1) = (   0.0000000   0.0000000   0.0000000), wk =   0.0312500
        k(    2) = (   0.0000000  -0.2500000   0.2500000), wk =   0.3750000
        k(    3) = (   0.0000000   0.5000000  -0.5000000), wk =   0.1875000
        k(    4) = (  -0.2500000   0.7500000  -0.5000000), wk =   0.7500000
        k(    5) = (   0.0000000   0.0000000   0.5000000), wk =   0.1875000
        k(    6) = (   0.0000000   0.7500000  -0.2500000), wk =   0.3750000
        k(    7) = (   0.5000000  -0.5000000   0.5000000), wk =   0.0625000
        k(    8) = (   0.0000000   0.0000000  -1.0000000), wk =   0.0312500

     Dense  grid:     8151 G-vectors     FFT dimensions: (  27,  27,  27)

     Estimated max dynamical RAM per process >       7.55 MB

     Estimated total dynamical RAM >      37.73 MB

     Check: negative/imaginary core charge=   -0.000055    0.000000

     Initial potential from superposition of free atoms

     starting charge    8.98117, renormalised to    9.00000
     Starting wfcs are    8 randomized atomic wfcs +    1 random wfcs

     total cpu time spent up to now is        0.9 secs

     Self-consistent Calculation

     iteration #  1     ecut=    25.00 Ry     beta= 0.70
     Davidson diagonalization with overlap
     ethr =  1.00E-02,  avg # of iterations =  7.6

     Threshold (ethr) on eigenvalues was too large:
     Diagonalizing with lowered threshold

     Davidson diagonalization with overlap
     ethr =  1.85E-05,  avg # of iterations =  5.6

     total cpu time spent up to now is        1.2 secs

     total energy              =     -58.75263660 Ry
     Harris-Foulkes estimate   =     -58.75326411 Ry
     estimated scf accuracy    <       0.00172419 Ry

     iteration #  2     ecut=    25.00 Ry     beta= 0.70
     Davidson diagonalization with overlap
     ethr =  1.92E-05,  avg # of iterations =  2.1

     total cpu time spent up to now is        1.3 secs

     total energy              =     -58.75303577 Ry
     Harris-Foulkes estimate   =     -58.75302291 Ry
     estimated scf accuracy    <       0.00014483 Ry

     iteration #  3     ecut=    25.00 Ry     beta= 0.70
     Davidson diagonalization with overlap
     ethr =  1.61E-06,  avg # of iterations =  4.4

     total cpu time spent up to now is        1.4 secs

     total energy              =     -58.75305173 Ry
     Harris-Foulkes estimate   =     -58.75304529 Ry
     estimated scf accuracy    <       0.00001100 Ry

     iteration #  4     ecut=    25.00 Ry     beta= 0.70
     Davidson diagonalization with overlap
     ethr =  1.22E-07,  avg # of iterations =  1.6

     total cpu time spent up to now is        1.5 secs

     total energy              =     -58.75305243 Ry
     Harris-Foulkes estimate   =     -58.75305241 Ry
     estimated scf accuracy    <       0.00000002 Ry

     iteration #  5     ecut=    25.00 Ry     beta= 0.70
     Davidson diagonalization with overlap
     ethr =  2.66E-10,  avg # of iterations =  2.4

     total cpu time spent up to now is        1.6 secs

     End of self-consistent calculation

          k = 0.0000 0.0000 0.0000 (   959 PWs)   bands (ev):

   -30.1969 -13.5953 -13.5953 -13.5953  -0.2534   6.3362   6.3362   7.2669
     7.2670

          k = 0.0000-0.2500 0.2500 (  1001 PWs)   bands (ev):

   -30.1945 -13.6449 -13.6171 -13.6025   0.5226   4.9329   5.6317   6.9486
     7.0758

          k = 0.0000 0.5000-0.5000 (  1024 PWs)   bands (ev):

   -30.1921 -13.6825 -13.6357 -13.6094   2.4006   2.6662   5.1578   6.9179
     7.7842

          k =-0.2500 0.7500-0.5000 (  1011 PWs)   bands (ev):

   -30.1921 -13.6684 -13.6350 -13.6154   1.9230   3.8550   4.3888   6.8188
     7.0925

          k = 0.0000 0.0000 0.5000 (  1020 PWs)   bands (ev):

   -30.1923 -13.6494 -13.6337 -13.6337   1.2475   4.8511   5.5383   5.5383
     7.1298

          k = 0.0000 0.7500-0.2500 (  1002 PWs)   bands (ev):

   -30.1902 -13.6693 -13.6447 -13.6291   3.0102   3.1273   5.2237   5.3489
     6.8187

          k = 0.5000-0.5000 0.5000 (  1004 PWs)   bands (ev):

   -30.1918 -13.6407 -13.6407 -13.6407   3.4485   3.4485   3.4485   5.1153
     7.8756

          k = 0.0000 0.0000-1.0000 (  1048 PWs)   bands (ev):

   -30.1883 -13.6683 -13.6683 -13.6683   3.6262   5.5232   5.5232   5.5232
     7.6524

     the Fermi energy is     1.9331 ev

!    total energy              =     -58.75305243 Ry
     Harris-Foulkes estimate   =     -58.75305243 Ry
     estimated scf accuracy    <          3.7E-10 Ry

     The total energy is the sum of the following terms:

     one-electron contribution =     -36.55326747 Ry
     hartree contribution      =      18.86510749 Ry
     xc contribution           =     -11.16644854 Ry
     ewald contribution        =     -29.89633975 Ry
     smearing contrib. (-TS)   =      -0.00210417 Ry

     convergence has been achieved in   5 iterations

     Forces acting on atoms (cartesian axes, Ry/au):

     atom    1 type  1   force =     0.00000000    0.00000000    0.00000000

     Total force =     0.000000     Total SCF correction =     0.000000


     Computing stress (Cartesian axis) and pressure

          total   stress  (Ry/bohr**3)                   (kbar)     P=  -29.78
  -0.00020243   0.00000000  -0.00000000        -29.78      0.00     -0.00
   0.00000000  -0.00020243   0.00000000          0.00    -29.78      0.00
  -0.00000000   0.00000000  -0.00020243         -0.00      0.00    -29.78


     Writing output data file K.save/

     init_run     :      0.14s CPU      0.15s WALL (       1 calls)
     electrons    :      0.70s CPU      0.74s WALL (       1 calls)
     forces       :      0.03s CPU      0.03s WALL (       1 calls)
     stress       :      0.09s CPU      0.09s WALL (       1 calls)

     Called by init_run:
     wfcinit      :      0.02s CPU      0.02s WALL (       1 calls)
     potinit      :      0.01s CPU      0.01s WALL (       1 calls)
     hinit0       :      0.10s CPU      0.11s WALL (       1 calls)

     Called by electrons:
     c_bands      :      0.49s CPU      0.51s WALL (       6 calls)
     sum_band     :      0.14s CPU      0.15s WALL (       6 calls)
     v_of_rho     :      0.03s CPU      0.03s WALL (       6 calls)
     newd         :      0.05s CPU      0.05s WALL (       6 calls)
     mix_rho      :      0.00s CPU      0.00s WALL (       6 calls)

     Called by c_bands:
     init_us_2    :      0.02s CPU      0.02s WALL (     120 calls)
     cegterg      :      0.46s CPU      0.48s WALL (      48 calls)

     Called by sum_band:
     sum_band:bec :      0.00s CPU      0.00s WALL (      48 calls)
     addusdens    :      0.05s CPU      0.05s WALL (       6 calls)

     Called by *egterg:
     h_psi        :      0.35s CPU      0.36s WALL (     246 calls)
     s_psi        :      0.01s CPU      0.01s WALL (     246 calls)
     g_psi        :      0.00s CPU      0.00s WALL (     190 calls)
     cdiaghg      :      0.05s CPU      0.05s WALL (     230 calls)

     Called by h_psi:
     h_psi:pot    :      0.34s CPU      0.36s WALL (     246 calls)
     h_psi:calbec :      0.02s CPU      0.02s WALL (     246 calls)
     vloc_psi     :      0.31s CPU      0.32s WALL (     246 calls)
     add_vuspsi   :      0.01s CPU      0.01s WALL (     246 calls)

     General routines
     calbec       :      0.03s CPU      0.04s WALL (     334 calls)
     fft          :      0.02s CPU      0.02s WALL (      93 calls)
     ffts         :      0.00s CPU      0.00s WALL (       6 calls)
     fftw         :      0.34s CPU      0.36s WALL (    2944 calls)

     Parallel routines
     fft_scatt_xy :      0.03s CPU      0.03s WALL (    3043 calls)
     fft_scatt_yz :      0.11s CPU      0.12s WALL (    3043 calls)

     PWSCF        :     1.68s CPU         1.76s WALL


   This run was terminated on:   0:17:40   8Apr2024            

=------------------------------------------------------------------------------=
   JOB DONE.
=------------------------------------------------------------------------------=
