
     Program PWSCF v.6.3MaX starts on  8Apr2024 at  0:11: 3 

     This program is part of the open-source Quantum ESPRESSO suite
     for quantum simulation of materials; please cite
         "P. Giannozzi et al., J. Phys.:Condens. Matter 21 395502 (2009);
         "P. Giannozzi et al., J. Phys.:Condens. Matter 29 465901 (2017);
          URL http://www.quantum-espresso.org", 
     in publications or presentations arising from this work. More details at
     http://www.quantum-espresso.org/quote

     Parallel version (MPI), running on     5 processors

     MPI processes distributed on     1 nodes
     R & G space division:  proc/nbgrp/npool/nimage =       5
     Waiting for input...
     Reading input from standard input

     Current dimensions of program PWSCF are:
     Max number of different atomic species (ntypx) = 10
     Max number of k-points (npk) =  40000
     Max angular momentum in pseudopotentials (lmaxx) =  3
               file K.pz-spn-kjpaw_psl.1.0.0.UPF: wavefunction(s)  3S renormalized

     Subspace diagonalization in iterative solution of the eigenvalue problem:
     a serial algorithm will be used


     Parallelization info
     --------------------
     sticks:   dense  smooth     PW     G-vecs:    dense   smooth      PW
     Min          43      43     11                  417      417      49
     Max          44      44     11                  420      420      50
     Sum         219     219     55                 2093     2093     249



     bravais-lattice index     =            3
     lattice parameter (alat)  =       9.8600  a.u.
     unit-cell volume          =     479.2926 (a.u.)^3
     number of atoms/cell      =            1
     number of atomic types    =            1
     number of electrons       =         9.00
     number of Kohn-Sham states=            9
     kinetic-energy cutoff     =      10.0000  Ry
     charge density cutoff     =      40.0000  Ry
     convergence threshold     =      1.0E-08
     mixing beta               =       0.7000
     number of iterations used =            8  plain     mixing
     Exchange-correlation      = SLA PZ NOGX NOGC ( 1  1  0  0 0 0)

     celldm(1)=   9.860000  celldm(2)=   0.000000  celldm(3)=   0.000000
     celldm(4)=   0.000000  celldm(5)=   0.000000  celldm(6)=   0.000000

     crystal axes: (cart. coord. in units of alat)
               a(1) = (   0.500000   0.500000   0.500000 )  
               a(2) = (  -0.500000   0.500000   0.500000 )  
               a(3) = (  -0.500000  -0.500000   0.500000 )  

     reciprocal axes: (cart. coord. in units 2 pi/alat)
               b(1) = (  1.000000  0.000000  1.000000 )  
               b(2) = ( -1.000000  1.000000  0.000000 )  
               b(3) = (  0.000000 -1.000000  1.000000 )  


     PseudoPot. # 1 for K  read from file:
     /home/lorenzo/pseudos/K/K.pz-spn-kjpaw_psl.1.0.0.UPF
     MD5 check sum: 59b94f4c1a6681f21e103574f2c5fc67
     Pseudo is Projector augmented-wave + core cor, Zval =  9.0
     Generated using "atomic" code by A. Dal Corso v.6.2.2
     Shape of augmentation charge: PSQ
     Using radial grid of 1165 points,  6 beta functions with: 
                l(1) =   0
                l(2) =   0
                l(3) =   1
                l(4) =   1
                l(5) =   2
                l(6) =   2
     Q(r) pseudized with 0 coefficients 


     atomic species   valence    mass     pseudopotential
        K              9.00    39.09830     K ( 1.00)

     48 Sym. Ops., with inversion, found



   Cartesian axes

     site n.     atom                  positions (alat units)
         1           K   tau(   1) = (   0.0000000   0.0000000   0.0000000  )

     number of k points=     1  gaussian smearing, width (Ry)=  0.0100
                       cart. coord. in units 2pi/alat
        k(    1) = (   0.0000000   0.0000000   0.0000000), wk =   2.0000000

     Dense  grid:     2093 G-vectors     FFT dimensions: (  18,  18,  18)

     Estimated max dynamical RAM per process >       2.37 MB

     Estimated total dynamical RAM >      11.85 MB

     Check: negative/imaginary core charge=   -0.001512    0.000000

     Initial potential from superposition of free atoms
     Check: negative starting charge=   -0.000618

     starting charge    8.98437, renormalised to    9.00000

     negative rho (up, down):  6.192E-04 0.000E+00
     Starting wfcs are    8 randomized atomic wfcs +    1 random wfcs
     Checking if some PAW data can be deallocated... 

     total cpu time spent up to now is        0.8 secs

     Self-consistent Calculation

     iteration #  1     ecut=    10.00 Ry     beta= 0.70
     Davidson diagonalization with overlap
     ethr =  1.00E-02,  avg # of iterations = 10.0

     total cpu time spent up to now is        0.9 secs

     total energy              =    -108.28020871 Ry
     Harris-Foulkes estimate   =    -108.59620557 Ry
     estimated scf accuracy    <       0.38709435 Ry

     iteration #  2     ecut=    10.00 Ry     beta= 0.70
     Davidson diagonalization with overlap
     ethr =  4.30E-03,  avg # of iterations =  2.0

     total cpu time spent up to now is        1.0 secs

     total energy              =    -108.35309859 Ry
     Harris-Foulkes estimate   =    -108.35683131 Ry
     estimated scf accuracy    <       0.00959595 Ry

     iteration #  3     ecut=    10.00 Ry     beta= 0.70
     Davidson diagonalization with overlap
     ethr =  1.07E-04,  avg # of iterations =  5.0

     total cpu time spent up to now is        1.0 secs

     total energy              =    -108.35303035 Ry
     Harris-Foulkes estimate   =    -108.35334133 Ry
     estimated scf accuracy    <       0.00073378 Ry

     iteration #  4     ecut=    10.00 Ry     beta= 0.70
     Davidson diagonalization with overlap
     ethr =  8.15E-06,  avg # of iterations =  2.0

     total cpu time spent up to now is        1.1 secs

     total energy              =    -108.35304820 Ry
     Harris-Foulkes estimate   =    -108.35304927 Ry
     estimated scf accuracy    <       0.00000180 Ry

     iteration #  5     ecut=    10.00 Ry     beta= 0.70
     Davidson diagonalization with overlap
     ethr =  2.00E-08,  avg # of iterations =  2.0

     total cpu time spent up to now is        1.1 secs

     total energy              =    -108.35304846 Ry
     Harris-Foulkes estimate   =    -108.35304848 Ry
     estimated scf accuracy    <       0.00000005 Ry

     iteration #  6     ecut=    10.00 Ry     beta= 0.70
     Davidson diagonalization with overlap
     ethr =  5.30E-10,  avg # of iterations =  2.0

     total cpu time spent up to now is        1.2 secs

     End of self-consistent calculation

          k = 0.0000 0.0000 0.0000 (   249 PWs)   bands (ev):

   -34.2786 -13.1945 -13.1945 -13.1945  -0.3932   7.1163   7.1163   8.3411
     8.3415

     the Fermi energy is    -0.3932 ev

!    total energy              =    -108.35304846 Ry
     Harris-Foulkes estimate   =    -108.35304846 Ry
     estimated scf accuracy    <          3.9E-10 Ry

     total all-electron energy =     -1199.678048 Ry

     The total energy is the sum of the following terms:

     one-electron contribution =     -32.70038047 Ry
     hartree contribution      =      16.89491760 Ry
     xc contribution           =     -10.64738307 Ry
     ewald contribution        =     -29.89633971 Ry
     one-center paw contrib.   =     -51.99822092 Ry
     smearing contrib. (-TS)   =      -0.00564190 Ry

     convergence has been achieved in   6 iterations

     Forces acting on atoms (cartesian axes, Ry/au):

     atom    1 type  1   force =     0.00000000    0.00000000    0.00000000

     Total force =     0.000000     Total SCF correction =     0.000000


     Computing stress (Cartesian axis) and pressure

          total   stress  (Ry/bohr**3)                   (kbar)     P= -860.41
  -0.00584894  -0.00000000   0.00000000       -860.41     -0.00      0.00
  -0.00000000  -0.00584894  -0.00000000         -0.00   -860.41     -0.00
   0.00000000  -0.00000000  -0.00584894          0.00     -0.00   -860.41


     Writing output data file K.save/

     init_run     :      0.12s CPU      0.13s WALL (       1 calls)
     electrons    :      0.31s CPU      0.33s WALL (       1 calls)
     forces       :      0.01s CPU      0.01s WALL (       1 calls)
     stress       :      0.02s CPU      0.02s WALL (       1 calls)

     Called by init_run:
     wfcinit      :      0.00s CPU      0.00s WALL (       1 calls)
     potinit      :      0.04s CPU      0.04s WALL (       1 calls)
     hinit0       :      0.08s CPU      0.08s WALL (       1 calls)

     Called by electrons:
     c_bands      :      0.03s CPU      0.03s WALL (       6 calls)
     sum_band     :      0.02s CPU      0.02s WALL (       6 calls)
     v_of_rho     :      0.00s CPU      0.00s WALL (       7 calls)
     newd         :      0.01s CPU      0.01s WALL (       7 calls)
     PAW_pot      :      0.28s CPU      0.28s WALL (       7 calls)
     mix_rho      :      0.00s CPU      0.00s WALL (       6 calls)

     Called by c_bands:
     init_us_2    :      0.00s CPU      0.00s WALL (      13 calls)
     cegterg      :      0.02s CPU      0.03s WALL (       6 calls)

     Called by sum_band:
     sum_band:bec :      0.00s CPU      0.00s WALL (       6 calls)
     addusdens    :      0.01s CPU      0.01s WALL (       6 calls)

     Called by *egterg:
     h_psi        :      0.01s CPU      0.02s WALL (      30 calls)
     s_psi        :      0.00s CPU      0.00s WALL (      30 calls)
     g_psi        :      0.00s CPU      0.00s WALL (      23 calls)
     cdiaghg      :      0.01s CPU      0.01s WALL (      29 calls)

     Called by h_psi:
     h_psi:pot    :      0.01s CPU      0.02s WALL (      30 calls)
     h_psi:calbec :      0.00s CPU      0.00s WALL (      30 calls)
     vloc_psi     :      0.01s CPU      0.01s WALL (      30 calls)
     add_vuspsi   :      0.00s CPU      0.00s WALL (      30 calls)

     General routines
     calbec       :      0.00s CPU      0.00s WALL (      41 calls)
     fft          :      0.00s CPU      0.00s WALL (      37 calls)
     ffts         :      0.00s CPU      0.00s WALL (       6 calls)
     fftw         :      0.01s CPU      0.02s WALL (     392 calls)

     Parallel routines
     fft_scatt_xy :      0.00s CPU      0.00s WALL (     435 calls)
     fft_scatt_yz :      0.01s CPU      0.01s WALL (     435 calls)

     PWSCF        :     1.18s CPU         1.24s WALL


   This run was terminated on:   0:11: 4   8Apr2024            

=------------------------------------------------------------------------------=
   JOB DONE.
=------------------------------------------------------------------------------=
