
     Program PWSCF v.6.3MaX starts on  8Apr2024 at  0:34:23 

     This program is part of the open-source Quantum ESPRESSO suite
     for quantum simulation of materials; please cite
         "P. Giannozzi et al., J. Phys.:Condens. Matter 21 395502 (2009);
         "P. Giannozzi et al., J. Phys.:Condens. Matter 29 465901 (2017);
          URL http://www.quantum-espresso.org", 
     in publications or presentations arising from this work. More details at
     http://www.quantum-espresso.org/quote

     Parallel version (MPI), running on     5 processors

     MPI processes distributed on     1 nodes
     R & G space division:  proc/nbgrp/npool/nimage =       5
     Waiting for input...
     Reading input from standard input

     Current dimensions of program PWSCF are:
     Max number of different atomic species (ntypx) = 10
     Max number of k-points (npk) =  40000
     Max angular momentum in pseudopotentials (lmaxx) =  3
               file K.pbe-spn-rrkjus_psl.1.0.0.UPF: wavefunction(s)  3S renormalized

     Subspace diagonalization in iterative solution of the eigenvalue problem:
     a serial algorithm will be used


     Parallelization info
     --------------------
     sticks:   dense  smooth     PW     G-vecs:    dense   smooth      PW
     Min         221     221     62                 4575     4575     702
     Max         221     221     63                 4576     4576     703
     Sum        1105    1105    311                22879    22879    3511



     bravais-lattice index     =            3
     lattice parameter (alat)  =       9.8600  a.u.
     unit-cell volume          =     479.2926 (a.u.)^3
     number of atoms/cell      =            1
     number of atomic types    =            1
     number of electrons       =         9.00
     number of Kohn-Sham states=            9
     kinetic-energy cutoff     =      50.0000  Ry
     charge density cutoff     =     200.0000  Ry
     convergence threshold     =      1.0E-08
     mixing beta               =       0.7000
     number of iterations used =            8  plain     mixing
     Exchange-correlation      = PBE ( 1  4  3  4 0 0)

     celldm(1)=   9.860000  celldm(2)=   0.000000  celldm(3)=   0.000000
     celldm(4)=   0.000000  celldm(5)=   0.000000  celldm(6)=   0.000000

     crystal axes: (cart. coord. in units of alat)
               a(1) = (   0.500000   0.500000   0.500000 )  
               a(2) = (  -0.500000   0.500000   0.500000 )  
               a(3) = (  -0.500000  -0.500000   0.500000 )  

     reciprocal axes: (cart. coord. in units 2 pi/alat)
               b(1) = (  1.000000  0.000000  1.000000 )  
               b(2) = ( -1.000000  1.000000  0.000000 )  
               b(3) = (  0.000000 -1.000000  1.000000 )  


     PseudoPot. # 1 for K  read from file:
     /home/lorenzo/pseudos/K/K.pbe-spn-rrkjus_psl.1.0.0.UPF
     MD5 check sum: 897b700350bb708b0563e904352feb48
     Pseudo is Ultrasoft + core correction, Zval =  9.0
     Generated using "atomic" code by A. Dal Corso v.6.2.2
     Using radial grid of 1165 points,  6 beta functions with: 
                l(1) =   0
                l(2) =   0
                l(3) =   1
                l(4) =   1
                l(5) =   2
                l(6) =   2
     Q(r) pseudized with 0 coefficients 


     atomic species   valence    mass     pseudopotential
        K              9.00    39.09830     K ( 1.00)

     48 Sym. Ops., with inversion, found



   Cartesian axes

     site n.     atom                  positions (alat units)
         1           K   tau(   1) = (   0.0000000   0.0000000   0.0000000  )

     number of k points=     4  gaussian smearing, width (Ry)=  0.0100
                       cart. coord. in units 2pi/alat
        k(    1) = (   0.0000000   0.0000000   0.0000000), wk =   0.0740741
        k(    2) = (   0.0000000  -0.3333333   0.3333333), wk =   0.8888889
        k(    3) = (  -0.3333333   0.6666667  -0.3333333), wk =   0.5925926
        k(    4) = (   0.0000000   0.0000000   0.6666667), wk =   0.4444444

     Dense  grid:    22879 G-vectors     FFT dimensions: (  40,  40,  40)

     Estimated max dynamical RAM per process >      19.15 MB

     Estimated total dynamical RAM >      95.73 MB

     Check: negative/imaginary core charge=   -0.000006    0.000000

     Initial potential from superposition of free atoms

     starting charge    8.98117, renormalised to    9.00000
     Starting wfcs are    8 randomized atomic wfcs +    1 random wfcs

     total cpu time spent up to now is        1.2 secs

     Self-consistent Calculation

     iteration #  1     ecut=    50.00 Ry     beta= 0.70
     Davidson diagonalization with overlap
     ethr =  1.00E-02,  avg # of iterations =  8.8

     Threshold (ethr) on eigenvalues was too large:
     Diagonalizing with lowered threshold

     Davidson diagonalization with overlap
     ethr =  1.41E-05,  avg # of iterations =  9.2

     total cpu time spent up to now is        1.8 secs

     total energy              =     -58.78022663 Ry
     Harris-Foulkes estimate   =     -58.78078254 Ry
     estimated scf accuracy    <       0.00128265 Ry

     iteration #  2     ecut=    50.00 Ry     beta= 0.70
     Davidson diagonalization with overlap
     ethr =  1.43E-05,  avg # of iterations =  2.2

     total cpu time spent up to now is        2.0 secs

     total energy              =     -58.78046385 Ry
     Harris-Foulkes estimate   =     -58.78046860 Ry
     estimated scf accuracy    <       0.00010063 Ry

     iteration #  3     ecut=    50.00 Ry     beta= 0.70
     Davidson diagonalization with overlap
     ethr =  1.12E-06,  avg # of iterations =  1.2

     total cpu time spent up to now is        2.1 secs

     total energy              =     -58.78047361 Ry
     Harris-Foulkes estimate   =     -58.78047117 Ry
     estimated scf accuracy    <       0.00000678 Ry

     iteration #  4     ecut=    50.00 Ry     beta= 0.70
     Davidson diagonalization with overlap
     ethr =  7.53E-08,  avg # of iterations =  1.8

     total cpu time spent up to now is        2.3 secs

     total energy              =     -58.78047422 Ry
     Harris-Foulkes estimate   =     -58.78047421 Ry
     estimated scf accuracy    <       0.00000005 Ry

     iteration #  5     ecut=    50.00 Ry     beta= 0.70
     Davidson diagonalization with overlap
     ethr =  5.92E-10,  avg # of iterations =  2.2

     total cpu time spent up to now is        2.4 secs

     End of self-consistent calculation

          k = 0.0000 0.0000 0.0000 (  2899 PWs)   bands (ev):

   -30.1673 -13.6152 -13.6152 -13.6152  -0.2608   6.2630   6.2630   6.2630
     7.1823

          k = 0.0000-0.3333 0.3333 (  2870 PWs)   bands (ev):

   -30.1636 -13.6726 -13.6343 -13.6151   1.0781   4.1207   5.3356   7.0337
     7.2506

          k =-0.3333 0.6667-0.3333 (  2868 PWs)   bands (ev):

   -30.1618 -13.6677 -13.6677 -13.6247   3.1581   3.1581   3.5776   6.5941
     7.3436

          k = 0.0000 0.0000 0.6667 (  2855 PWs)   bands (ev):

   -30.1605 -13.6653 -13.6557 -13.6557   2.2395   4.1511   5.4271   5.4271
     6.0572

     the Fermi energy is     2.1065 ev

!    total energy              =     -58.78047423 Ry
     Harris-Foulkes estimate   =     -58.78047424 Ry
     estimated scf accuracy    <          2.6E-09 Ry

     The total energy is the sum of the following terms:

     one-electron contribution =     -36.59262248 Ry
     hartree contribution      =      18.87863093 Ry
     xc contribution           =     -11.16966108 Ry
     ewald contribution        =     -29.89633978 Ry
     smearing contrib. (-TS)   =      -0.00048182 Ry

     convergence has been achieved in   5 iterations

     Forces acting on atoms (cartesian axes, Ry/au):

     atom    1 type  1   force =     0.00000000    0.00000000    0.00000000

     Total force =     0.000000     Total SCF correction =     0.000000


     Computing stress (Cartesian axis) and pressure

          total   stress  (Ry/bohr**3)                   (kbar)     P=   -0.35
  -0.00000238  -0.00000000   0.00000000         -0.35     -0.00      0.00
  -0.00000000  -0.00000238  -0.00000000         -0.00     -0.35     -0.00
   0.00000000  -0.00000000  -0.00000238          0.00     -0.00     -0.35


     Writing output data file K.save/

     init_run     :      0.25s CPU      0.26s WALL (       1 calls)
     electrons    :      1.19s CPU      1.23s WALL (       1 calls)
     forces       :      0.06s CPU      0.06s WALL (       1 calls)
     stress       :      0.20s CPU      0.21s WALL (       1 calls)

     Called by init_run:
     wfcinit      :      0.03s CPU      0.03s WALL (       1 calls)
     potinit      :      0.02s CPU      0.02s WALL (       1 calls)
     hinit0       :      0.16s CPU      0.16s WALL (       1 calls)

     Called by electrons:
     c_bands      :      0.73s CPU      0.76s WALL (       6 calls)
     sum_band     :      0.27s CPU      0.28s WALL (       6 calls)
     v_of_rho     :      0.08s CPU      0.08s WALL (       6 calls)
     newd         :      0.13s CPU      0.13s WALL (       6 calls)
     mix_rho      :      0.01s CPU      0.01s WALL (       6 calls)

     Called by c_bands:
     init_us_2    :      0.02s CPU      0.02s WALL (      60 calls)
     cegterg      :      0.70s CPU      0.73s WALL (      24 calls)

     Called by sum_band:
     sum_band:bec :      0.00s CPU      0.00s WALL (      24 calls)
     addusdens    :      0.14s CPU      0.14s WALL (       6 calls)

     Called by *egterg:
     h_psi        :      0.56s CPU      0.58s WALL (     130 calls)
     s_psi        :      0.02s CPU      0.02s WALL (     130 calls)
     g_psi        :      0.00s CPU      0.00s WALL (     102 calls)
     cdiaghg      :      0.03s CPU      0.03s WALL (     122 calls)

     Called by h_psi:
     h_psi:pot    :      0.55s CPU      0.58s WALL (     130 calls)
     h_psi:calbec :      0.03s CPU      0.03s WALL (     130 calls)
     vloc_psi     :      0.50s CPU      0.53s WALL (     130 calls)
     add_vuspsi   :      0.02s CPU      0.02s WALL (     130 calls)

     General routines
     calbec       :      0.05s CPU      0.05s WALL (     174 calls)
     fft          :      0.05s CPU      0.05s WALL (      93 calls)
     ffts         :      0.00s CPU      0.00s WALL (       6 calls)
     fftw         :      0.55s CPU      0.57s WALL (    1510 calls)

     Parallel routines
     fft_scatt_xy :      0.04s CPU      0.04s WALL (    1609 calls)
     fft_scatt_yz :      0.20s CPU      0.21s WALL (    1609 calls)

     PWSCF        :     2.67s CPU         2.76s WALL


   This run was terminated on:   0:34:26   8Apr2024            

=------------------------------------------------------------------------------=
   JOB DONE.
=------------------------------------------------------------------------------=
