
     Program PWSCF v.6.3MaX starts on  8Apr2024 at  0:20:28 

     This program is part of the open-source Quantum ESPRESSO suite
     for quantum simulation of materials; please cite
         "P. Giannozzi et al., J. Phys.:Condens. Matter 21 395502 (2009);
         "P. Giannozzi et al., J. Phys.:Condens. Matter 29 465901 (2017);
          URL http://www.quantum-espresso.org", 
     in publications or presentations arising from this work. More details at
     http://www.quantum-espresso.org/quote

     Parallel version (MPI), running on     5 processors

     MPI processes distributed on     1 nodes
     R & G space division:  proc/nbgrp/npool/nimage =       5
     Waiting for input...
     Reading input from standard input

     Current dimensions of program PWSCF are:
     Max number of different atomic species (ntypx) = 10
     Max number of k-points (npk) =  40000
     Max angular momentum in pseudopotentials (lmaxx) =  3
               file K.pz-spn-rrkjus_psl.1.0.0.UPF: wavefunction(s)  3S renormalized

     Subspace diagonalization in iterative solution of the eigenvalue problem:
     a serial algorithm will be used


     Parallelization info
     --------------------
     sticks:   dense  smooth     PW     G-vecs:    dense   smooth      PW
     Min         131     131     41                 2128     2128     373
     Max         132     132     41                 2129     2129     373
     Sum         657     657    205                10641    10641    1865



     bravais-lattice index     =            3
     lattice parameter (alat)  =       9.8600  a.u.
     unit-cell volume          =     479.2926 (a.u.)^3
     number of atoms/cell      =            1
     number of atomic types    =            1
     number of electrons       =         9.00
     number of Kohn-Sham states=            9
     kinetic-energy cutoff     =      30.0000  Ry
     charge density cutoff     =     120.0000  Ry
     convergence threshold     =      1.0E-08
     mixing beta               =       0.7000
     number of iterations used =            8  plain     mixing
     Exchange-correlation      = LDA ( 1  1  0  0 0 0)

     celldm(1)=   9.860000  celldm(2)=   0.000000  celldm(3)=   0.000000
     celldm(4)=   0.000000  celldm(5)=   0.000000  celldm(6)=   0.000000

     crystal axes: (cart. coord. in units of alat)
               a(1) = (   0.500000   0.500000   0.500000 )  
               a(2) = (  -0.500000   0.500000   0.500000 )  
               a(3) = (  -0.500000  -0.500000   0.500000 )  

     reciprocal axes: (cart. coord. in units 2 pi/alat)
               b(1) = (  1.000000  0.000000  1.000000 )  
               b(2) = ( -1.000000  1.000000  0.000000 )  
               b(3) = (  0.000000 -1.000000  1.000000 )  


     PseudoPot. # 1 for K  read from file:
     /home/lorenzo/pseudos/K/K.pz-spn-rrkjus_psl.1.0.0.UPF
     MD5 check sum: af434a66a3b91719abff201b8f79bb09
     Pseudo is Ultrasoft + core correction, Zval =  9.0
     Generated using "atomic" code by A. Dal Corso v.6.2.2
     Using radial grid of 1165 points,  6 beta functions with: 
                l(1) =   0
                l(2) =   0
                l(3) =   1
                l(4) =   1
                l(5) =   2
                l(6) =   2
     Q(r) pseudized with 0 coefficients 


     atomic species   valence    mass     pseudopotential
        K              9.00    39.09830     K ( 1.00)

     48 Sym. Ops., with inversion, found



   Cartesian axes

     site n.     atom                  positions (alat units)
         1           K   tau(   1) = (   0.0000000   0.0000000   0.0000000  )

     number of k points=    10  gaussian smearing, width (Ry)=  0.0100
                       cart. coord. in units 2pi/alat
        k(    1) = (   0.0000000   0.0000000   0.0000000), wk =   0.0160000
        k(    2) = (   0.0000000  -0.2000000   0.2000000), wk =   0.1920000
        k(    3) = (   0.0000000  -0.4000000   0.4000000), wk =   0.1920000
        k(    4) = (  -0.2000000  -0.2000000   0.4000000), wk =   0.3840000
        k(    5) = (  -0.2000000   0.6000000  -0.4000000), wk =   0.3840000
        k(    6) = (   0.0000000   0.0000000   0.4000000), wk =   0.0960000
        k(    7) = (   0.0000000  -0.2000000   0.6000000), wk =   0.3840000
        k(    8) = (  -0.2000000   0.8000000  -0.2000000), wk =   0.1280000
        k(    9) = (   0.6000000  -0.6000000   0.4000000), wk =   0.1280000
        k(   10) = (   0.0000000   0.0000000   0.8000000), wk =   0.0960000

     Dense  grid:    10641 G-vectors     FFT dimensions: (  30,  30,  30)

     Estimated max dynamical RAM per process >       9.64 MB

     Estimated total dynamical RAM >      48.20 MB

     Check: negative/imaginary core charge=   -0.000030    0.000000

     Initial potential from superposition of free atoms

     starting charge    8.98437, renormalised to    9.00000
     Starting wfcs are    8 randomized atomic wfcs +    1 random wfcs

     total cpu time spent up to now is        1.0 secs

     Self-consistent Calculation

     iteration #  1     ecut=    30.00 Ry     beta= 0.70
     Davidson diagonalization with overlap
     ethr =  1.00E-02,  avg # of iterations =  6.9

     Threshold (ethr) on eigenvalues was too large:
     Diagonalizing with lowered threshold

     Davidson diagonalization with overlap
     ethr =  1.27E-05,  avg # of iterations =  6.2

     total cpu time spent up to now is        1.4 secs

     total energy              =     -58.73995635 Ry
     Harris-Foulkes estimate   =     -58.74054499 Ry
     estimated scf accuracy    <       0.00114695 Ry

     iteration #  2     ecut=    30.00 Ry     beta= 0.70
     Davidson diagonalization with overlap
     ethr =  1.27E-05,  avg # of iterations =  2.2

     total cpu time spent up to now is        1.6 secs

     total energy              =     -58.74016495 Ry
     Harris-Foulkes estimate   =     -58.74018260 Ry
     estimated scf accuracy    <       0.00009061 Ry

     iteration #  3     ecut=    30.00 Ry     beta= 0.70
     Davidson diagonalization with overlap
     ethr =  1.01E-06,  avg # of iterations =  1.5

     total cpu time spent up to now is        1.7 secs

     total energy              =     -58.74017413 Ry
     Harris-Foulkes estimate   =     -58.74017326 Ry
     estimated scf accuracy    <       0.00000577 Ry

     iteration #  4     ecut=    30.00 Ry     beta= 0.70
     Davidson diagonalization with overlap
     ethr =  6.41E-08,  avg # of iterations =  1.5

     total cpu time spent up to now is        2.0 secs

     total energy              =     -58.74017459 Ry
     Harris-Foulkes estimate   =     -58.74017458 Ry
     estimated scf accuracy    <       0.00000003 Ry

     iteration #  5     ecut=    30.00 Ry     beta= 0.70
     Davidson diagonalization with overlap
     ethr =  3.49E-10,  avg # of iterations =  2.4

     total cpu time spent up to now is        2.1 secs

     End of self-consistent calculation

          k = 0.0000 0.0000 0.0000 (  1289 PWs)   bands (ev):

   -30.0968 -13.7326 -13.7326 -13.7326  -0.4759   5.9461   5.9461   5.9461
     6.8952

          k = 0.0000-0.2000 0.2000 (  1342 PWs)   bands (ev):

   -30.0952 -13.7625 -13.7439 -13.7343   0.0293   5.0989   5.4645   6.3485
     6.6567

          k = 0.0000-0.4000 0.4000 (  1332 PWs)   bands (ev):

   -30.0923 -13.8062 -13.7591 -13.7343   1.4008   3.2824   4.9200   6.6406
     7.1422

          k =-0.2000-0.2000 0.4000 (  1342 PWs)   bands (ev):

   -30.0928 -13.7922 -13.7564 -13.7406   0.9748   4.1600   4.6217   6.5859
     6.6935

          k =-0.2000 0.6000-0.4000 (  1326 PWs)   bands (ev):

   -30.0913 -13.8038 -13.7713 -13.7420   2.5323   2.6610   4.1732   6.2462
     7.1504

          k = 0.0000 0.0000 0.4000 (  1337 PWs)   bands (ev):

   -30.0935 -13.7656 -13.7535 -13.7535   0.5142   5.1074   5.3581   5.3581
     6.5151

          k = 0.0000-0.2000 0.6000 (  1318 PWs)   bands (ev):

   -30.0908 -13.7994 -13.7690 -13.7545   1.8291   3.5375   5.0492   5.3228
     6.6929

          k =-0.2000 0.8000-0.2000 (  1322 PWs)   bands (ev):

   -30.0896 -13.7926 -13.7926 -13.7598   3.0955   3.0955   3.8071   6.1545
     6.1545

          k = 0.6000-0.6000 0.4000 (  1325 PWs)   bands (ev):

   -30.0917 -13.7935 -13.7600 -13.7600   2.2390   3.6346   3.6346   5.3861
     7.3752

          k = 0.0000 0.0000 0.8000 (  1324 PWs)   bands (ev):

   -30.0885 -13.7909 -13.7859 -13.7859   2.8419   3.6026   5.2203   5.2204
     5.2911

     the Fermi energy is     1.7821 ev

!    total energy              =     -58.74017459 Ry
     Harris-Foulkes estimate   =     -58.74017459 Ry
     estimated scf accuracy    <          8.1E-10 Ry

     The total energy is the sum of the following terms:

     one-electron contribution =     -36.65021548 Ry
     hartree contribution      =      18.82366831 Ry
     xc contribution           =     -11.01632618 Ry
     ewald contribution        =     -29.89633973 Ry
     smearing contrib. (-TS)   =      -0.00096152 Ry

     convergence has been achieved in   5 iterations

     Forces acting on atoms (cartesian axes, Ry/au):

     atom    1 type  1   force =     0.00000000    0.00000000    0.00000000

     Total force =     0.000000     Total SCF correction =     0.000000


     Computing stress (Cartesian axis) and pressure

          total   stress  (Ry/bohr**3)                   (kbar)     P=   -9.05
  -0.00006153  -0.00000000   0.00000000         -9.05     -0.00      0.00
  -0.00000000  -0.00006153  -0.00000000         -0.00     -9.05     -0.00
  -0.00000000  -0.00000000  -0.00006153         -0.00     -0.00     -9.05


     Writing output data file K.save/

     init_run     :      0.25s CPU      0.26s WALL (       1 calls)
     electrons    :      1.11s CPU      1.15s WALL (       1 calls)
     forces       :      0.03s CPU      0.04s WALL (       1 calls)
     stress       :      0.13s CPU      0.14s WALL (       1 calls)

     Called by init_run:
     wfcinit      :      0.08s CPU      0.08s WALL (       1 calls)
     potinit      :      0.01s CPU      0.01s WALL (       1 calls)
     hinit0       :      0.14s CPU      0.15s WALL (       1 calls)

     Called by electrons:
     c_bands      :      0.82s CPU      0.85s WALL (       6 calls)
     sum_band     :      0.21s CPU      0.21s WALL (       6 calls)
     v_of_rho     :      0.00s CPU      0.01s WALL (       6 calls)
     newd         :      0.08s CPU      0.08s WALL (       6 calls)
     mix_rho      :      0.01s CPU      0.01s WALL (       6 calls)

     Called by c_bands:
     init_us_2    :      0.03s CPU      0.03s WALL (     150 calls)
     cegterg      :      0.77s CPU      0.80s WALL (      60 calls)

     Called by sum_band:
     sum_band:bec :      0.00s CPU      0.00s WALL (      60 calls)
     addusdens    :      0.06s CPU      0.07s WALL (       6 calls)

     Called by *egterg:
     h_psi        :      0.64s CPU      0.66s WALL (     277 calls)
     s_psi        :      0.02s CPU      0.02s WALL (     277 calls)
     g_psi        :      0.00s CPU      0.00s WALL (     207 calls)
     cdiaghg      :      0.07s CPU      0.07s WALL (     257 calls)

     Called by h_psi:
     h_psi:pot    :      0.63s CPU      0.66s WALL (     277 calls)
     h_psi:calbec :      0.03s CPU      0.04s WALL (     277 calls)
     vloc_psi     :      0.58s CPU      0.60s WALL (     277 calls)
     add_vuspsi   :      0.02s CPU      0.02s WALL (     277 calls)

     General routines
     calbec       :      0.06s CPU      0.06s WALL (     387 calls)
     fft          :      0.01s CPU      0.02s WALL (      34 calls)
     ffts         :      0.00s CPU      0.00s WALL (       6 calls)
     fftw         :      0.63s CPU      0.66s WALL (    3690 calls)

     Parallel routines
     fft_scatt_xy :      0.04s CPU      0.04s WALL (    3730 calls)
     fft_scatt_yz :      0.28s CPU      0.29s WALL (    3730 calls)

     PWSCF        :     2.25s CPU         2.35s WALL


   This run was terminated on:   0:20:30   8Apr2024            

=------------------------------------------------------------------------------=
   JOB DONE.
=------------------------------------------------------------------------------=
