
     Program PWSCF v.6.3MaX starts on  8Apr2024 at  0:13: 3 

     This program is part of the open-source Quantum ESPRESSO suite
     for quantum simulation of materials; please cite
         "P. Giannozzi et al., J. Phys.:Condens. Matter 21 395502 (2009);
         "P. Giannozzi et al., J. Phys.:Condens. Matter 29 465901 (2017);
          URL http://www.quantum-espresso.org", 
     in publications or presentations arising from this work. More details at
     http://www.quantum-espresso.org/quote

     Parallel version (MPI), running on     5 processors

     MPI processes distributed on     1 nodes
     R & G space division:  proc/nbgrp/npool/nimage =       5
     Waiting for input...
     Reading input from standard input

     Current dimensions of program PWSCF are:
     Max number of different atomic species (ntypx) = 10
     Max number of k-points (npk) =  40000
     Max angular momentum in pseudopotentials (lmaxx) =  3
               file K.pz-spn-kjpaw_psl.1.0.0.UPF: wavefunction(s)  3S renormalized

     Subspace diagonalization in iterative solution of the eigenvalue problem:
     a serial algorithm will be used


     Parallelization info
     --------------------
     sticks:   dense  smooth     PW     G-vecs:    dense   smooth      PW
     Min          66      66     23                  756      756     153
     Max          67      67     24                  757      757     154
     Sum         333     333    117                 3781     3781     767



     bravais-lattice index     =            3
     lattice parameter (alat)  =       9.8600  a.u.
     unit-cell volume          =     479.2926 (a.u.)^3
     number of atoms/cell      =            1
     number of atomic types    =            1
     number of electrons       =         9.00
     number of Kohn-Sham states=            9
     kinetic-energy cutoff     =      15.0000  Ry
     charge density cutoff     =      60.0000  Ry
     convergence threshold     =      1.0E-08
     mixing beta               =       0.7000
     number of iterations used =            8  plain     mixing
     Exchange-correlation      = SLA PZ NOGX NOGC ( 1  1  0  0 0 0)

     celldm(1)=   9.860000  celldm(2)=   0.000000  celldm(3)=   0.000000
     celldm(4)=   0.000000  celldm(5)=   0.000000  celldm(6)=   0.000000

     crystal axes: (cart. coord. in units of alat)
               a(1) = (   0.500000   0.500000   0.500000 )  
               a(2) = (  -0.500000   0.500000   0.500000 )  
               a(3) = (  -0.500000  -0.500000   0.500000 )  

     reciprocal axes: (cart. coord. in units 2 pi/alat)
               b(1) = (  1.000000  0.000000  1.000000 )  
               b(2) = ( -1.000000  1.000000  0.000000 )  
               b(3) = (  0.000000 -1.000000  1.000000 )  


     PseudoPot. # 1 for K  read from file:
     /home/lorenzo/pseudos/K/K.pz-spn-kjpaw_psl.1.0.0.UPF
     MD5 check sum: 59b94f4c1a6681f21e103574f2c5fc67
     Pseudo is Projector augmented-wave + core cor, Zval =  9.0
     Generated using "atomic" code by A. Dal Corso v.6.2.2
     Shape of augmentation charge: PSQ
     Using radial grid of 1165 points,  6 beta functions with: 
                l(1) =   0
                l(2) =   0
                l(3) =   1
                l(4) =   1
                l(5) =   2
                l(6) =   2
     Q(r) pseudized with 0 coefficients 


     atomic species   valence    mass     pseudopotential
        K              9.00    39.09830     K ( 1.00)

     48 Sym. Ops., with inversion, found



   Cartesian axes

     site n.     atom                  positions (alat units)
         1           K   tau(   1) = (   0.0000000   0.0000000   0.0000000  )

     number of k points=     3  gaussian smearing, width (Ry)=  0.0100
                       cart. coord. in units 2pi/alat
        k(    1) = (   0.0000000   0.0000000   0.0000000), wk =   0.2500000
        k(    2) = (   0.0000000   0.5000000  -0.5000000), wk =   1.5000000
        k(    3) = (   0.0000000   0.0000000  -1.0000000), wk =   0.2500000

     Dense  grid:     3781 G-vectors     FFT dimensions: (  24,  24,  24)

     Estimated max dynamical RAM per process >       3.89 MB

     Estimated total dynamical RAM >      19.44 MB

     Check: negative/imaginary core charge=   -0.000370    0.000000

     Initial potential from superposition of free atoms

     starting charge    8.98437, renormalised to    9.00000
     Starting wfcs are    8 randomized atomic wfcs +    1 random wfcs
     Checking if some PAW data can be deallocated... 

     total cpu time spent up to now is        0.9 secs

     Self-consistent Calculation

     iteration #  1     ecut=    15.00 Ry     beta= 0.70
     Davidson diagonalization with overlap
     ethr =  1.00E-02,  avg # of iterations =  8.7

     Threshold (ethr) on eigenvalues was too large:
     Diagonalizing with lowered threshold

     Davidson diagonalization with overlap
     ethr =  4.84E-04,  avg # of iterations =  1.0

     total cpu time spent up to now is        1.1 secs

     total energy              =    -109.42898905 Ry
     Harris-Foulkes estimate   =    -109.46734835 Ry
     estimated scf accuracy    <       0.04443032 Ry

     iteration #  2     ecut=    15.00 Ry     beta= 0.70
     Davidson diagonalization with overlap
     ethr =  4.94E-04,  avg # of iterations =  2.0

     total cpu time spent up to now is        1.2 secs

     total energy              =    -109.44001575 Ry
     Harris-Foulkes estimate   =    -109.44148445 Ry
     estimated scf accuracy    <       0.00311986 Ry

     iteration #  3     ecut=    15.00 Ry     beta= 0.70
     Davidson diagonalization with overlap
     ethr =  3.47E-05,  avg # of iterations =  3.7

     total cpu time spent up to now is        1.2 secs

     total energy              =    -109.44031668 Ry
     Harris-Foulkes estimate   =    -109.44036501 Ry
     estimated scf accuracy    <       0.00014301 Ry

     iteration #  4     ecut=    15.00 Ry     beta= 0.70
     Davidson diagonalization with overlap
     ethr =  1.59E-06,  avg # of iterations =  3.3

     total cpu time spent up to now is        1.3 secs

     total energy              =    -109.44031961 Ry
     Harris-Foulkes estimate   =    -109.44031972 Ry
     estimated scf accuracy    <       0.00000037 Ry

     iteration #  5     ecut=    15.00 Ry     beta= 0.70
     Davidson diagonalization with overlap
     ethr =  4.07E-09,  avg # of iterations =  2.3

     total cpu time spent up to now is        1.4 secs

     total energy              =    -109.44031974 Ry
     Harris-Foulkes estimate   =    -109.44031977 Ry
     estimated scf accuracy    <       0.00000004 Ry

     iteration #  6     ecut=    15.00 Ry     beta= 0.70
     Davidson diagonalization with overlap
     ethr =  4.06E-10,  avg # of iterations =  2.0

     total cpu time spent up to now is        1.5 secs

     End of self-consistent calculation

          k = 0.0000 0.0000 0.0000 (   459 PWs)   bands (ev):

   -31.0659 -13.4679 -13.4679 -13.4679  -0.4125   6.5274   6.5274   6.5274
     7.6857

          k = 0.0000 0.5000-0.5000 (   476 PWs)   bands (ev):

   -31.0623 -13.6572 -13.6563 -13.5248   2.2562   2.6579   5.2477   7.0565
     8.0058

          k = 0.0000 0.0000-1.0000 (   466 PWs)   bands (ev):

   -31.0588 -13.6030 -13.6030 -13.6030   3.7165   5.4383   5.4383   5.4383
     7.2022

     the Fermi energy is     2.2562 ev

!    total energy              =    -109.44031975 Ry
     Harris-Foulkes estimate   =    -109.44031975 Ry
     estimated scf accuracy    <          1.1E-10 Ry

     total all-electron energy =     -1200.765319 Ry

     The total energy is the sum of the following terms:

     one-electron contribution =     -34.81548714 Ry
     hartree contribution      =      18.45509457 Ry
     xc contribution           =     -10.92577813 Ry
     ewald contribution        =     -29.89633977 Ry
     one-center paw contrib.   =     -52.25357716 Ry
     smearing contrib. (-TS)   =      -0.00423212 Ry

     convergence has been achieved in   6 iterations

     Forces acting on atoms (cartesian axes, Ry/au):

     atom    1 type  1   force =     0.00000000    0.00000000    0.00000000

     Total force =     0.000000     Total SCF correction =     0.000000


     Computing stress (Cartesian axis) and pressure

          total   stress  (Ry/bohr**3)                   (kbar)     P= -332.51
  -0.00226038   0.00000000  -0.00000000       -332.51      0.00     -0.00
   0.00000000  -0.00226038   0.00000000          0.00   -332.51      0.00
  -0.00000000   0.00000000  -0.00226038         -0.00      0.00   -332.51


     Writing output data file K.save/

     init_run     :      0.17s CPU      0.18s WALL (       1 calls)
     electrons    :      0.55s CPU      0.57s WALL (       1 calls)
     forces       :      0.01s CPU      0.01s WALL (       1 calls)
     stress       :      0.04s CPU      0.04s WALL (       1 calls)

     Called by init_run:
     wfcinit      :      0.01s CPU      0.01s WALL (       1 calls)
     potinit      :      0.05s CPU      0.05s WALL (       1 calls)
     hinit0       :      0.10s CPU      0.10s WALL (       1 calls)

     Called by electrons:
     c_bands      :      0.18s CPU      0.18s WALL (       7 calls)
     sum_band     :      0.07s CPU      0.07s WALL (       7 calls)
     v_of_rho     :      0.00s CPU      0.00s WALL (       7 calls)
     newd         :      0.03s CPU      0.04s WALL (       7 calls)
     PAW_pot      :      0.32s CPU      0.32s WALL (       7 calls)
     mix_rho      :      0.00s CPU      0.00s WALL (       7 calls)

     Called by c_bands:
     init_us_2    :      0.00s CPU      0.01s WALL (      51 calls)
     cegterg      :      0.17s CPU      0.18s WALL (      21 calls)

     Called by sum_band:
     sum_band:bec :      0.00s CPU      0.00s WALL (      21 calls)
     addusdens    :      0.03s CPU      0.03s WALL (       7 calls)

     Called by *egterg:
     h_psi        :      0.14s CPU      0.14s WALL (      93 calls)
     s_psi        :      0.00s CPU      0.00s WALL (      93 calls)
     g_psi        :      0.00s CPU      0.00s WALL (      69 calls)
     cdiaghg      :      0.02s CPU      0.02s WALL (      87 calls)

     Called by h_psi:
     h_psi:pot    :      0.13s CPU      0.14s WALL (      93 calls)
     h_psi:calbec :      0.01s CPU      0.01s WALL (      93 calls)
     vloc_psi     :      0.12s CPU      0.13s WALL (      93 calls)
     add_vuspsi   :      0.00s CPU      0.00s WALL (      93 calls)

     General routines
     calbec       :      0.01s CPU      0.01s WALL (     129 calls)
     fft          :      0.01s CPU      0.01s WALL (      38 calls)
     ffts         :      0.00s CPU      0.00s WALL (       7 calls)
     fftw         :      0.13s CPU      0.14s WALL (    1257 calls)

     Parallel routines
     fft_scatt_xy :      0.01s CPU      0.01s WALL (    1302 calls)
     fft_scatt_yz :      0.06s CPU      0.06s WALL (    1302 calls)

     PWSCF        :     1.54s CPU         1.61s WALL


   This run was terminated on:   0:13: 4   8Apr2024            

=------------------------------------------------------------------------------=
   JOB DONE.
=------------------------------------------------------------------------------=
