
     Program PWSCF v.6.3MaX starts on  7Apr2024 at 23:59:36 

     This program is part of the open-source Quantum ESPRESSO suite
     for quantum simulation of materials; please cite
         "P. Giannozzi et al., J. Phys.:Condens. Matter 21 395502 (2009);
         "P. Giannozzi et al., J. Phys.:Condens. Matter 29 465901 (2017);
          URL http://www.quantum-espresso.org", 
     in publications or presentations arising from this work. More details at
     http://www.quantum-espresso.org/quote

     Parallel version (MPI), running on     5 processors

     MPI processes distributed on     1 nodes
     R & G space division:  proc/nbgrp/npool/nimage =       5
     Waiting for input...
     Reading input from standard input

     Current dimensions of program PWSCF are:
     Max number of different atomic species (ntypx) = 10
     Max number of k-points (npk) =  40000
     Max angular momentum in pseudopotentials (lmaxx) =  3
               file K.pbe-spn-rrkjus_psl.1.0.0.UPF: wavefunction(s)  3S renormalized

     Subspace diagonalization in iterative solution of the eigenvalue problem:
     a serial algorithm will be used


     Parallelization info
     --------------------
     sticks:   dense  smooth     PW     G-vecs:    dense   smooth      PW
     Min         438     438    124                12915    12915    1972
     Max         439     439    126                12916    12916    1973
     Sum        2191    2191    623                64579    64579    9861



     bravais-lattice index     =            3
     lattice parameter (alat)  =       9.8600  a.u.
     unit-cell volume          =     479.2926 (a.u.)^3
     number of atoms/cell      =            1
     number of atomic types    =            1
     number of electrons       =         9.00
     number of Kohn-Sham states=            9
     kinetic-energy cutoff     =     100.0000  Ry
     charge density cutoff     =     400.0000  Ry
     convergence threshold     =      1.0E-08
     mixing beta               =       0.7000
     number of iterations used =            8  plain     mixing
     Exchange-correlation      = PBE ( 1  4  3  4 0 0)

     celldm(1)=   9.860000  celldm(2)=   0.000000  celldm(3)=   0.000000
     celldm(4)=   0.000000  celldm(5)=   0.000000  celldm(6)=   0.000000

     crystal axes: (cart. coord. in units of alat)
               a(1) = (   0.500000   0.500000   0.500000 )  
               a(2) = (  -0.500000   0.500000   0.500000 )  
               a(3) = (  -0.500000  -0.500000   0.500000 )  

     reciprocal axes: (cart. coord. in units 2 pi/alat)
               b(1) = (  1.000000  0.000000  1.000000 )  
               b(2) = ( -1.000000  1.000000  0.000000 )  
               b(3) = (  0.000000 -1.000000  1.000000 )  


     PseudoPot. # 1 for K  read from file:
     /home/lorenzo/pseudos/K/K.pbe-spn-rrkjus_psl.1.0.0.UPF
     MD5 check sum: 897b700350bb708b0563e904352feb48
     Pseudo is Ultrasoft + core correction, Zval =  9.0
     Generated using "atomic" code by A. Dal Corso v.6.2.2
     Using radial grid of 1165 points,  6 beta functions with: 
                l(1) =   0
                l(2) =   0
                l(3) =   1
                l(4) =   1
                l(5) =   2
                l(6) =   2
     Q(r) pseudized with 0 coefficients 


     atomic species   valence    mass     pseudopotential
        K              9.00    39.09830     K ( 1.00)

     48 Sym. Ops., with inversion, found



   Cartesian axes

     site n.     atom                  positions (alat units)
         1           K   tau(   1) = (   0.0000000   0.0000000   0.0000000  )

     number of k points=    47  gaussian smearing, width (Ry)=  0.0100
                       cart. coord. in units 2pi/alat
        k(    1) = (   0.0000000   0.0000000   0.0000000), wk =   0.0020000
        k(    2) = (   0.0000000  -0.1000000   0.1000000), wk =   0.0240000
        k(    3) = (   0.0000000  -0.2000000   0.2000000), wk =   0.0240000
        k(    4) = (   0.0000000  -0.3000000   0.3000000), wk =   0.0240000
        k(    5) = (   0.0000000  -0.4000000   0.4000000), wk =   0.0240000
        k(    6) = (   0.0000000   0.5000000  -0.5000000), wk =   0.0120000
        k(    7) = (  -0.1000000  -0.1000000   0.2000000), wk =   0.0480000
        k(    8) = (  -0.1000000  -0.2000000   0.3000000), wk =   0.0960000
        k(    9) = (  -0.1000000  -0.3000000   0.4000000), wk =   0.0960000
        k(   10) = (  -0.1000000   0.6000000  -0.5000000), wk =   0.0960000
        k(   11) = (  -0.2000000  -0.2000000   0.4000000), wk =   0.0480000
        k(   12) = (  -0.2000000   0.7000000  -0.5000000), wk =   0.0960000
        k(   13) = (  -0.2000000   0.6000000  -0.4000000), wk =   0.0480000
        k(   14) = (  -0.3000000   0.7000000  -0.4000000), wk =   0.0480000
        k(   15) = (   0.0000000   0.0000000   0.2000000), wk =   0.0120000
        k(   16) = (   0.0000000  -0.1000000   0.3000000), wk =   0.0480000
        k(   17) = (   0.0000000  -0.2000000   0.4000000), wk =   0.0480000
        k(   18) = (   0.0000000  -0.3000000   0.5000000), wk =   0.0480000
        k(   19) = (   0.0000000   0.6000000  -0.4000000), wk =   0.0240000
        k(   20) = (  -0.1000000  -0.1000000   0.4000000), wk =   0.0480000
        k(   21) = (  -0.1000000  -0.2000000   0.5000000), wk =   0.0960000
        k(   22) = (  -0.1000000   0.7000000  -0.4000000), wk =   0.0960000
        k(   23) = (  -0.2000000   0.2000000   0.2000000), wk =   0.0160000
        k(   24) = (  -0.2000000   0.8000000  -0.4000000), wk =   0.0480000
        k(   25) = (  -0.2000000   0.7000000  -0.3000000), wk =   0.0480000
        k(   26) = (  -0.3000000   0.3000000   0.2000000), wk =   0.0480000
        k(   27) = (   0.6000000  -0.6000000   0.2000000), wk =   0.0480000
        k(   28) = (   0.6000000  -0.7000000   0.3000000), wk =   0.0480000
        k(   29) = (   0.5000000  -0.5000000   0.2000000), wk =   0.0240000
        k(   30) = (   0.5000000  -0.6000000   0.3000000), wk =   0.0960000
        k(   31) = (   0.4000000  -0.6000000   0.4000000), wk =   0.0160000
        k(   32) = (   0.0000000   0.0000000   0.4000000), wk =   0.0120000
        k(   33) = (   0.0000000  -0.1000000   0.5000000), wk =   0.0480000
        k(   34) = (   0.0000000  -0.2000000   0.6000000), wk =   0.0480000
        k(   35) = (   0.0000000   0.7000000  -0.3000000), wk =   0.0240000
        k(   36) = (  -0.1000000  -0.1000000   0.6000000), wk =   0.0480000
        k(   37) = (  -0.1000000   0.8000000  -0.3000000), wk =   0.0960000
        k(   38) = (  -0.2000000   0.8000000  -0.2000000), wk =   0.0160000
        k(   39) = (   0.6000000  -0.6000000   0.4000000), wk =   0.0160000
        k(   40) = (   0.5000000  -0.5000000   0.4000000), wk =   0.0240000
        k(   41) = (   0.0000000   0.0000000   0.6000000), wk =   0.0120000
        k(   42) = (   0.0000000  -0.1000000   0.7000000), wk =   0.0480000
        k(   43) = (   0.0000000   0.8000000  -0.2000000), wk =   0.0240000
        k(   44) = (  -0.1000000   0.9000000  -0.2000000), wk =   0.0480000
        k(   45) = (   0.0000000   0.0000000   0.8000000), wk =   0.0120000
        k(   46) = (   0.0000000   0.9000000  -0.1000000), wk =   0.0240000
        k(   47) = (   0.0000000   0.0000000  -1.0000000), wk =   0.0020000

     Dense  grid:    64579 G-vectors     FFT dimensions: (  60,  60,  60)

     Estimated max dynamical RAM per process >      61.58 MB

     Estimated total dynamical RAM >     307.89 MB

     Check: negative/imaginary core charge=   -0.000001    0.000000

     Initial potential from superposition of free atoms

     starting charge    8.98117, renormalised to    9.00000
     Starting wfcs are    8 randomized atomic wfcs +    1 random wfcs

     total cpu time spent up to now is        2.5 secs

     Self-consistent Calculation

     iteration #  1     ecut=   100.00 Ry     beta= 0.70
     Davidson diagonalization with overlap
     ethr =  1.00E-02,  avg # of iterations =  6.8

     Threshold (ethr) on eigenvalues was too large:
     Diagonalizing with lowered threshold

     Davidson diagonalization with overlap
     ethr =  1.43E-05,  avg # of iterations =  6.9

     total cpu time spent up to now is       13.4 secs

     total energy              =     -58.77378779 Ry
     Harris-Foulkes estimate   =     -58.77431848 Ry
     estimated scf accuracy    <       0.00127523 Ry

     iteration #  2     ecut=   100.00 Ry     beta= 0.70
     Davidson diagonalization with overlap
     ethr =  1.42E-05,  avg # of iterations =  2.1

     total cpu time spent up to now is       16.9 secs

     total energy              =     -58.77402264 Ry
     Harris-Foulkes estimate   =     -58.77402528 Ry
     estimated scf accuracy    <       0.00010199 Ry

     iteration #  3     ecut=   100.00 Ry     beta= 0.70
     Davidson diagonalization with overlap
     ethr =  1.13E-06,  avg # of iterations =  1.9

     total cpu time spent up to now is       20.2 secs

     total energy              =     -58.77403266 Ry
     Harris-Foulkes estimate   =     -58.77403004 Ry
     estimated scf accuracy    <       0.00000689 Ry

     iteration #  4     ecut=   100.00 Ry     beta= 0.70
     Davidson diagonalization with overlap
     ethr =  7.65E-08,  avg # of iterations =  1.7

     total cpu time spent up to now is       23.4 secs

     total energy              =     -58.77403325 Ry
     Harris-Foulkes estimate   =     -58.77403325 Ry
     estimated scf accuracy    <       0.00000005 Ry

     iteration #  5     ecut=   100.00 Ry     beta= 0.70
     Davidson diagonalization with overlap
     ethr =  5.56E-10,  avg # of iterations =  2.5

     total cpu time spent up to now is       26.8 secs

     End of self-consistent calculation

          k = 0.0000 0.0000 0.0000 (  8151 PWs)   bands (ev):

   -30.1657 -13.6140 -13.6140 -13.6140  -0.2616   6.2634   6.2634   6.2634
     7.1816

          k = 0.0000-0.1000 0.1000 (  8112 PWs)   bands (ev):

   -30.1652 -13.6214 -13.6164 -13.6139  -0.1339   6.0659   6.1036   6.3656
     6.9875

          k = 0.0000-0.2000 0.2000 (  8116 PWs)   bands (ev):

   -30.1640 -13.6407 -13.6228 -13.6139   0.2407   5.3540   5.7604   6.6676
     6.9563

          k = 0.0000-0.3000 0.3000 (  8108 PWs)   bands (ev):

   -30.1625 -13.6643 -13.6308 -13.6139   0.8365   4.4358   5.4258   7.0371
     7.1562

          k = 0.0000-0.4000 0.4000 (  8074 PWs)   bands (ev):

   -30.1613 -13.6832 -13.6371 -13.6139   1.6096   3.4833   5.1992   6.9627
     7.4148

          k = 0.0000 0.5000-0.5000 (  8050 PWs)   bands (ev):

   -30.1608 -13.6903 -13.6396 -13.6139   2.3890   2.6485   5.1202   6.8713
     7.9900

          k =-0.1000-0.1000 0.2000 (  8111 PWs)   bands (ev):

   -30.1644 -13.6347 -13.6191 -13.6157   0.1174   5.6604   5.7872   6.5548
     6.8157

          k =-0.1000-0.2000 0.3000 (  8113 PWs)   bands (ev):

   -30.1630 -13.6549 -13.6268 -13.6165   0.6032   4.8942   5.4035   6.8223
     6.9032

          k =-0.1000-0.3000 0.4000 (  8110 PWs)   bands (ev):

   -30.1616 -13.6744 -13.6354 -13.6166   1.2900   3.9970   5.1192   6.8356
     7.3261

          k =-0.1000 0.6000-0.5000 (  8093 PWs)   bands (ev):

   -30.1608 -13.6863 -13.6409 -13.6167   2.1223   3.0686   4.9686   6.7068
     7.6022

          k =-0.2000-0.2000 0.4000 (  8116 PWs)   bands (ev):

   -30.1618 -13.6690 -13.6347 -13.6198   1.1817   4.3786   4.8736   6.8807
     7.0111

          k =-0.2000 0.7000-0.5000 (  8088 PWs)   bands (ev):

   -30.1608 -13.6781 -13.6448 -13.6211   1.9348   3.6622   4.5221   6.7228
     7.1694

          k =-0.2000 0.6000-0.4000 (  8079 PWs)   bands (ev):

   -30.1604 -13.6809 -13.6495 -13.6214   2.7669   2.8271   4.4139   6.5723
     7.4659

          k =-0.3000 0.7000-0.4000 (  8086 PWs)   bands (ev):

   -30.1603 -13.6733 -13.6583 -13.6232   2.7107   3.3907   3.8253   6.6167
     7.2122

          k = 0.0000 0.0000 0.2000 (  8079 PWs)   bands (ev):

   -30.1647 -13.6234 -13.6189 -13.6189  -0.0074   6.0189   6.0189   6.4125
     6.4723

          k = 0.0000-0.1000 0.3000 (  8103 PWs)   bands (ev):

   -30.1636 -13.6406 -13.6254 -13.6200   0.3633   5.3922   5.7407   6.2893
     6.6820

          k = 0.0000-0.2000 0.4000 (  8118 PWs)   bands (ev):

   -30.1621 -13.6632 -13.6334 -13.6197   0.9529   4.4855   5.4406   6.3453
     7.1560

          k = 0.0000-0.3000 0.5000 (  8095 PWs)   bands (ev):

   -30.1609 -13.6814 -13.6399 -13.6193   1.7188   3.5535   5.2316   6.3092
     7.4935

          k = 0.0000 0.6000-0.4000 (  8102 PWs)   bands (ev):

   -30.1604 -13.6883 -13.6424 -13.6192   2.5184   2.7039   5.1580   6.2427
     7.5490

          k =-0.1000-0.1000 0.4000 (  8107 PWs)   bands (ev):

   -30.1623 -13.6557 -13.6329 -13.6239   0.8387   4.8518   5.3777   6.1969
     6.9741

          k =-0.1000-0.2000 0.5000 (  8097 PWs)   bands (ev):

   -30.1610 -13.6723 -13.6419 -13.6245   1.5106   4.0883   5.0307   6.2693
     7.1828

          k =-0.1000 0.7000-0.4000 (  8096 PWs)   bands (ev):

   -30.1602 -13.6827 -13.6478 -13.6244   2.3274   3.2195   4.8426   6.1987
     7.3024

          k =-0.2000 0.2000 0.2000 (  8112 PWs)   bands (ev):

   -30.1634 -13.6520 -13.6196 -13.6196   0.4841   5.2169   5.2169   6.7910
     7.1848

          k =-0.2000 0.8000-0.4000 (  8071 PWs)   bands (ev):

   -30.1600 -13.6765 -13.6540 -13.6264   2.2345   3.7017   4.3534   6.5426
     6.9064

          k =-0.2000 0.7000-0.3000 (  8076 PWs)   bands (ev):

   -30.1597 -13.6760 -13.6610 -13.6267   2.9987   3.0918   4.0622   6.6004
     7.1000

          k =-0.3000 0.3000 0.2000 (  8105 PWs)   bands (ev):

   -30.1621 -13.6682 -13.6293 -13.6202   1.0692   4.4578   4.8772   6.9109
     7.2878

          k = 0.6000-0.6000 0.2000 (  8104 PWs)   bands (ev):

   -30.1611 -13.6791 -13.6393 -13.6207   1.8304   3.6088   4.6682   6.6696
     7.5157

          k = 0.6000-0.7000 0.3000 (  8085 PWs)   bands (ev):

   -30.1612 -13.6748 -13.6369 -13.6255   1.7305   4.0408   4.3546   6.4953
     7.4152

          k = 0.5000-0.5000 0.2000 (  8086 PWs)   bands (ev):

   -30.1607 -13.6827 -13.6436 -13.6209   2.6442   2.7697   4.5978   6.5016
     7.6572

          k = 0.5000-0.6000 0.3000 (  8077 PWs)   bands (ev):

   -30.1607 -13.6742 -13.6478 -13.6273   2.5295   3.3607   4.1196   6.0874
     7.5506

          k = 0.4000-0.6000 0.4000 (  8097 PWs)   bands (ev):

   -30.1605 -13.6617 -13.6617 -13.6297   3.2039   3.2039   3.5799   5.8401
     7.6432

          k = 0.0000 0.0000 0.4000 (  8108 PWs)   bands (ev):

   -30.1624 -13.6440 -13.6322 -13.6322   0.7223   5.3262   5.6346   5.6346
     6.8359

          k = 0.0000-0.1000 0.5000 (  8101 PWs)   bands (ev):

   -30.1610 -13.6608 -13.6405 -13.6343   1.2922   4.5697   5.4583   5.6726
     7.1675

          k = 0.0000-0.2000 0.6000 (  8073 PWs)   bands (ev):

   -30.1599 -13.6768 -13.6472 -13.6335   2.0302   3.7397   5.3116   5.5815
     6.9962

          k = 0.0000 0.7000-0.3000 (  8098 PWs)   bands (ev):

   -30.1595 -13.6830 -13.6498 -13.6331   2.8687   2.8781   5.2568   5.4762
     7.0899

          k =-0.1000-0.1000 0.6000 (  8083 PWs)   bands (ev):

   -30.1598 -13.6702 -13.6505 -13.6379   1.9286   4.1083   5.0071   5.8338
     6.6957

          k =-0.1000 0.8000-0.3000 (  8081 PWs)   bands (ev):

   -30.1591 -13.6770 -13.6578 -13.6378   2.6872   3.4795   4.6295   5.9288
     6.7174

          k =-0.2000 0.8000-0.2000 (  8058 PWs)   bands (ev):

   -30.1588 -13.6701 -13.6701 -13.6382   3.2759   3.2759   4.0858   6.4236
     6.4236

          k = 0.6000-0.6000 0.4000 (  8109 PWs)   bands (ev):

   -30.1608 -13.6708 -13.6387 -13.6387   2.4376   3.8411   3.8411   5.7293
     7.6986

          k = 0.5000-0.5000 0.4000 (  8120 PWs)   bands (ev):

   -30.1606 -13.6631 -13.6501 -13.6394   3.1422   3.2575   3.7753   5.3794
     7.7309

          k = 0.0000 0.0000 0.6000 (  8112 PWs)   bands (ev):

   -30.1598 -13.6609 -13.6492 -13.6492   1.8241   4.3875   5.4396   5.4396
     6.4312

          k = 0.0000-0.1000 0.7000 (  8077 PWs)   bands (ev):

   -30.1587 -13.6711 -13.6562 -13.6508   2.4955   3.8957   5.2477   5.3984
     6.2448

          k = 0.0000 0.8000-0.2000 (  8084 PWs)   bands (ev):

   -30.1583 -13.6763 -13.6588 -13.6501   3.1309   3.3369   5.0404   5.3781
     6.4278

          k =-0.1000 0.9000-0.2000 (  8095 PWs)   bands (ev):

   -30.1580 -13.6722 -13.6652 -13.6527   3.1129   3.6092   4.7440   5.7668
     6.0904

          k = 0.0000 0.0000 0.8000 (  8100 PWs)   bands (ev):

   -30.1577 -13.6678 -13.6634 -13.6634   3.0311   3.7987   5.4561   5.4562
     5.5696

          k = 0.0000 0.9000-0.1000 (  8080 PWs)   bands (ev):

   -30.1574 -13.6710 -13.6661 -13.6638   3.4356   3.5806   5.1901   5.4748
     5.7972

          k = 0.0000 0.0000-1.0000 (  8128 PWs)   bands (ev):

   -30.1570 -13.6689 -13.6689 -13.6689   3.5994   5.5110   5.5110   5.5110
     7.6774

     the Fermi energy is     1.9433 ev

!    total energy              =     -58.77403327 Ry
     Harris-Foulkes estimate   =     -58.77403327 Ry
     estimated scf accuracy    <          1.6E-09 Ry

     The total energy is the sum of the following terms:

     one-electron contribution =     -36.58764493 Ry
     hartree contribution      =      18.88051393 Ry
     xc contribution           =     -11.16991499 Ry
     ewald contribution        =     -29.89633970 Ry
     smearing contrib. (-TS)   =      -0.00064758 Ry

     convergence has been achieved in   5 iterations

     Forces acting on atoms (cartesian axes, Ry/au):

     atom    1 type  1   force =     0.00000000    0.00000000    0.00000000

     Total force =     0.000000     Total SCF correction =     0.000000


     Computing stress (Cartesian axis) and pressure

          total   stress  (Ry/bohr**3)                   (kbar)     P=    1.55
   0.00001057  -0.00000000   0.00000000          1.55     -0.00      0.00
  -0.00000000   0.00001057  -0.00000000         -0.00      1.55     -0.00
   0.00000000  -0.00000000   0.00001057          0.00     -0.00      1.55


     Writing output data file K.save/

     init_run     :      1.67s CPU      1.72s WALL (       1 calls)
     electrons    :     23.46s CPU     24.31s WALL (       1 calls)
     forces       :      0.34s CPU      0.36s WALL (       1 calls)
     stress       :      1.29s CPU      1.33s WALL (       1 calls)

     Called by init_run:
     wfcinit      :      1.15s CPU      1.20s WALL (       1 calls)
     potinit      :      0.07s CPU      0.07s WALL (       1 calls)
     hinit0       :      0.25s CPU      0.25s WALL (       1 calls)

     Called by electrons:
     c_bands      :     19.36s CPU     19.98s WALL (       6 calls)
     sum_band     :      3.56s CPU      3.72s WALL (       6 calls)
     v_of_rho     :      0.28s CPU      0.28s WALL (       6 calls)
     newd         :      0.36s CPU      0.41s WALL (       6 calls)
     mix_rho      :      0.02s CPU      0.02s WALL (       6 calls)

     Called by c_bands:
     init_us_2    :      0.66s CPU      0.68s WALL (     705 calls)
     cegterg      :     18.59s CPU     19.21s WALL (     282 calls)

     Called by sum_band:
     sum_band:bec :      0.00s CPU      0.00s WALL (     282 calls)
     addusdens    :      0.34s CPU      0.40s WALL (       6 calls)

     Called by *egterg:
     h_psi        :     16.16s CPU     16.78s WALL (    1359 calls)
     s_psi        :      0.44s CPU      0.45s WALL (    1359 calls)
     g_psi        :      0.05s CPU      0.05s WALL (    1030 calls)
     cdiaghg      :      0.33s CPU      0.33s WALL (    1265 calls)

     Called by h_psi:
     h_psi:pot    :     16.08s CPU     16.71s WALL (    1359 calls)
     h_psi:calbec :      0.82s CPU      0.85s WALL (    1359 calls)
     vloc_psi     :     14.74s CPU     15.33s WALL (    1359 calls)
     add_vuspsi   :      0.50s CPU      0.51s WALL (    1359 calls)

     General routines
     calbec       :      1.27s CPU      1.30s WALL (    1876 calls)
     fft          :      0.17s CPU      0.17s WALL (      93 calls)
     ffts         :      0.01s CPU      0.01s WALL (       6 calls)
     fftw         :     15.55s CPU     16.17s WALL (   17410 calls)

     Parallel routines
     fft_scatt_xy :      1.32s CPU      1.39s WALL (   17509 calls)
     fft_scatt_yz :      3.44s CPU      3.59s WALL (   17509 calls)

     PWSCF        :    27.56s CPU        28.71s WALL


   This run was terminated on:   0: 0: 5   8Apr2024            

=------------------------------------------------------------------------------=
   JOB DONE.
=------------------------------------------------------------------------------=
