
     Program PWSCF v.6.3MaX starts on  8Apr2024 at  1: 9:40 

     This program is part of the open-source Quantum ESPRESSO suite
     for quantum simulation of materials; please cite
         "P. Giannozzi et al., J. Phys.:Condens. Matter 21 395502 (2009);
         "P. Giannozzi et al., J. Phys.:Condens. Matter 29 465901 (2017);
          URL http://www.quantum-espresso.org", 
     in publications or presentations arising from this work. More details at
     http://www.quantum-espresso.org/quote

     Parallel version (MPI), running on     5 processors

     MPI processes distributed on     1 nodes
     R & G space division:  proc/nbgrp/npool/nimage =       5
     Waiting for input...
     Reading input from standard input

     Current dimensions of program PWSCF are:
     Max number of different atomic species (ntypx) = 10
     Max number of k-points (npk) =  40000
     Max angular momentum in pseudopotentials (lmaxx) =  3
               file K.pbe-spn-rrkjus_psl.1.0.0.UPF: wavefunction(s)  3S renormalized

     Subspace diagonalization in iterative solution of the eigenvalue problem:
     a serial algorithm will be used


     Parallelization info
     --------------------
     sticks:   dense  smooth     PW     G-vecs:    dense   smooth      PW
     Min         351     351     87                 9272     9272    1155
     Max         351     351     88                 9273     9273    1155
     Sum        1755    1755    437                46361    46361    5775



     bravais-lattice index     =            3
     lattice parameter (alat)  =       9.8600  a.u.
     unit-cell volume          =     479.2926 (a.u.)^3
     number of atoms/cell      =            1
     number of atomic types    =            1
     number of electrons       =         9.00
     number of Kohn-Sham states=            9
     kinetic-energy cutoff     =      80.0000  Ry
     charge density cutoff     =     320.0000  Ry
     convergence threshold     =      1.0E-08
     mixing beta               =       0.7000
     number of iterations used =            8  plain     mixing
     Exchange-correlation      = PBE ( 1  4  3  4 0 0)

     celldm(1)=   9.860000  celldm(2)=   0.000000  celldm(3)=   0.000000
     celldm(4)=   0.000000  celldm(5)=   0.000000  celldm(6)=   0.000000

     crystal axes: (cart. coord. in units of alat)
               a(1) = (   0.500000   0.500000   0.500000 )  
               a(2) = (  -0.500000   0.500000   0.500000 )  
               a(3) = (  -0.500000  -0.500000   0.500000 )  

     reciprocal axes: (cart. coord. in units 2 pi/alat)
               b(1) = (  1.000000  0.000000  1.000000 )  
               b(2) = ( -1.000000  1.000000  0.000000 )  
               b(3) = (  0.000000 -1.000000  1.000000 )  


     PseudoPot. # 1 for K  read from file:
     /home/lorenzo/pseudos/K/K.pbe-spn-rrkjus_psl.1.0.0.UPF
     MD5 check sum: 897b700350bb708b0563e904352feb48
     Pseudo is Ultrasoft + core correction, Zval =  9.0
     Generated using "atomic" code by A. Dal Corso v.6.2.2
     Using radial grid of 1165 points,  6 beta functions with: 
                l(1) =   0
                l(2) =   0
                l(3) =   1
                l(4) =   1
                l(5) =   2
                l(6) =   2
     Q(r) pseudized with 0 coefficients 


     atomic species   valence    mass     pseudopotential
        K              9.00    39.09830     K ( 1.00)

     48 Sym. Ops., with inversion, found



   Cartesian axes

     site n.     atom                  positions (alat units)
         1           K   tau(   1) = (   0.0000000   0.0000000   0.0000000  )

     number of k points=     1  gaussian smearing, width (Ry)=  0.0100
                       cart. coord. in units 2pi/alat
        k(    1) = (   0.0000000   0.0000000   0.0000000), wk =   2.0000000

     Dense  grid:    46361 G-vectors     FFT dimensions: (  50,  50,  50)

     Estimated max dynamical RAM per process >      36.74 MB

     Estimated total dynamical RAM >     183.71 MB

     Initial potential from superposition of free atoms

     starting charge    8.98117, renormalised to    9.00000
     Starting wfcs are    8 randomized atomic wfcs +    1 random wfcs

     total cpu time spent up to now is        1.2 secs

     Self-consistent Calculation

     iteration #  1     ecut=    80.00 Ry     beta= 0.70
     Davidson diagonalization with overlap
     ethr =  1.00E-02,  avg # of iterations = 13.0

     Threshold (ethr) on eigenvalues was too large:
     Diagonalizing with lowered threshold

     Davidson diagonalization with overlap
     ethr =  6.48E-06,  avg # of iterations =  7.0

     total cpu time spent up to now is        1.5 secs

     total energy              =     -58.86664023 Ry
     Harris-Foulkes estimate   =     -58.86674120 Ry
     estimated scf accuracy    <       0.00059489 Ry

     iteration #  2     ecut=    80.00 Ry     beta= 0.70
     Davidson diagonalization with overlap
     ethr =  6.61E-06,  avg # of iterations =  2.0

     total cpu time spent up to now is        1.7 secs

     total energy              =     -58.86672963 Ry
     Harris-Foulkes estimate   =     -58.86671802 Ry
     estimated scf accuracy    <       0.00005220 Ry

     iteration #  3     ecut=    80.00 Ry     beta= 0.70
     Davidson diagonalization with overlap
     ethr =  5.80E-07,  avg # of iterations =  2.0

     total cpu time spent up to now is        1.8 secs

     total energy              =     -58.86673384 Ry
     Harris-Foulkes estimate   =     -58.86673212 Ry
     estimated scf accuracy    <       0.00000305 Ry

     iteration #  4     ecut=    80.00 Ry     beta= 0.70
     Davidson diagonalization with overlap
     ethr =  3.39E-08,  avg # of iterations =  2.0

     total cpu time spent up to now is        2.0 secs

     total energy              =     -58.86673401 Ry
     Harris-Foulkes estimate   =     -58.86673402 Ry
     estimated scf accuracy    <       0.00000003 Ry

     iteration #  5     ecut=    80.00 Ry     beta= 0.70
     Davidson diagonalization with overlap
     ethr =  3.86E-10,  avg # of iterations =  2.0

     total cpu time spent up to now is        2.2 secs

     End of self-consistent calculation

          k = 0.0000 0.0000 0.0000 (  5775 PWs)   bands (ev):

   -30.0511 -13.5103 -13.5103 -13.5103  -0.2469   6.3102   6.3102   7.2232
     7.2234

     the Fermi energy is    -0.2469 ev

!    total energy              =     -58.86673401 Ry
     Harris-Foulkes estimate   =     -58.86673402 Ry
     estimated scf accuracy    <          3.4E-09 Ry

     The total energy is the sum of the following terms:

     one-electron contribution =     -36.73032919 Ry
     hartree contribution      =      18.94754669 Ry
     xc contribution           =     -11.18196992 Ry
     ewald contribution        =     -29.89633970 Ry
     smearing contrib. (-TS)   =      -0.00564190 Ry

     convergence has been achieved in   5 iterations

     Forces acting on atoms (cartesian axes, Ry/au):

     atom    1 type  1   force =     0.00000000    0.00000000    0.00000000

     Total force =     0.000000     Total SCF correction =     0.000000


     Computing stress (Cartesian axis) and pressure

          total   stress  (Ry/bohr**3)                   (kbar)     P=   -6.11
  -0.00004153  -0.00000000   0.00000000         -6.11     -0.00      0.00
  -0.00000000  -0.00004153  -0.00000000         -0.00     -6.11     -0.00
   0.00000000  -0.00000000  -0.00004153          0.00     -0.00     -6.11


     Writing output data file K.save/

     init_run     :      0.36s CPU      0.38s WALL (       1 calls)
     electrons    :      1.01s CPU      1.04s WALL (       1 calls)
     forces       :      0.15s CPU      0.15s WALL (       1 calls)
     stress       :      0.38s CPU      0.39s WALL (       1 calls)

     Called by init_run:
     wfcinit      :      0.01s CPU      0.01s WALL (       1 calls)
     potinit      :      0.03s CPU      0.04s WALL (       1 calls)
     hinit0       :      0.21s CPU      0.21s WALL (       1 calls)

     Called by electrons:
     c_bands      :      0.29s CPU      0.30s WALL (       6 calls)
     sum_band     :      0.34s CPU      0.35s WALL (       6 calls)
     v_of_rho     :      0.17s CPU      0.18s WALL (       6 calls)
     newd         :      0.26s CPU      0.27s WALL (       6 calls)
     mix_rho      :      0.01s CPU      0.01s WALL (       6 calls)

     Called by c_bands:
     init_us_2    :      0.01s CPU      0.01s WALL (      13 calls)
     cegterg      :      0.27s CPU      0.28s WALL (       6 calls)

     Called by sum_band:
     sum_band:bec :      0.00s CPU      0.00s WALL (       6 calls)
     addusdens    :      0.26s CPU      0.26s WALL (       6 calls)

     Called by *egterg:
     h_psi        :      0.22s CPU      0.23s WALL (      35 calls)
     s_psi        :      0.01s CPU      0.01s WALL (      35 calls)
     g_psi        :      0.00s CPU      0.00s WALL (      28 calls)
     cdiaghg      :      0.01s CPU      0.01s WALL (      33 calls)

     Called by h_psi:
     h_psi:pot    :      0.22s CPU      0.23s WALL (      35 calls)
     h_psi:calbec :      0.02s CPU      0.02s WALL (      35 calls)
     vloc_psi     :      0.20s CPU      0.21s WALL (      35 calls)
     add_vuspsi   :      0.01s CPU      0.01s WALL (      35 calls)

     General routines
     calbec       :      0.02s CPU      0.02s WALL (      46 calls)
     fft          :      0.12s CPU      0.13s WALL (      93 calls)
     ffts         :      0.01s CPU      0.01s WALL (       6 calls)
     fftw         :      0.21s CPU      0.22s WALL (     392 calls)

     Parallel routines
     fft_scatt_xy :      0.02s CPU      0.03s WALL (     491 calls)
     fft_scatt_yz :      0.09s CPU      0.09s WALL (     491 calls)

     PWSCF        :     2.70s CPU         2.79s WALL


   This run was terminated on:   1: 9:43   8Apr2024            

=------------------------------------------------------------------------------=
   JOB DONE.
=------------------------------------------------------------------------------=
