
     Program PWSCF v.6.3MaX starts on  8Apr2024 at  0: 8:54 

     This program is part of the open-source Quantum ESPRESSO suite
     for quantum simulation of materials; please cite
         "P. Giannozzi et al., J. Phys.:Condens. Matter 21 395502 (2009);
         "P. Giannozzi et al., J. Phys.:Condens. Matter 29 465901 (2017);
          URL http://www.quantum-espresso.org", 
     in publications or presentations arising from this work. More details at
     http://www.quantum-espresso.org/quote

     Parallel version (MPI), running on     5 processors

     MPI processes distributed on     1 nodes
     R & G space division:  proc/nbgrp/npool/nimage =       5
     Waiting for input...
     Reading input from standard input

     Current dimensions of program PWSCF are:
     Max number of different atomic species (ntypx) = 10
     Max number of k-points (npk) =  40000
     Max angular momentum in pseudopotentials (lmaxx) =  3
               file K.pbe-spn-kjpaw_psl.1.0.0.UPF: wavefunction(s)  3S renormalized

     Subspace diagonalization in iterative solution of the eigenvalue problem:
     a serial algorithm will be used


     Parallelization info
     --------------------
     sticks:   dense  smooth     PW     G-vecs:    dense   smooth      PW
     Min         438     438    123                12915    12915    1937
     Max         439     439    124                12916    12916    1939
     Sum        2191    2191    619                64579    64579    9693



     bravais-lattice index     =            3
     lattice parameter (alat)  =       9.8600  a.u.
     unit-cell volume          =     479.2926 (a.u.)^3
     number of atoms/cell      =            1
     number of atomic types    =            1
     number of electrons       =         9.00
     number of Kohn-Sham states=            9
     kinetic-energy cutoff     =     100.0000  Ry
     charge density cutoff     =     400.0000  Ry
     convergence threshold     =      1.0E-08
     mixing beta               =       0.7000
     number of iterations used =            8  plain     mixing
     Exchange-correlation      = SLA PW PBX PBC ( 1  4  3  4 0 0)

     celldm(1)=   9.860000  celldm(2)=   0.000000  celldm(3)=   0.000000
     celldm(4)=   0.000000  celldm(5)=   0.000000  celldm(6)=   0.000000

     crystal axes: (cart. coord. in units of alat)
               a(1) = (   0.500000   0.500000   0.500000 )  
               a(2) = (  -0.500000   0.500000   0.500000 )  
               a(3) = (  -0.500000  -0.500000   0.500000 )  

     reciprocal axes: (cart. coord. in units 2 pi/alat)
               b(1) = (  1.000000  0.000000  1.000000 )  
               b(2) = ( -1.000000  1.000000  0.000000 )  
               b(3) = (  0.000000 -1.000000  1.000000 )  


     PseudoPot. # 1 for K  read from file:
     /home/lorenzo/pseudos/K/K.pbe-spn-kjpaw_psl.1.0.0.UPF
     MD5 check sum: 34cc42130a09071ebe376fd42eb21491
     Pseudo is Projector augmented-wave + core cor, Zval =  9.0
     Generated using "atomic" code by A. Dal Corso v.6.2.2
     Shape of augmentation charge: PSQ
     Using radial grid of 1165 points,  6 beta functions with: 
                l(1) =   0
                l(2) =   0
                l(3) =   1
                l(4) =   1
                l(5) =   2
                l(6) =   2
     Q(r) pseudized with 0 coefficients 


     atomic species   valence    mass     pseudopotential
        K              9.00    39.09830     K ( 1.00)

     48 Sym. Ops., with inversion, found



   Cartesian axes

     site n.     atom                  positions (alat units)
         1           K   tau(   1) = (   0.0000000   0.0000000   0.0000000  )

     number of k points=    35  gaussian smearing, width (Ry)=  0.0100
                       cart. coord. in units 2pi/alat
        k(    1) = (   0.0000000   0.0000000   0.0000000), wk =   0.0027435
        k(    2) = (   0.0000000  -0.1111111   0.1111111), wk =   0.0329218
        k(    3) = (   0.0000000  -0.2222222   0.2222222), wk =   0.0329218
        k(    4) = (   0.0000000  -0.3333333   0.3333333), wk =   0.0329218
        k(    5) = (   0.0000000  -0.4444444   0.4444444), wk =   0.0329218
        k(    6) = (  -0.1111111  -0.1111111   0.2222222), wk =   0.0658436
        k(    7) = (  -0.1111111  -0.2222222   0.3333333), wk =   0.1316872
        k(    8) = (  -0.1111111  -0.3333333   0.4444444), wk =   0.1316872
        k(    9) = (  -0.1111111   0.5555556  -0.4444444), wk =   0.0658436
        k(   10) = (  -0.2222222  -0.2222222   0.4444444), wk =   0.0658436
        k(   11) = (  -0.2222222   0.6666667  -0.4444444), wk =   0.1316872
        k(   12) = (  -0.3333333   0.6666667  -0.3333333), wk =   0.0219479
        k(   13) = (   0.0000000   0.0000000   0.2222222), wk =   0.0164609
        k(   14) = (   0.0000000  -0.1111111   0.3333333), wk =   0.0658436
        k(   15) = (   0.0000000  -0.2222222   0.4444444), wk =   0.0658436
        k(   16) = (   0.0000000  -0.3333333   0.5555556), wk =   0.0658436
        k(   17) = (  -0.1111111  -0.1111111   0.4444444), wk =   0.0658436
        k(   18) = (  -0.1111111  -0.2222222   0.5555556), wk =   0.1316872
        k(   19) = (  -0.1111111   0.6666667  -0.3333333), wk =   0.0658436
        k(   20) = (  -0.2222222   0.2222222   0.2222222), wk =   0.0219479
        k(   21) = (  -0.2222222   0.7777778  -0.3333333), wk =   0.0658436
        k(   22) = (  -0.3333333   0.3333333   0.2222222), wk =   0.0658436
        k(   23) = (   0.5555556  -0.5555556   0.2222222), wk =   0.0658436
        k(   24) = (   0.5555556  -0.6666667   0.3333333), wk =   0.0658436
        k(   25) = (   0.4444444  -0.5555556   0.3333333), wk =   0.0658436
        k(   26) = (   0.0000000   0.0000000   0.4444444), wk =   0.0164609
        k(   27) = (   0.0000000  -0.1111111   0.5555556), wk =   0.0658436
        k(   28) = (   0.0000000  -0.2222222   0.6666667), wk =   0.0658436
        k(   29) = (  -0.1111111  -0.1111111   0.6666667), wk =   0.0658436
        k(   30) = (  -0.1111111   0.7777778  -0.2222222), wk =   0.0658436
        k(   31) = (   0.5555556  -0.5555556   0.4444444), wk =   0.0219479
        k(   32) = (   0.0000000   0.0000000   0.6666667), wk =   0.0164609
        k(   33) = (   0.0000000  -0.1111111   0.7777778), wk =   0.0658436
        k(   34) = (  -0.1111111   0.8888889  -0.1111111), wk =   0.0219479
        k(   35) = (   0.0000000   0.0000000   0.8888889), wk =   0.0164609

     Dense  grid:    64579 G-vectors     FFT dimensions: (  60,  60,  60)

     Estimated max dynamical RAM per process >      58.91 MB

     Estimated total dynamical RAM >     294.55 MB

     Check: negative/imaginary core charge=   -0.000001    0.000000

     Initial potential from superposition of free atoms

     starting charge    8.98117, renormalised to    9.00000
     Starting wfcs are    8 randomized atomic wfcs +    1 random wfcs
     Checking if some PAW data can be deallocated... 

     total cpu time spent up to now is        2.2 secs

     Self-consistent Calculation

     iteration #  1     ecut=   100.00 Ry     beta= 0.70
     Davidson diagonalization with overlap
     ethr =  1.00E-02,  avg # of iterations =  6.7

     Threshold (ethr) on eigenvalues was too large:
     Diagonalizing with lowered threshold

     Davidson diagonalization with overlap
     ethr =  1.41E-05,  avg # of iterations =  6.6

     total cpu time spent up to now is       10.5 secs

     total energy              =    -113.01136610 Ry
     Harris-Foulkes estimate   =    -113.01188588 Ry
     estimated scf accuracy    <       0.00126074 Ry

     iteration #  2     ecut=   100.00 Ry     beta= 0.70
     Davidson diagonalization with overlap
     ethr =  1.40E-05,  avg # of iterations =  2.3

     total cpu time spent up to now is       13.6 secs

     total energy              =    -113.01158904 Ry
     Harris-Foulkes estimate   =    -113.01159879 Ry
     estimated scf accuracy    <       0.00010155 Ry

     iteration #  3     ecut=   100.00 Ry     beta= 0.70
     Davidson diagonalization with overlap
     ethr =  1.13E-06,  avg # of iterations =  2.3

     total cpu time spent up to now is       16.6 secs

     total energy              =    -113.01160106 Ry
     Harris-Foulkes estimate   =    -113.01159880 Ry
     estimated scf accuracy    <       0.00000693 Ry

     iteration #  4     ecut=   100.00 Ry     beta= 0.70
     Davidson diagonalization with overlap
     ethr =  7.70E-08,  avg # of iterations =  1.7

     total cpu time spent up to now is       19.1 secs

     total energy              =    -113.01160188 Ry
     Harris-Foulkes estimate   =    -113.01160189 Ry
     estimated scf accuracy    <       0.00000005 Ry

     iteration #  5     ecut=   100.00 Ry     beta= 0.70
     Davidson diagonalization with overlap
     ethr =  6.09E-10,  avg # of iterations =  2.4

     total cpu time spent up to now is       21.9 secs

     End of self-consistent calculation

          k = 0.0000 0.0000 0.0000 (  8151 PWs)   bands (ev):

   -30.1661 -13.6142 -13.6142 -13.6142  -0.2616   6.2633   6.2633   7.1809
     7.1810

          k = 0.0000-0.1111 0.1111 (  8124 PWs)   bands (ev):

   -30.1656 -13.6233 -13.6173 -13.6142  -0.1041   6.0102   6.0703   6.3894
     6.9673

          k = 0.0000-0.2222 0.2222 (  8116 PWs)   bands (ev):

   -30.1641 -13.6462 -13.6249 -13.6142   0.3553   5.1570   5.6804   6.7606
     6.9766

          k = 0.0000-0.3333 0.3333 (  8108 PWs)   bands (ev):

   -30.1625 -13.6718 -13.6335 -13.6142   1.0773   4.1197   5.3355   7.0332
     7.2488

          k = 0.0000-0.4444 0.4444 (  8090 PWs)   bands (ev):

   -30.1614 -13.6884 -13.6391 -13.6142   1.9915   3.0629   5.1448   6.9037
     7.5599

          k =-0.1111-0.1111 0.2222 (  8099 PWs)   bands (ev):

   -30.1646 -13.6391 -13.6206 -13.6164   0.2045   5.5221   5.6924   6.6170
     6.8002

          k =-0.1111-0.2222 0.3333 (  8107 PWs)   bands (ev):

   -30.1630 -13.6614 -13.6297 -13.6173   0.7964   4.6501   5.2735   6.8302
     7.0157

          k =-0.1111-0.3333 0.4444 (  8106 PWs)   bands (ev):

   -30.1617 -13.6803 -13.6388 -13.6175   1.6201   3.6474   5.0020   6.7737
     7.4246

          k =-0.1111 0.5556-0.4444 (  8077 PWs)   bands (ev):

   -30.1611 -13.6876 -13.6425 -13.6175   2.5094   2.7030   4.9074   6.6538
     7.6631

          k =-0.2222-0.2222 0.4444 (  8088 PWs)   bands (ev):

   -30.1618 -13.6738 -13.6397 -13.6210   1.4930   4.1231   4.6543   6.9384
     6.9438

          k =-0.2222 0.6667-0.4444 (  8106 PWs)   bands (ev):

   -30.1610 -13.6787 -13.6505 -13.6223   2.3794   3.3349   4.2970   6.6263
     7.2538

          k =-0.3333 0.6667-0.3333 (  8088 PWs)   bands (ev):

   -30.1607 -13.6668 -13.6668 -13.6238   3.1567   3.1567   3.5775   6.5948
     7.3430

          k = 0.0000 0.0000 0.2222 (  8091 PWs)   bands (ev):

   -30.1650 -13.6257 -13.6203 -13.6203   0.0514   5.9738   5.9738   6.3455
     6.4469

          k = 0.0000-0.1111 0.3333 (  8098 PWs)   bands (ev):

   -30.1636 -13.6458 -13.6281 -13.6215   0.5049   5.2032   5.6665   6.2128
     6.7769

          k = 0.0000-0.2222 0.4444 (  8124 PWs)   bands (ev):

   -30.1620 -13.6702 -13.6368 -13.6211   1.2178   4.1888   5.3623   6.2624
     7.3525

          k = 0.0000-0.3333 0.5556 (  8105 PWs)   bands (ev):

   -30.1610 -13.6860 -13.6425 -13.6208   2.1235   3.1562   5.1890   6.1745
     7.4848

          k =-0.1111-0.1111 0.4444 (  8111 PWs)   bands (ev):

   -30.1622 -13.6618 -13.6371 -13.6259   1.0808   4.6158   5.2402   6.1650
     7.0904

          k =-0.1111-0.2222 0.5556 (  8083 PWs)   bands (ev):

   -30.1609 -13.6770 -13.6470 -13.6264   1.8820   3.7886   4.8513   6.2362
     7.1101

          k =-0.1111 0.6667-0.3333 (  8075 PWs)   bands (ev):

   -30.1604 -13.6830 -13.6511 -13.6264   2.8121   2.8410   4.7137   6.1740
     7.2760

          k =-0.2222 0.2222 0.2222 (  8112 PWs)   bands (ev):

   -30.1634 -13.6580 -13.6213 -13.6213   0.6522   5.0364   5.0364   6.8544
     7.2416

          k =-0.2222 0.7778-0.3333 (  8080 PWs)   bands (ev):

   -30.1601 -13.6755 -13.6614 -13.6280   2.7152   3.4540   4.0400   6.6388
     6.8903

          k =-0.3333 0.3333 0.2222 (  8107 PWs)   bands (ev):

   -30.1621 -13.6731 -13.6330 -13.6221   1.3588   4.1941   4.6981   6.7952
     7.3774

          k = 0.5556-0.5556 0.2222 (  8091 PWs)   bands (ev):

   -30.1613 -13.6805 -13.6431 -13.6227   2.2570   3.2479   4.5267   6.4480
     7.5907

          k = 0.5556-0.6667 0.3333 (  8095 PWs)   bands (ev):

   -30.1613 -13.6746 -13.6427 -13.6284   2.1426   3.7946   4.1226   6.1701
     7.5111

          k = 0.4444-0.5556 0.3333 (  8083 PWs)   bands (ev):

   -30.1610 -13.6703 -13.6524 -13.6299   3.0076   3.0753   3.9299   5.8701
     7.6146

          k = 0.0000 0.0000 0.4444 (  8116 PWs)   bands (ev):

   -30.1623 -13.6487 -13.6361 -13.6361   0.9404   5.0913   5.5704   5.5704
     6.9601

          k = 0.0000-0.1111 0.5556 (  8086 PWs)   bands (ev):

   -30.1608 -13.6663 -13.6453 -13.6383   1.6221   4.3134   5.4102   5.5634
     6.8801

          k = 0.0000-0.2222 0.6667 (  8078 PWs)   bands (ev):

   -30.1598 -13.6799 -13.6512 -13.6373   2.4821   3.4198   5.2988   5.3833
     6.9026

          k =-0.1111-0.1111 0.6667 (  8094 PWs)   bands (ev):

   -30.1596 -13.6733 -13.6567 -13.6416   2.3621   3.8665   4.8045   5.8547
     6.5011

          k =-0.1111 0.7778-0.2222 (  8082 PWs)   bands (ev):

   -30.1592 -13.6760 -13.6626 -13.6414   3.1093   3.2818   4.4708   5.9653
     6.5778

          k = 0.5556-0.5556 0.4444 (  8118 PWs)   bands (ev):

   -30.1611 -13.6639 -13.6446 -13.6446   2.9324   3.6331   3.6331   5.3474
     7.7555

          k = 0.0000 0.0000 0.6667 (  8088 PWs)   bands (ev):

   -30.1594 -13.6645 -13.6548 -13.6548   2.2384   4.1492   5.4270   5.4271
     6.0567

          k = 0.0000-0.1111 0.7778 (  8079 PWs)   bands (ev):

   -30.1585 -13.6730 -13.6611 -13.6559   2.9648   3.6832   5.1075   5.4178
     6.1136

          k =-0.1111 0.8889-0.1111 (  8067 PWs)   bands (ev):

   -30.1581 -13.6699 -13.6699 -13.6574   3.4563   3.4563   4.7973   5.8445
     5.8445

          k = 0.0000 0.0000 0.8889 (  8084 PWs)   bands (ev):

   -30.1577 -13.6690 -13.6675 -13.6675   3.4181   3.6608   5.4797   5.4903
     5.4903

     the Fermi energy is     1.9569 ev

!    total energy              =    -113.01160190 Ry
     Harris-Foulkes estimate   =    -113.01160190 Ry
     estimated scf accuracy    <          2.6E-09 Ry

     total all-electron energy =     -1204.250312 Ry

     The total energy is the sum of the following terms:

     one-electron contribution =     -35.40547719 Ry
     hartree contribution      =      18.88006187 Ry
     xc contribution           =     -11.16979624 Ry
     ewald contribution        =     -29.89633970 Ry
     one-center paw contrib.   =     -55.41961564 Ry
     smearing contrib. (-TS)   =      -0.00043501 Ry

     convergence has been achieved in   5 iterations

     Forces acting on atoms (cartesian axes, Ry/au):

     atom    1 type  1   force =     0.00000000    0.00000000    0.00000000

     Total force =     0.000000     Total SCF correction =     0.000000


     Computing stress (Cartesian axis) and pressure

          total   stress  (Ry/bohr**3)                   (kbar)     P=    1.43
   0.00000974  -0.00000000   0.00000000          1.43     -0.00      0.00
  -0.00000000   0.00000974  -0.00000000         -0.00      1.43     -0.00
   0.00000000  -0.00000000   0.00000974          0.00     -0.00      1.43


     Writing output data file K.save/

     init_run     :      1.42s CPU      1.50s WALL (       1 calls)
     electrons    :     18.96s CPU     19.66s WALL (       1 calls)
     forces       :      0.30s CPU      0.31s WALL (       1 calls)
     stress       :      1.10s CPU      1.14s WALL (       1 calls)

     Called by init_run:
     wfcinit      :      0.84s CPU      0.88s WALL (       1 calls)
     potinit      :      0.14s CPU      0.16s WALL (       1 calls)
     hinit0       :      0.26s CPU      0.27s WALL (       1 calls)

     Called by electrons:
     c_bands      :     15.30s CPU     15.75s WALL (       6 calls)
     sum_band     :      2.69s CPU      2.83s WALL (       6 calls)
     v_of_rho     :      0.25s CPU      0.26s WALL (       6 calls)
     newd         :      0.35s CPU      0.42s WALL (       6 calls)
     PAW_pot      :      0.51s CPU      0.57s WALL (       6 calls)
     mix_rho      :      0.02s CPU      0.02s WALL (       6 calls)

     Called by c_bands:
     init_us_2    :      0.52s CPU      0.53s WALL (     525 calls)
     cegterg      :     14.66s CPU     15.10s WALL (     210 calls)

     Called by sum_band:
     sum_band:bec :      0.00s CPU      0.00s WALL (     210 calls)
     addusdens    :      0.33s CPU      0.40s WALL (       6 calls)

     Called by *egterg:
     h_psi        :     12.73s CPU     13.18s WALL (    1016 calls)
     s_psi        :      0.35s CPU      0.35s WALL (    1016 calls)
     g_psi        :      0.03s CPU      0.03s WALL (     771 calls)
     cdiaghg      :      0.25s CPU      0.26s WALL (     946 calls)

     Called by h_psi:
     h_psi:pot    :     12.67s CPU     13.11s WALL (    1016 calls)
     h_psi:calbec :      0.66s CPU      0.68s WALL (    1016 calls)
     vloc_psi     :     11.61s CPU     12.03s WALL (    1016 calls)
     add_vuspsi   :      0.39s CPU      0.39s WALL (    1016 calls)

     General routines
     calbec       :      0.99s CPU      1.01s WALL (    1401 calls)
     fft          :      0.16s CPU      0.17s WALL (      93 calls)
     ffts         :      0.01s CPU      0.01s WALL (       6 calls)
     fftw         :     12.07s CPU     12.52s WALL (   13162 calls)

     Parallel routines
     fft_scatt_xy :      1.01s CPU      1.06s WALL (   13261 calls)
     fft_scatt_yz :      2.80s CPU      2.92s WALL (   13261 calls)

     PWSCF        :    22.55s CPU        23.52s WALL


   This run was terminated on:   0: 9:18   8Apr2024            

=------------------------------------------------------------------------------=
   JOB DONE.
=------------------------------------------------------------------------------=
