
     Program PWSCF v.6.3MaX starts on  8Apr2024 at  1:27:49 

     This program is part of the open-source Quantum ESPRESSO suite
     for quantum simulation of materials; please cite
         "P. Giannozzi et al., J. Phys.:Condens. Matter 21 395502 (2009);
         "P. Giannozzi et al., J. Phys.:Condens. Matter 29 465901 (2017);
          URL http://www.quantum-espresso.org", 
     in publications or presentations arising from this work. More details at
     http://www.quantum-espresso.org/quote

     Parallel version (MPI), running on     5 processors

     MPI processes distributed on     1 nodes
     R & G space division:  proc/nbgrp/npool/nimage =       5
     Waiting for input...
     Reading input from standard input

     Current dimensions of program PWSCF are:
     Max number of different atomic species (ntypx) = 10
     Max number of k-points (npk) =  40000
     Max angular momentum in pseudopotentials (lmaxx) =  3
               file K.pz-spn-rrkjus_psl.1.0.0.UPF: wavefunction(s)  3S renormalized

     Subspace diagonalization in iterative solution of the eigenvalue problem:
     a serial algorithm will be used


     Parallelization info
     --------------------
     sticks:   dense  smooth     PW     G-vecs:    dense   smooth      PW
     Min         393     393    110                11072    11072    1630
     Max         394     394    111                11073    11073    1631
     Sum        1967    1967    553                55361    55361    8151



     bravais-lattice index     =            3
     lattice parameter (alat)  =       9.8600  a.u.
     unit-cell volume          =     479.2926 (a.u.)^3
     number of atoms/cell      =            1
     number of atomic types    =            1
     number of electrons       =         9.00
     number of Kohn-Sham states=            9
     kinetic-energy cutoff     =      90.0000  Ry
     charge density cutoff     =     360.0000  Ry
     convergence threshold     =      1.0E-08
     mixing beta               =       0.7000
     number of iterations used =            8  plain     mixing
     Exchange-correlation      = LDA ( 1  1  0  0 0 0)

     celldm(1)=   9.860000  celldm(2)=   0.000000  celldm(3)=   0.000000
     celldm(4)=   0.000000  celldm(5)=   0.000000  celldm(6)=   0.000000

     crystal axes: (cart. coord. in units of alat)
               a(1) = (   0.500000   0.500000   0.500000 )  
               a(2) = (  -0.500000   0.500000   0.500000 )  
               a(3) = (  -0.500000  -0.500000   0.500000 )  

     reciprocal axes: (cart. coord. in units 2 pi/alat)
               b(1) = (  1.000000  0.000000  1.000000 )  
               b(2) = ( -1.000000  1.000000  0.000000 )  
               b(3) = (  0.000000 -1.000000  1.000000 )  


     PseudoPot. # 1 for K  read from file:
     /home/lorenzo/pseudos/K/K.pz-spn-rrkjus_psl.1.0.0.UPF
     MD5 check sum: af434a66a3b91719abff201b8f79bb09
     Pseudo is Ultrasoft + core correction, Zval =  9.0
     Generated using "atomic" code by A. Dal Corso v.6.2.2
     Using radial grid of 1165 points,  6 beta functions with: 
                l(1) =   0
                l(2) =   0
                l(3) =   1
                l(4) =   1
                l(5) =   2
                l(6) =   2
     Q(r) pseudized with 0 coefficients 


     atomic species   valence    mass     pseudopotential
        K              9.00    39.09830     K ( 1.00)

     48 Sym. Ops., with inversion, found



   Cartesian axes

     site n.     atom                  positions (alat units)
         1           K   tau(   1) = (   0.0000000   0.0000000   0.0000000  )

     number of k points=     4  gaussian smearing, width (Ry)=  0.0100
                       cart. coord. in units 2pi/alat
        k(    1) = (   0.0000000   0.0000000   0.0000000), wk =   0.0740741
        k(    2) = (   0.0000000  -0.3333333   0.3333333), wk =   0.8888889
        k(    3) = (  -0.3333333   0.6666667  -0.3333333), wk =   0.5925926
        k(    4) = (   0.0000000   0.0000000   0.6666667), wk =   0.4444444

     Dense  grid:    55361 G-vectors     FFT dimensions: (  54,  54,  54)

     Estimated max dynamical RAM per process >      44.48 MB

     Estimated total dynamical RAM >     222.42 MB

     Check: negative/imaginary core charge=   -0.000001    0.000000

     Initial potential from superposition of free atoms

     starting charge    8.98437, renormalised to    9.00000
     Starting wfcs are    8 randomized atomic wfcs +    1 random wfcs

     total cpu time spent up to now is        1.1 secs

     Self-consistent Calculation

     iteration #  1     ecut=    90.00 Ry     beta= 0.70
     Davidson diagonalization with overlap
     ethr =  1.00E-02,  avg # of iterations =  6.0

     Threshold (ethr) on eigenvalues was too large:
     Diagonalizing with lowered threshold

     Davidson diagonalization with overlap
     ethr =  1.24E-05,  avg # of iterations =  8.5

     total cpu time spent up to now is        2.0 secs

     total energy              =     -58.75016331 Ry
     Harris-Foulkes estimate   =     -58.75075803 Ry
     estimated scf accuracy    <       0.00113473 Ry

     iteration #  2     ecut=    90.00 Ry     beta= 0.70
     Davidson diagonalization with overlap
     ethr =  1.26E-05,  avg # of iterations =  2.2

     total cpu time spent up to now is        2.4 secs

     total energy              =     -58.75036680 Ry
     Harris-Foulkes estimate   =     -58.75038606 Ry
     estimated scf accuracy    <       0.00008976 Ry

     iteration #  3     ecut=    90.00 Ry     beta= 0.70
     Davidson diagonalization with overlap
     ethr =  9.97E-07,  avg # of iterations =  1.8

     total cpu time spent up to now is        2.7 secs

     total energy              =     -58.75037580 Ry
     Harris-Foulkes estimate   =     -58.75037517 Ry
     estimated scf accuracy    <       0.00000563 Ry

     iteration #  4     ecut=    90.00 Ry     beta= 0.70
     Davidson diagonalization with overlap
     ethr =  6.25E-08,  avg # of iterations =  1.2

     total cpu time spent up to now is        3.0 secs

     total energy              =     -58.75037625 Ry
     Harris-Foulkes estimate   =     -58.75037624 Ry
     estimated scf accuracy    <       0.00000003 Ry

     iteration #  5     ecut=    90.00 Ry     beta= 0.70
     Davidson diagonalization with overlap
     ethr =  3.69E-10,  avg # of iterations =  2.5

     total cpu time spent up to now is        3.4 secs

     End of self-consistent calculation

          k = 0.0000 0.0000 0.0000 (  6819 PWs)   bands (ev):

   -30.1020 -13.7397 -13.7397 -13.7397  -0.4766   5.9272   5.9272   5.9272
     6.8737

          k = 0.0000-0.3333 0.3333 (  6939 PWs)   bands (ev):

   -30.0981 -13.7998 -13.7598 -13.7396   0.8680   3.9017   5.0433   6.7038
     6.9663

          k =-0.3333 0.6667-0.3333 (  6905 PWs)   bands (ev):

   -30.0961 -13.7946 -13.7946 -13.7497   2.9760   2.9760   3.3012   6.2457
     7.0156

          k = 0.0000 0.0000 0.6667 (  6907 PWs)   bands (ev):

   -30.0948 -13.7922 -13.7821 -13.7821   2.0409   3.9447   5.1726   5.1726
     5.7560

     the Fermi energy is     1.9078 ev

!    total energy              =     -58.75037626 Ry
     Harris-Foulkes estimate   =     -58.75037626 Ry
     estimated scf accuracy    <          1.1E-09 Ry

     The total energy is the sum of the following terms:

     one-electron contribution =     -36.66109600 Ry
     hartree contribution      =      18.82387172 Ry
     xc contribution           =     -11.01633046 Ry
     ewald contribution        =     -29.89633970 Ry
     smearing contrib. (-TS)   =      -0.00048182 Ry

     convergence has been achieved in   5 iterations

     Forces acting on atoms (cartesian axes, Ry/au):

     atom    1 type  1   force =     0.00000000    0.00000000    0.00000000

     Total force =     0.000000     Total SCF correction =     0.000000


     Computing stress (Cartesian axis) and pressure

          total   stress  (Ry/bohr**3)                   (kbar)     P=   -5.13
  -0.00003490   0.00000000  -0.00000000         -5.13      0.00     -0.00
   0.00000000  -0.00003490   0.00000000          0.00     -5.13      0.00
  -0.00000000   0.00000000  -0.00003490         -0.00      0.00     -5.13


     Writing output data file K.save/

     init_run     :      0.44s CPU      0.46s WALL (       1 calls)
     electrons    :      2.19s CPU      2.25s WALL (       1 calls)
     forces       :      0.12s CPU      0.12s WALL (       1 calls)
     stress       :      0.43s CPU      0.43s WALL (       1 calls)

     Called by init_run:
     wfcinit      :      0.07s CPU      0.07s WALL (       1 calls)
     potinit      :      0.02s CPU      0.02s WALL (       1 calls)
     hinit0       :      0.23s CPU      0.23s WALL (       1 calls)

     Called by electrons:
     c_bands      :      1.30s CPU      1.34s WALL (       6 calls)
     sum_band     :      0.57s CPU      0.58s WALL (       6 calls)
     v_of_rho     :      0.04s CPU      0.04s WALL (       6 calls)
     newd         :      0.30s CPU      0.32s WALL (       6 calls)
     mix_rho      :      0.02s CPU      0.02s WALL (       6 calls)

     Called by c_bands:
     init_us_2    :      0.05s CPU      0.05s WALL (      60 calls)
     cegterg      :      1.24s CPU      1.28s WALL (      24 calls)

     Called by sum_band:
     sum_band:bec :      0.00s CPU      0.00s WALL (      24 calls)
     addusdens    :      0.31s CPU      0.31s WALL (       6 calls)

     Called by *egterg:
     h_psi        :      1.06s CPU      1.10s WALL (     117 calls)
     s_psi        :      0.03s CPU      0.03s WALL (     117 calls)
     g_psi        :      0.00s CPU      0.00s WALL (      89 calls)
     cdiaghg      :      0.03s CPU      0.03s WALL (     109 calls)

     Called by h_psi:
     h_psi:pot    :      1.05s CPU      1.09s WALL (     117 calls)
     h_psi:calbec :      0.06s CPU      0.06s WALL (     117 calls)
     vloc_psi     :      0.95s CPU      0.99s WALL (     117 calls)
     add_vuspsi   :      0.04s CPU      0.04s WALL (     117 calls)

     General routines
     calbec       :      0.10s CPU      0.10s WALL (     161 calls)
     fft          :      0.05s CPU      0.05s WALL (      34 calls)
     ffts         :      0.01s CPU      0.01s WALL (       6 calls)
     fftw         :      1.04s CPU      1.08s WALL (    1500 calls)

     Parallel routines
     fft_scatt_xy :      0.09s CPU      0.09s WALL (    1540 calls)
     fft_scatt_yz :      0.23s CPU      0.24s WALL (    1540 calls)

     PWSCF        :     3.86s CPU         3.99s WALL


   This run was terminated on:   1:27:53   8Apr2024            

=------------------------------------------------------------------------------=
   JOB DONE.
=------------------------------------------------------------------------------=
