
     Program PWSCF v.6.3MaX starts on  8Apr2024 at  1:39:20 

     This program is part of the open-source Quantum ESPRESSO suite
     for quantum simulation of materials; please cite
         "P. Giannozzi et al., J. Phys.:Condens. Matter 21 395502 (2009);
         "P. Giannozzi et al., J. Phys.:Condens. Matter 29 465901 (2017);
          URL http://www.quantum-espresso.org", 
     in publications or presentations arising from this work. More details at
     http://www.quantum-espresso.org/quote

     Parallel version (MPI), running on     5 processors

     MPI processes distributed on     1 nodes
     R & G space division:  proc/nbgrp/npool/nimage =       5
     Waiting for input...
     Reading input from standard input

     Current dimensions of program PWSCF are:
     Max number of different atomic species (ntypx) = 10
     Max number of k-points (npk) =  40000
     Max angular momentum in pseudopotentials (lmaxx) =  3
               file K.pbe-spn-rrkjus_psl.1.0.0.UPF: wavefunction(s)  3S renormalized

     Subspace diagonalization in iterative solution of the eigenvalue problem:
     a serial algorithm will be used


     Parallelization info
     --------------------
     sticks:   dense  smooth     PW     G-vecs:    dense   smooth      PW
     Min         417     417    114                12009    12009    1755
     Max         417     417    115                12010    12010    1758
     Sum        2085    2085    571                60047    60047    8781



     bravais-lattice index     =            3
     lattice parameter (alat)  =       9.8600  a.u.
     unit-cell volume          =     479.2926 (a.u.)^3
     number of atoms/cell      =            1
     number of atomic types    =            1
     number of electrons       =         9.00
     number of Kohn-Sham states=            9
     kinetic-energy cutoff     =      95.0000  Ry
     charge density cutoff     =     380.0000  Ry
     convergence threshold     =      1.0E-08
     mixing beta               =       0.7000
     number of iterations used =            8  plain     mixing
     Exchange-correlation      = PBE ( 1  4  3  4 0 0)

     celldm(1)=   9.860000  celldm(2)=   0.000000  celldm(3)=   0.000000
     celldm(4)=   0.000000  celldm(5)=   0.000000  celldm(6)=   0.000000

     crystal axes: (cart. coord. in units of alat)
               a(1) = (   0.500000   0.500000   0.500000 )  
               a(2) = (  -0.500000   0.500000   0.500000 )  
               a(3) = (  -0.500000  -0.500000   0.500000 )  

     reciprocal axes: (cart. coord. in units 2 pi/alat)
               b(1) = (  1.000000  0.000000  1.000000 )  
               b(2) = ( -1.000000  1.000000  0.000000 )  
               b(3) = (  0.000000 -1.000000  1.000000 )  


     PseudoPot. # 1 for K  read from file:
     /home/lorenzo/pseudos/K/K.pbe-spn-rrkjus_psl.1.0.0.UPF
     MD5 check sum: 897b700350bb708b0563e904352feb48
     Pseudo is Ultrasoft + core correction, Zval =  9.0
     Generated using "atomic" code by A. Dal Corso v.6.2.2
     Using radial grid of 1165 points,  6 beta functions with: 
                l(1) =   0
                l(2) =   0
                l(3) =   1
                l(4) =   1
                l(5) =   2
                l(6) =   2
     Q(r) pseudized with 0 coefficients 


     atomic species   valence    mass     pseudopotential
        K              9.00    39.09830     K ( 1.00)

     48 Sym. Ops., with inversion, found



   Cartesian axes

     site n.     atom                  positions (alat units)
         1           K   tau(   1) = (   0.0000000   0.0000000   0.0000000  )

     number of k points=    20  gaussian smearing, width (Ry)=  0.0100
                       cart. coord. in units 2pi/alat
        k(    1) = (   0.0000000   0.0000000   0.0000000), wk =   0.0058309
        k(    2) = (   0.0000000  -0.1428571   0.1428571), wk =   0.0699708
        k(    3) = (   0.0000000  -0.2857143   0.2857143), wk =   0.0699708
        k(    4) = (   0.0000000  -0.4285714   0.4285714), wk =   0.0699708
        k(    5) = (  -0.1428571  -0.1428571   0.2857143), wk =   0.1399417
        k(    6) = (  -0.1428571  -0.2857143   0.4285714), wk =   0.2798834
        k(    7) = (  -0.1428571   0.5714286  -0.4285714), wk =   0.1399417
        k(    8) = (  -0.2857143   0.7142857  -0.4285714), wk =   0.1399417
        k(    9) = (   0.0000000   0.0000000   0.2857143), wk =   0.0349854
        k(   10) = (   0.0000000  -0.1428571   0.4285714), wk =   0.1399417
        k(   11) = (   0.0000000  -0.2857143   0.5714286), wk =   0.1399417
        k(   12) = (  -0.1428571  -0.1428571   0.5714286), wk =   0.1399417
        k(   13) = (  -0.1428571   0.7142857  -0.2857143), wk =   0.1399417
        k(   14) = (  -0.2857143   0.2857143   0.2857143), wk =   0.0466472
        k(   15) = (   0.5714286  -0.5714286   0.2857143), wk =   0.1399417
        k(   16) = (   0.4285714  -0.5714286   0.4285714), wk =   0.0466472
        k(   17) = (   0.0000000   0.0000000   0.5714286), wk =   0.0349854
        k(   18) = (   0.0000000  -0.1428571   0.7142857), wk =   0.1399417
        k(   19) = (  -0.1428571   0.8571429  -0.1428571), wk =   0.0466472
        k(   20) = (   0.0000000   0.0000000   0.8571429), wk =   0.0349854

     Dense  grid:    60047 G-vectors     FFT dimensions: (  54,  54,  54)

     Estimated max dynamical RAM per process >      51.22 MB

     Estimated total dynamical RAM >     256.08 MB

     Check: negative/imaginary core charge=   -0.000001    0.000000

     Initial potential from superposition of free atoms

     starting charge    8.98117, renormalised to    9.00000
     Starting wfcs are    8 randomized atomic wfcs +    1 random wfcs

     total cpu time spent up to now is        1.7 secs

     Self-consistent Calculation

     iteration #  1     ecut=    95.00 Ry     beta= 0.70
     Davidson diagonalization with overlap
     ethr =  1.00E-02,  avg # of iterations =  6.3

     Threshold (ethr) on eigenvalues was too large:
     Diagonalizing with lowered threshold

     Davidson diagonalization with overlap
     ethr =  1.43E-05,  avg # of iterations =  7.3

     total cpu time spent up to now is        5.8 secs

     total energy              =     -58.77408048 Ry
     Harris-Foulkes estimate   =     -58.77461274 Ry
     estimated scf accuracy    <       0.00127529 Ry

     iteration #  2     ecut=    95.00 Ry     beta= 0.70
     Davidson diagonalization with overlap
     ethr =  1.42E-05,  avg # of iterations =  2.2

     total cpu time spent up to now is        7.2 secs

     total energy              =     -58.77431498 Ry
     Harris-Foulkes estimate   =     -58.77431779 Ry
     estimated scf accuracy    <       0.00010180 Ry

     iteration #  3     ecut=    95.00 Ry     beta= 0.70
     Davidson diagonalization with overlap
     ethr =  1.13E-06,  avg # of iterations =  1.8

     total cpu time spent up to now is        8.3 secs

     total energy              =     -58.77432486 Ry
     Harris-Foulkes estimate   =     -58.77432226 Ry
     estimated scf accuracy    <       0.00000691 Ry

     iteration #  4     ecut=    95.00 Ry     beta= 0.70
     Davidson diagonalization with overlap
     ethr =  7.68E-08,  avg # of iterations =  1.8

     total cpu time spent up to now is        9.6 secs

     total energy              =     -58.77432554 Ry
     Harris-Foulkes estimate   =     -58.77432553 Ry
     estimated scf accuracy    <       0.00000005 Ry

     iteration #  5     ecut=    95.00 Ry     beta= 0.70
     Davidson diagonalization with overlap
     ethr =  5.49E-10,  avg # of iterations =  2.4

     total cpu time spent up to now is       10.8 secs

     End of self-consistent calculation

          k = 0.0000 0.0000 0.0000 (  7419 PWs)   bands (ev):

   -30.1657 -13.6139 -13.6139 -13.6139  -0.2614   6.2638   6.2638   6.2638
     7.1812

          k = 0.0000-0.1429 0.1429 (  7517 PWs)   bands (ev):

   -30.1648 -13.6286 -13.6188 -13.6139  -0.0022   5.8122   5.9662   6.4715
     6.9370

          k = 0.0000-0.2857 0.2857 (  7486 PWs)   bands (ev):

   -30.1627 -13.6610 -13.6296 -13.6139   0.7395   4.5707   5.4688   7.0315
     7.0760

          k = 0.0000-0.4286 0.4286 (  7504 PWs)   bands (ev):

   -30.1611 -13.6866 -13.6383 -13.6139   1.8539   3.2121   5.1611   6.9231
     7.5059

          k =-0.1429-0.1429 0.2857 (  7485 PWs)   bands (ev):

   -30.1633 -13.6508 -13.6245 -13.6174   0.4989   5.1061   5.4087   6.7947
     6.8082

          k =-0.1429-0.2857 0.4286 (  7474 PWs)   bands (ev):

   -30.1614 -13.6752 -13.6375 -13.6187   1.4331   3.9655   4.9256   6.7983
     7.2366

          k =-0.1429 0.5714-0.4286 (  7504 PWs)   bands (ev):

   -30.1606 -13.6854 -13.6442 -13.6189   2.5865   2.7391   4.7616   6.6023
     7.6370

          k =-0.2857 0.7143-0.4286 (  7502 PWs)   bands (ev):

   -30.1604 -13.6751 -13.6547 -13.6229   2.4805   3.5058   3.9780   6.6485
     7.1566

          k = 0.0000 0.0000 0.2857 (  7503 PWs)   bands (ev):

   -30.1639 -13.6318 -13.6238 -13.6238   0.2515   5.8438   5.8438   5.9755
     6.5640

          k = 0.0000-0.1429 0.4286 (  7495 PWs)   bands (ev):

   -30.1619 -13.6592 -13.6349 -13.6253   0.9774   4.6561   5.4857   6.0199
     7.0931

          k = 0.0000-0.2857 0.5714 (  7500 PWs)   bands (ev):

   -30.1604 -13.6829 -13.6438 -13.6245   2.0699   3.3618   5.2297   5.9350
     7.3465

          k =-0.1429-0.1429 0.5714 (  7499 PWs)   bands (ev):

   -30.1602 -13.6730 -13.6492 -13.6303   1.8665   4.0154   4.7895   6.1623
     6.9003

          k =-0.1429 0.7143-0.2857 (  7506 PWs)   bands (ev):

   -30.1595 -13.6785 -13.6582 -13.6305   2.9680   3.0537   4.3797   6.2498
     7.6841

          k =-0.2857 0.2857 0.2857 (  7494 PWs)   bands (ev):

   -30.1619 -13.6701 -13.6262 -13.6262   1.2113   4.5494   4.5494   6.7860
     7.4250

          k = 0.5714-0.5714 0.2857 (  7490 PWs)   bands (ev):

   -30.1608 -13.6757 -13.6431 -13.6275   2.2856   3.4931   4.2711   6.1387
     7.5892

          k = 0.4286-0.5714 0.4286 (  7497 PWs)   bands (ev):

   -30.1606 -13.6591 -13.6591 -13.6348   3.2488   3.2488   3.5983   5.5323
     7.7176

          k = 0.0000 0.0000 0.5714 (  7503 PWs)   bands (ev):

   -30.1602 -13.6590 -13.6467 -13.6467   1.6509   4.5016   5.4530   5.4530
     6.6113

          k = 0.0000-0.1429 0.7143 (  7500 PWs)   bands (ev):

   -30.1587 -13.6745 -13.6562 -13.6481   2.6335   3.7022   5.1748   5.3754
     6.4189

          k =-0.1429 0.8571-0.1429 (  7505 PWs)   bands (ev):

   -30.1581 -13.6699 -13.6699 -13.6506   3.3891   3.3891   4.5202   6.0326
     6.0326

          k = 0.0000 0.0000 0.8571 (  7500 PWs)   bands (ev):

   -30.1574 -13.6685 -13.6660 -13.6660   3.3014   3.7011   5.4790   5.4790
     5.4908

     the Fermi energy is     1.9396 ev

!    total energy              =     -58.77432555 Ry
     Harris-Foulkes estimate   =     -58.77432555 Ry
     estimated scf accuracy    <          1.4E-09 Ry

     The total energy is the sum of the following terms:

     one-electron contribution =     -36.58796900 Ry
     hartree contribution      =      18.88044373 Ry
     xc contribution           =     -11.16987274 Ry
     ewald contribution        =     -29.89633970 Ry
     smearing contrib. (-TS)   =      -0.00058784 Ry

     convergence has been achieved in   5 iterations

     Forces acting on atoms (cartesian axes, Ry/au):

     atom    1 type  1   force =     0.00000000    0.00000000    0.00000000

     Total force =     0.000000     Total SCF correction =     0.000000


     Computing stress (Cartesian axis) and pressure

          total   stress  (Ry/bohr**3)                   (kbar)     P=    1.42
   0.00000966  -0.00000000   0.00000000          1.42     -0.00      0.00
  -0.00000000   0.00000966  -0.00000000         -0.00      1.42     -0.00
   0.00000000  -0.00000000   0.00000966          0.00     -0.00      1.42


     Writing output data file K.save/

     init_run     :      0.86s CPU      0.89s WALL (       1 calls)
     electrons    :      8.87s CPU      9.17s WALL (       1 calls)
     forces       :      0.31s CPU      0.31s WALL (       1 calls)
     stress       :      0.79s CPU      0.80s WALL (       1 calls)

     Called by init_run:
     wfcinit      :      0.38s CPU      0.39s WALL (       1 calls)
     potinit      :      0.05s CPU      0.06s WALL (       1 calls)
     hinit0       :      0.24s CPU      0.24s WALL (       1 calls)

     Called by electrons:
     c_bands      :      6.89s CPU      7.13s WALL (       6 calls)
     sum_band     :      1.49s CPU      1.53s WALL (       6 calls)
     v_of_rho     :      0.23s CPU      0.23s WALL (       6 calls)
     newd         :      0.36s CPU      0.36s WALL (       6 calls)
     mix_rho      :      0.02s CPU      0.02s WALL (       6 calls)

     Called by c_bands:
     init_us_2    :      0.28s CPU      0.29s WALL (     300 calls)
     cegterg      :      6.57s CPU      6.80s WALL (     120 calls)

     Called by sum_band:
     sum_band:bec :      0.00s CPU      0.00s WALL (     120 calls)
     addusdens    :      0.34s CPU      0.35s WALL (       6 calls)

     Called by *egterg:
     h_psi        :      5.49s CPU      5.72s WALL (     577 calls)
     s_psi        :      0.18s CPU      0.18s WALL (     577 calls)
     g_psi        :      0.02s CPU      0.02s WALL (     437 calls)
     cdiaghg      :      0.14s CPU      0.15s WALL (     537 calls)

     Called by h_psi:
     h_psi:pot    :      5.46s CPU      5.69s WALL (     577 calls)
     h_psi:calbec :      0.33s CPU      0.34s WALL (     577 calls)
     vloc_psi     :      4.94s CPU      5.14s WALL (     577 calls)
     add_vuspsi   :      0.20s CPU      0.20s WALL (     577 calls)

     General routines
     calbec       :      0.53s CPU      0.56s WALL (     797 calls)
     fft          :      0.16s CPU      0.17s WALL (      93 calls)
     ffts         :      0.01s CPU      0.01s WALL (       6 calls)
     fftw         :      5.30s CPU      5.51s WALL (    7384 calls)

     Parallel routines
     fft_scatt_xy :      0.44s CPU      0.45s WALL (    7483 calls)
     fft_scatt_yz :      1.23s CPU      1.29s WALL (    7483 calls)

     PWSCF        :    11.63s CPU        12.04s WALL


   This run was terminated on:   1:39:32   8Apr2024            

=------------------------------------------------------------------------------=
   JOB DONE.
=------------------------------------------------------------------------------=
