
     Program PWSCF v.6.3MaX starts on  8Apr2024 at  0:34:31 

     This program is part of the open-source Quantum ESPRESSO suite
     for quantum simulation of materials; please cite
         "P. Giannozzi et al., J. Phys.:Condens. Matter 21 395502 (2009);
         "P. Giannozzi et al., J. Phys.:Condens. Matter 29 465901 (2017);
          URL http://www.quantum-espresso.org", 
     in publications or presentations arising from this work. More details at
     http://www.quantum-espresso.org/quote

     Parallel version (MPI), running on     5 processors

     MPI processes distributed on     1 nodes
     R & G space division:  proc/nbgrp/npool/nimage =       5
     Waiting for input...
     Reading input from standard input

     Current dimensions of program PWSCF are:
     Max number of different atomic species (ntypx) = 10
     Max number of k-points (npk) =  40000
     Max angular momentum in pseudopotentials (lmaxx) =  3
               file K.pbe-spn-kjpaw_psl.1.0.0.UPF: wavefunction(s)  3S renormalized

     Subspace diagonalization in iterative solution of the eigenvalue problem:
     a serial algorithm will be used


     Parallelization info
     --------------------
     sticks:   dense  smooth     PW     G-vecs:    dense   smooth      PW
     Min         221     221     66                 4575     4575     756
     Max         221     221     67                 4576     4576     757
     Sum        1105    1105    333                22879    22879    3781



     bravais-lattice index     =            3
     lattice parameter (alat)  =       9.8600  a.u.
     unit-cell volume          =     479.2926 (a.u.)^3
     number of atoms/cell      =            1
     number of atomic types    =            1
     number of electrons       =         9.00
     number of Kohn-Sham states=            9
     kinetic-energy cutoff     =      50.0000  Ry
     charge density cutoff     =     200.0000  Ry
     convergence threshold     =      1.0E-08
     mixing beta               =       0.7000
     number of iterations used =            8  plain     mixing
     Exchange-correlation      = SLA PW PBX PBC ( 1  4  3  4 0 0)

     celldm(1)=   9.860000  celldm(2)=   0.000000  celldm(3)=   0.000000
     celldm(4)=   0.000000  celldm(5)=   0.000000  celldm(6)=   0.000000

     crystal axes: (cart. coord. in units of alat)
               a(1) = (   0.500000   0.500000   0.500000 )  
               a(2) = (  -0.500000   0.500000   0.500000 )  
               a(3) = (  -0.500000  -0.500000   0.500000 )  

     reciprocal axes: (cart. coord. in units 2 pi/alat)
               b(1) = (  1.000000  0.000000  1.000000 )  
               b(2) = ( -1.000000  1.000000  0.000000 )  
               b(3) = (  0.000000 -1.000000  1.000000 )  


     PseudoPot. # 1 for K  read from file:
     /home/lorenzo/pseudos/K/K.pbe-spn-kjpaw_psl.1.0.0.UPF
     MD5 check sum: 34cc42130a09071ebe376fd42eb21491
     Pseudo is Projector augmented-wave + core cor, Zval =  9.0
     Generated using "atomic" code by A. Dal Corso v.6.2.2
     Shape of augmentation charge: PSQ
     Using radial grid of 1165 points,  6 beta functions with: 
                l(1) =   0
                l(2) =   0
                l(3) =   1
                l(4) =   1
                l(5) =   2
                l(6) =   2
     Q(r) pseudized with 0 coefficients 


     atomic species   valence    mass     pseudopotential
        K              9.00    39.09830     K ( 1.00)

     48 Sym. Ops., with inversion, found



   Cartesian axes

     site n.     atom                  positions (alat units)
         1           K   tau(   1) = (   0.0000000   0.0000000   0.0000000  )

     number of k points=     8  gaussian smearing, width (Ry)=  0.0100
                       cart. coord. in units 2pi/alat
        k(    1) = (   0.0000000   0.0000000   0.0000000), wk =   0.0312500
        k(    2) = (   0.0000000  -0.2500000   0.2500000), wk =   0.3750000
        k(    3) = (   0.0000000   0.5000000  -0.5000000), wk =   0.1875000
        k(    4) = (  -0.2500000   0.7500000  -0.5000000), wk =   0.7500000
        k(    5) = (   0.0000000   0.0000000   0.5000000), wk =   0.1875000
        k(    6) = (   0.0000000   0.7500000  -0.2500000), wk =   0.3750000
        k(    7) = (   0.5000000  -0.5000000   0.5000000), wk =   0.0625000
        k(    8) = (   0.0000000   0.0000000  -1.0000000), wk =   0.0312500

     Dense  grid:    22879 G-vectors     FFT dimensions: (  40,  40,  40)

     Estimated max dynamical RAM per process >      19.46 MB

     Estimated total dynamical RAM >      97.31 MB

     Check: negative/imaginary core charge=   -0.000006    0.000000

     Initial potential from superposition of free atoms

     starting charge    8.98117, renormalised to    9.00000
     Starting wfcs are    8 randomized atomic wfcs +    1 random wfcs
     Checking if some PAW data can be deallocated... 

     total cpu time spent up to now is        1.2 secs

     Self-consistent Calculation

     iteration #  1     ecut=    50.00 Ry     beta= 0.70
     Davidson diagonalization with overlap
     ethr =  1.00E-02,  avg # of iterations =  7.5

     Threshold (ethr) on eigenvalues was too large:
     Diagonalizing with lowered threshold

     Davidson diagonalization with overlap
     ethr =  1.46E-05,  avg # of iterations =  5.4

     total cpu time spent up to now is        2.0 secs

     total energy              =    -113.00649300 Ry
     Harris-Foulkes estimate   =    -113.00698326 Ry
     estimated scf accuracy    <       0.00125434 Ry

     iteration #  2     ecut=    50.00 Ry     beta= 0.70
     Davidson diagonalization with overlap
     ethr =  1.39E-05,  avg # of iterations =  2.1

     total cpu time spent up to now is        2.3 secs

     total energy              =    -113.00671051 Ry
     Harris-Foulkes estimate   =    -113.00671750 Ry
     estimated scf accuracy    <       0.00010081 Ry

     iteration #  3     ecut=    50.00 Ry     beta= 0.70
     Davidson diagonalization with overlap
     ethr =  1.12E-06,  avg # of iterations =  2.6

     total cpu time spent up to now is        2.6 secs

     total energy              =    -113.00672264 Ry
     Harris-Foulkes estimate   =    -113.00672017 Ry
     estimated scf accuracy    <       0.00000685 Ry

     iteration #  4     ecut=    50.00 Ry     beta= 0.70
     Davidson diagonalization with overlap
     ethr =  7.61E-08,  avg # of iterations =  1.5

     total cpu time spent up to now is        3.0 secs

     total energy              =    -113.00672330 Ry
     Harris-Foulkes estimate   =    -113.00672331 Ry
     estimated scf accuracy    <       0.00000006 Ry

     iteration #  5     ecut=    50.00 Ry     beta= 0.70
     Davidson diagonalization with overlap
     ethr =  6.15E-10,  avg # of iterations =  2.2

     total cpu time spent up to now is        3.3 secs

     End of self-consistent calculation

          k = 0.0000 0.0000 0.0000 (  2899 PWs)   bands (ev):

   -30.1635 -13.6117 -13.6117 -13.6117  -0.2614   6.2649   6.2649   6.2649
     7.1831

          k = 0.0000-0.2500 0.2500 (  2884 PWs)   bands (ev):

   -30.1610 -13.6503 -13.6245 -13.6117   0.5135   4.9042   5.5850   6.8912
     7.0059

          k = 0.0000 0.5000-0.5000 (  2856 PWs)   bands (ev):

   -30.1586 -13.6880 -13.6372 -13.6116   2.3894   2.6488   5.1213   6.8727
     7.9899

          k =-0.2500 0.7500-0.5000 (  2864 PWs)   bands (ev):

   -30.1586 -13.6740 -13.6436 -13.6195   1.9111   3.8322   4.3662   6.7982
     7.0278

          k = 0.0000 0.0000 0.5000 (  2851 PWs)   bands (ev):

   -30.1588 -13.6513 -13.6383 -13.6383   1.2371   4.8184   5.5075   5.5075
     7.0916

          k = 0.0000 0.7500-0.2500 (  2868 PWs)   bands (ev):

   -30.1567 -13.6774 -13.6520 -13.6394   2.9896   3.1115   5.2009   5.3185
     6.7726

          k = 0.5000-0.5000 0.5000 (  2916 PWs)   bands (ev):

   -30.1584 -13.6490 -13.6490 -13.6490   3.4273   3.4273   3.4273   5.1277
     7.7859

          k = 0.0000 0.0000-1.0000 (  2844 PWs)   bands (ev):

   -30.1548 -13.6666 -13.6666 -13.6666   3.5997   3.5997   5.5117   5.5117
     5.5117

     the Fermi energy is     1.9211 ev

!    total energy              =    -113.00672332 Ry
     Harris-Foulkes estimate   =    -113.00672332 Ry
     estimated scf accuracy    <          2.0E-09 Ry

     total all-electron energy =     -1204.245434 Ry

     The total energy is the sum of the following terms:

     one-electron contribution =     -35.39825309 Ry
     hartree contribution      =      18.88070226 Ry
     xc contribution           =     -11.17058501 Ry
     ewald contribution        =     -29.89633978 Ry
     one-center paw contrib.   =     -55.42014353 Ry
     smearing contrib. (-TS)   =      -0.00210416 Ry

     convergence has been achieved in   5 iterations

     Forces acting on atoms (cartesian axes, Ry/au):

     atom    1 type  1   force =     0.00000000    0.00000000    0.00000000

     Total force =     0.000000     Total SCF correction =     0.000000


     Computing stress (Cartesian axis) and pressure

          total   stress  (Ry/bohr**3)                   (kbar)     P=    1.80
   0.00001223   0.00000000  -0.00000000          1.80      0.00     -0.00
   0.00000000   0.00001223   0.00000000          0.00      1.80      0.00
  -0.00000000   0.00000000   0.00001223         -0.00      0.00      1.80


     Writing output data file K.save/

     init_run     :      0.47s CPU      0.51s WALL (       1 calls)
     electrons    :      2.01s CPU      2.09s WALL (       1 calls)
     forces       :      0.07s CPU      0.07s WALL (       1 calls)
     stress       :      0.25s CPU      0.25s WALL (       1 calls)

     Called by init_run:
     wfcinit      :      0.05s CPU      0.06s WALL (       1 calls)
     potinit      :      0.12s CPU      0.14s WALL (       1 calls)
     hinit0       :      0.22s CPU      0.22s WALL (       1 calls)

     Called by electrons:
     c_bands      :      1.05s CPU      1.11s WALL (       6 calls)
     sum_band     :      0.32s CPU      0.33s WALL (       6 calls)
     v_of_rho     :      0.08s CPU      0.08s WALL (       6 calls)
     newd         :      0.14s CPU      0.14s WALL (       6 calls)
     PAW_pot      :      0.54s CPU      0.57s WALL (       6 calls)
     mix_rho      :      0.01s CPU      0.01s WALL (       6 calls)

     Called by c_bands:
     init_us_2    :      0.04s CPU      0.04s WALL (     120 calls)
     cegterg      :      1.00s CPU      1.05s WALL (      48 calls)

     Called by sum_band:
     sum_band:bec :      0.00s CPU      0.00s WALL (      48 calls)
     addusdens    :      0.12s CPU      0.13s WALL (       6 calls)

     Called by *egterg:
     h_psi        :      0.82s CPU      0.87s WALL (     227 calls)
     s_psi        :      0.03s CPU      0.03s WALL (     227 calls)
     g_psi        :      0.00s CPU      0.00s WALL (     171 calls)
     cdiaghg      :      0.05s CPU      0.05s WALL (     211 calls)

     Called by h_psi:
     h_psi:pot    :      0.81s CPU      0.86s WALL (     227 calls)
     h_psi:calbec :      0.05s CPU      0.06s WALL (     227 calls)
     vloc_psi     :      0.73s CPU      0.77s WALL (     227 calls)
     add_vuspsi   :      0.03s CPU      0.03s WALL (     227 calls)

     General routines
     calbec       :      0.08s CPU      0.08s WALL (     315 calls)
     fft          :      0.06s CPU      0.06s WALL (      93 calls)
     ffts         :      0.00s CPU      0.00s WALL (       6 calls)
     fftw         :      0.80s CPU      0.85s WALL (    2932 calls)

     Parallel routines
     fft_scatt_xy :      0.06s CPU      0.07s WALL (    3031 calls)
     fft_scatt_yz :      0.27s CPU      0.29s WALL (    3031 calls)

     PWSCF        :     3.56s CPU         3.71s WALL


   This run was terminated on:   0:34:35   8Apr2024            

=------------------------------------------------------------------------------=
   JOB DONE.
=------------------------------------------------------------------------------=
