
     Program PWSCF v.6.3MaX starts on  8Apr2024 at  1:10: 8 

     This program is part of the open-source Quantum ESPRESSO suite
     for quantum simulation of materials; please cite
         "P. Giannozzi et al., J. Phys.:Condens. Matter 21 395502 (2009);
         "P. Giannozzi et al., J. Phys.:Condens. Matter 29 465901 (2017);
          URL http://www.quantum-espresso.org", 
     in publications or presentations arising from this work. More details at
     http://www.quantum-espresso.org/quote

     Parallel version (MPI), running on     5 processors

     MPI processes distributed on     1 nodes
     R & G space division:  proc/nbgrp/npool/nimage =       5
     Waiting for input...
     Reading input from standard input

     Current dimensions of program PWSCF are:
     Max number of different atomic species (ntypx) = 10
     Max number of k-points (npk) =  40000
     Max angular momentum in pseudopotentials (lmaxx) =  3
               file K.pbe-spn-rrkjus_psl.1.0.0.UPF: wavefunction(s)  3S renormalized

     Subspace diagonalization in iterative solution of the eigenvalue problem:
     a serial algorithm will be used


     Parallelization info
     --------------------
     sticks:   dense  smooth     PW     G-vecs:    dense   smooth      PW
     Min         351     351     96                 9272     9272    1362
     Max         351     351     97                 9273     9273    1365
     Sum        1755    1755    483                46361    46361    6819



     bravais-lattice index     =            3
     lattice parameter (alat)  =       9.8600  a.u.
     unit-cell volume          =     479.2926 (a.u.)^3
     number of atoms/cell      =            1
     number of atomic types    =            1
     number of electrons       =         9.00
     number of Kohn-Sham states=            9
     kinetic-energy cutoff     =      80.0000  Ry
     charge density cutoff     =     320.0000  Ry
     convergence threshold     =      1.0E-08
     mixing beta               =       0.7000
     number of iterations used =            8  plain     mixing
     Exchange-correlation      = PBE ( 1  4  3  4 0 0)

     celldm(1)=   9.860000  celldm(2)=   0.000000  celldm(3)=   0.000000
     celldm(4)=   0.000000  celldm(5)=   0.000000  celldm(6)=   0.000000

     crystal axes: (cart. coord. in units of alat)
               a(1) = (   0.500000   0.500000   0.500000 )  
               a(2) = (  -0.500000   0.500000   0.500000 )  
               a(3) = (  -0.500000  -0.500000   0.500000 )  

     reciprocal axes: (cart. coord. in units 2 pi/alat)
               b(1) = (  1.000000  0.000000  1.000000 )  
               b(2) = ( -1.000000  1.000000  0.000000 )  
               b(3) = (  0.000000 -1.000000  1.000000 )  


     PseudoPot. # 1 for K  read from file:
     /home/lorenzo/pseudos/K/K.pbe-spn-rrkjus_psl.1.0.0.UPF
     MD5 check sum: 897b700350bb708b0563e904352feb48
     Pseudo is Ultrasoft + core correction, Zval =  9.0
     Generated using "atomic" code by A. Dal Corso v.6.2.2
     Using radial grid of 1165 points,  6 beta functions with: 
                l(1) =   0
                l(2) =   0
                l(3) =   1
                l(4) =   1
                l(5) =   2
                l(6) =   2
     Q(r) pseudized with 0 coefficients 


     atomic species   valence    mass     pseudopotential
        K              9.00    39.09830     K ( 1.00)

     48 Sym. Ops., with inversion, found



   Cartesian axes

     site n.     atom                  positions (alat units)
         1           K   tau(   1) = (   0.0000000   0.0000000   0.0000000  )

     number of k points=     4  gaussian smearing, width (Ry)=  0.0100
                       cart. coord. in units 2pi/alat
        k(    1) = (   0.0000000   0.0000000   0.0000000), wk =   0.0740741
        k(    2) = (   0.0000000  -0.3333333   0.3333333), wk =   0.8888889
        k(    3) = (  -0.3333333   0.6666667  -0.3333333), wk =   0.5925926
        k(    4) = (   0.0000000   0.0000000   0.6666667), wk =   0.4444444

     Dense  grid:    46361 G-vectors     FFT dimensions: (  50,  50,  50)

     Estimated max dynamical RAM per process >      37.38 MB

     Estimated total dynamical RAM >     186.89 MB

     Initial potential from superposition of free atoms

     starting charge    8.98117, renormalised to    9.00000
     Starting wfcs are    8 randomized atomic wfcs +    1 random wfcs

     total cpu time spent up to now is        1.2 secs

     Self-consistent Calculation

     iteration #  1     ecut=    80.00 Ry     beta= 0.70
     Davidson diagonalization with overlap
     ethr =  1.00E-02,  avg # of iterations =  6.2

     Threshold (ethr) on eigenvalues was too large:
     Diagonalizing with lowered threshold

     Davidson diagonalization with overlap
     ethr =  1.41E-05,  avg # of iterations =  9.5

     total cpu time spent up to now is        2.1 secs

     total energy              =     -58.78072633 Ry
     Harris-Foulkes estimate   =     -58.78128556 Ry
     estimated scf accuracy    <       0.00127979 Ry

     iteration #  2     ecut=    80.00 Ry     beta= 0.70
     Davidson diagonalization with overlap
     ethr =  1.42E-05,  avg # of iterations =  2.2

     total cpu time spent up to now is        2.5 secs

     total energy              =     -58.78096452 Ry
     Harris-Foulkes estimate   =     -58.78096929 Ry
     estimated scf accuracy    <       0.00010148 Ry

     iteration #  3     ecut=    80.00 Ry     beta= 0.70
     Davidson diagonalization with overlap
     ethr =  1.13E-06,  avg # of iterations =  1.2

     total cpu time spent up to now is        2.8 secs

     total energy              =     -58.78097431 Ry
     Harris-Foulkes estimate   =     -58.78097186 Ry
     estimated scf accuracy    <       0.00000682 Ry

     iteration #  4     ecut=    80.00 Ry     beta= 0.70
     Davidson diagonalization with overlap
     ethr =  7.58E-08,  avg # of iterations =  1.8

     total cpu time spent up to now is        3.1 secs

     total energy              =     -58.78097488 Ry
     Harris-Foulkes estimate   =     -58.78097487 Ry
     estimated scf accuracy    <       0.00000005 Ry

     iteration #  5     ecut=    80.00 Ry     beta= 0.70
     Davidson diagonalization with overlap
     ethr =  5.86E-10,  avg # of iterations =  2.5

     total cpu time spent up to now is        3.4 secs

     End of self-consistent calculation

          k = 0.0000 0.0000 0.0000 (  5775 PWs)   bands (ev):

   -30.1678 -13.6159 -13.6159 -13.6159  -0.2615   6.2619   6.2619   6.2619
     7.1812

          k = 0.0000-0.3333 0.3333 (  5786 PWs)   bands (ev):

   -30.1642 -13.6735 -13.6352 -13.6159   1.0774   4.1197   5.3345   7.0327
     7.2489

          k =-0.3333 0.6667-0.3333 (  5825 PWs)   bands (ev):

   -30.1624 -13.6685 -13.6685 -13.6255   3.1571   3.1571   3.5769   6.5936
     7.3424

          k = 0.0000 0.0000 0.6667 (  5778 PWs)   bands (ev):

   -30.1611 -13.6662 -13.6565 -13.6565   2.2387   4.1501   5.4261   5.4261
     6.0566

     the Fermi energy is     2.1056 ev

!    total energy              =     -58.78097490 Ry
     Harris-Foulkes estimate   =     -58.78097490 Ry
     estimated scf accuracy    <          2.6E-09 Ry

     The total energy is the sum of the following terms:

     one-electron contribution =     -36.59399956 Ry
     hartree contribution      =      18.87915425 Ry
     xc contribution           =     -11.16930808 Ry
     ewald contribution        =     -29.89633970 Ry
     smearing contrib. (-TS)   =      -0.00048182 Ry

     convergence has been achieved in   5 iterations

     Forces acting on atoms (cartesian axes, Ry/au):

     atom    1 type  1   force =     0.00000000    0.00000000    0.00000000

     Total force =     0.000000     Total SCF correction =     0.000000


     Computing stress (Cartesian axis) and pressure

          total   stress  (Ry/bohr**3)                   (kbar)     P=    0.12
   0.00000079  -0.00000000   0.00000000          0.12     -0.00      0.00
  -0.00000000   0.00000079  -0.00000000         -0.00      0.12     -0.00
   0.00000000  -0.00000000   0.00000079          0.00     -0.00      0.12


     Writing output data file K.save/

     init_run     :      0.43s CPU      0.45s WALL (       1 calls)
     electrons    :      2.10s CPU      2.19s WALL (       1 calls)
     forces       :      0.14s CPU      0.14s WALL (       1 calls)
     stress       :      0.46s CPU      0.46s WALL (       1 calls)

     Called by init_run:
     wfcinit      :      0.05s CPU      0.06s WALL (       1 calls)
     potinit      :      0.04s CPU      0.04s WALL (       1 calls)
     hinit0       :      0.22s CPU      0.23s WALL (       1 calls)

     Called by electrons:
     c_bands      :      1.20s CPU      1.25s WALL (       6 calls)
     sum_band     :      0.51s CPU      0.53s WALL (       6 calls)
     v_of_rho     :      0.16s CPU      0.17s WALL (       6 calls)
     newd         :      0.28s CPU      0.29s WALL (       6 calls)
     mix_rho      :      0.01s CPU      0.01s WALL (       6 calls)

     Called by c_bands:
     init_us_2    :      0.05s CPU      0.05s WALL (      60 calls)
     cegterg      :      1.14s CPU      1.19s WALL (      24 calls)

     Called by sum_band:
     sum_band:bec :      0.00s CPU      0.00s WALL (      24 calls)
     addusdens    :      0.26s CPU      0.26s WALL (       6 calls)

     Called by *egterg:
     h_psi        :      0.95s CPU      1.00s WALL (     122 calls)
     s_psi        :      0.03s CPU      0.03s WALL (     122 calls)
     g_psi        :      0.00s CPU      0.00s WALL (      94 calls)
     cdiaghg      :      0.03s CPU      0.03s WALL (     114 calls)

     Called by h_psi:
     h_psi:pot    :      0.95s CPU      0.99s WALL (     122 calls)
     h_psi:calbec :      0.05s CPU      0.06s WALL (     122 calls)
     vloc_psi     :      0.86s CPU      0.90s WALL (     122 calls)
     add_vuspsi   :      0.03s CPU      0.03s WALL (     122 calls)

     General routines
     calbec       :      0.08s CPU      0.08s WALL (     166 calls)
     fft          :      0.12s CPU      0.13s WALL (      93 calls)
     ffts         :      0.01s CPU      0.01s WALL (       6 calls)
     fftw         :      0.93s CPU      0.98s WALL (    1516 calls)

     Parallel routines
     fft_scatt_xy :      0.08s CPU      0.09s WALL (    1615 calls)
     fft_scatt_yz :      0.27s CPU      0.29s WALL (    1615 calls)

     PWSCF        :     3.92s CPU         4.08s WALL


   This run was terminated on:   1:10:12   8Apr2024            

=------------------------------------------------------------------------------=
   JOB DONE.
=------------------------------------------------------------------------------=
