
     Program PWSCF v.6.3MaX starts on  8Apr2024 at  0:35: 6 

     This program is part of the open-source Quantum ESPRESSO suite
     for quantum simulation of materials; please cite
         "P. Giannozzi et al., J. Phys.:Condens. Matter 21 395502 (2009);
         "P. Giannozzi et al., J. Phys.:Condens. Matter 29 465901 (2017);
          URL http://www.quantum-espresso.org", 
     in publications or presentations arising from this work. More details at
     http://www.quantum-espresso.org/quote

     Parallel version (MPI), running on     5 processors

     MPI processes distributed on     1 nodes
     R & G space division:  proc/nbgrp/npool/nimage =       5
     Waiting for input...
     Reading input from standard input

     Current dimensions of program PWSCF are:
     Max number of different atomic species (ntypx) = 10
     Max number of k-points (npk) =  40000
     Max angular momentum in pseudopotentials (lmaxx) =  3
               file K.pbe-spn-rrkjus_psl.1.0.0.UPF: wavefunction(s)  3S renormalized

     Subspace diagonalization in iterative solution of the eigenvalue problem:
     a serial algorithm will be used


     Parallelization info
     --------------------
     sticks:   dense  smooth     PW     G-vecs:    dense   smooth      PW
     Min         221     221     66                 4575     4575     756
     Max         221     221     67                 4576     4576     757
     Sum        1105    1105    333                22879    22879    3781



     bravais-lattice index     =            3
     lattice parameter (alat)  =       9.8600  a.u.
     unit-cell volume          =     479.2926 (a.u.)^3
     number of atoms/cell      =            1
     number of atomic types    =            1
     number of electrons       =         9.00
     number of Kohn-Sham states=            9
     kinetic-energy cutoff     =      50.0000  Ry
     charge density cutoff     =     200.0000  Ry
     convergence threshold     =      1.0E-08
     mixing beta               =       0.7000
     number of iterations used =            8  plain     mixing
     Exchange-correlation      = PBE ( 1  4  3  4 0 0)

     celldm(1)=   9.860000  celldm(2)=   0.000000  celldm(3)=   0.000000
     celldm(4)=   0.000000  celldm(5)=   0.000000  celldm(6)=   0.000000

     crystal axes: (cart. coord. in units of alat)
               a(1) = (   0.500000   0.500000   0.500000 )  
               a(2) = (  -0.500000   0.500000   0.500000 )  
               a(3) = (  -0.500000  -0.500000   0.500000 )  

     reciprocal axes: (cart. coord. in units 2 pi/alat)
               b(1) = (  1.000000  0.000000  1.000000 )  
               b(2) = ( -1.000000  1.000000  0.000000 )  
               b(3) = (  0.000000 -1.000000  1.000000 )  


     PseudoPot. # 1 for K  read from file:
     /home/lorenzo/pseudos/K/K.pbe-spn-rrkjus_psl.1.0.0.UPF
     MD5 check sum: 897b700350bb708b0563e904352feb48
     Pseudo is Ultrasoft + core correction, Zval =  9.0
     Generated using "atomic" code by A. Dal Corso v.6.2.2
     Using radial grid of 1165 points,  6 beta functions with: 
                l(1) =   0
                l(2) =   0
                l(3) =   1
                l(4) =   1
                l(5) =   2
                l(6) =   2
     Q(r) pseudized with 0 coefficients 


     atomic species   valence    mass     pseudopotential
        K              9.00    39.09830     K ( 1.00)

     48 Sym. Ops., with inversion, found



   Cartesian axes

     site n.     atom                  positions (alat units)
         1           K   tau(   1) = (   0.0000000   0.0000000   0.0000000  )

     number of k points=    16  gaussian smearing, width (Ry)=  0.0100
                       cart. coord. in units 2pi/alat
        k(    1) = (   0.0000000   0.0000000   0.0000000), wk =   0.0092593
        k(    2) = (   0.0000000  -0.1666667   0.1666667), wk =   0.1111111
        k(    3) = (   0.0000000  -0.3333333   0.3333333), wk =   0.1111111
        k(    4) = (   0.0000000   0.5000000  -0.5000000), wk =   0.0555556
        k(    5) = (  -0.1666667  -0.1666667   0.3333333), wk =   0.2222222
        k(    6) = (  -0.1666667   0.6666667  -0.5000000), wk =   0.4444444
        k(    7) = (  -0.3333333   0.6666667  -0.3333333), wk =   0.0740741
        k(    8) = (   0.0000000   0.0000000   0.3333333), wk =   0.0555556
        k(    9) = (   0.0000000  -0.1666667   0.5000000), wk =   0.2222222
        k(   10) = (   0.0000000   0.6666667  -0.3333333), wk =   0.1111111
        k(   11) = (  -0.1666667   0.8333333  -0.3333333), wk =   0.2222222
        k(   12) = (   0.6666667  -0.6666667   0.3333333), wk =   0.0740741
        k(   13) = (   0.5000000  -0.5000000   0.3333333), wk =   0.1111111
        k(   14) = (   0.0000000   0.0000000   0.6666667), wk =   0.0555556
        k(   15) = (   0.0000000   0.8333333  -0.1666667), wk =   0.1111111
        k(   16) = (   0.0000000   0.0000000  -1.0000000), wk =   0.0092593

     Dense  grid:    22879 G-vectors     FFT dimensions: (  40,  40,  40)

     Estimated max dynamical RAM per process >      20.09 MB

     Estimated total dynamical RAM >     100.45 MB

     Check: negative/imaginary core charge=   -0.000006    0.000000

     Initial potential from superposition of free atoms

     starting charge    8.98117, renormalised to    9.00000
     Starting wfcs are    8 randomized atomic wfcs +    1 random wfcs

     total cpu time spent up to now is        1.2 secs

     Self-consistent Calculation

     iteration #  1     ecut=    50.00 Ry     beta= 0.70
     Davidson diagonalization with overlap
     ethr =  1.00E-02,  avg # of iterations =  6.7

     Threshold (ethr) on eigenvalues was too large:
     Diagonalizing with lowered threshold

     Davidson diagonalization with overlap
     ethr =  1.42E-05,  avg # of iterations =  6.4

     total cpu time spent up to now is        2.7 secs

     total energy              =     -58.77231006 Ry
     Harris-Foulkes estimate   =     -58.77283132 Ry
     estimated scf accuracy    <       0.00126621 Ry

     iteration #  2     ecut=    50.00 Ry     beta= 0.70
     Davidson diagonalization with overlap
     ethr =  1.41E-05,  avg # of iterations =  2.1

     total cpu time spent up to now is        3.3 secs

     total energy              =     -58.77254150 Ry
     Harris-Foulkes estimate   =     -58.77254374 Ry
     estimated scf accuracy    <       0.00010024 Ry

     iteration #  3     ecut=    50.00 Ry     beta= 0.70
     Davidson diagonalization with overlap
     ethr =  1.11E-06,  avg # of iterations =  2.4

     total cpu time spent up to now is        3.8 secs

     total energy              =     -58.77255142 Ry
     Harris-Foulkes estimate   =     -58.77254879 Ry
     estimated scf accuracy    <       0.00000678 Ry

     iteration #  4     ecut=    50.00 Ry     beta= 0.70
     Davidson diagonalization with overlap
     ethr =  7.53E-08,  avg # of iterations =  1.5

     total cpu time spent up to now is        4.4 secs

     total energy              =     -58.77255196 Ry
     Harris-Foulkes estimate   =     -58.77255195 Ry
     estimated scf accuracy    <       0.00000005 Ry

     iteration #  5     ecut=    50.00 Ry     beta= 0.70
     Davidson diagonalization with overlap
     ethr =  5.60E-10,  avg # of iterations =  2.8

     total cpu time spent up to now is        5.0 secs

     End of self-consistent calculation

          k = 0.0000 0.0000 0.0000 (  2899 PWs)   bands (ev):

   -30.1636 -13.6119 -13.6119 -13.6119  -0.2609   6.2645   6.2645   7.1833
     7.1837

          k = 0.0000-0.1667 0.1667 (  2884 PWs)   bands (ev):

   -30.1624 -13.6313 -13.6183 -13.6119   0.0904   5.6338   5.8825   6.5466
     6.9381

          k = 0.0000-0.3333 0.3333 (  2870 PWs)   bands (ev):

   -30.1599 -13.6694 -13.6311 -13.6119   1.0780   4.1207   5.3365   7.0352
     7.2510

          k = 0.0000 0.5000-0.5000 (  2856 PWs)   bands (ev):

   -30.1587 -13.6883 -13.6375 -13.6118   2.3897   2.6495   5.1212   6.8728
     7.7046

          k =-0.1667-0.1667 0.3333 (  2854 PWs)   bands (ev):

   -30.1605 -13.6572 -13.6263 -13.6163   0.7616   4.7946   5.1899   6.8197
     6.9399

          k =-0.1667 0.6667-0.5000 (  2872 PWs)   bands (ev):

   -30.1587 -13.6786 -13.6413 -13.6179   1.9780   3.4689   4.6904   6.6789
     7.3343

          k =-0.3333 0.6667-0.3333 (  2868 PWs)   bands (ev):

   -30.1581 -13.6645 -13.6645 -13.6215   3.1578   3.1578   3.5780   6.5954
     7.3452

          k = 0.0000 0.0000 0.3333 (  2875 PWs)   bands (ev):

   -30.1612 -13.6348 -13.6250 -13.6250   0.4316   5.7007   5.7512   5.7512
     6.6694

          k = 0.0000-0.1667 0.5000 (  2856 PWs)   bands (ev):

   -30.1589 -13.6660 -13.6382 -13.6265   1.3902   4.2605   5.3884   5.8643
     7.2786

          k = 0.0000 0.6667-0.3333 (  2834 PWs)   bands (ev):

   -30.1577 -13.6829 -13.6448 -13.6257   2.7380   2.8030   5.2200   5.7084
     7.2757

          k =-0.1667 0.8333-0.3333 (  2852 PWs)   bands (ev):

   -30.1573 -13.6735 -13.6564 -13.6315   2.5138   3.6529   4.4038   6.2375
     6.7217

          k = 0.6667-0.6667 0.3333 (  2878 PWs)   bands (ev):

   -30.1592 -13.6721 -13.6289 -13.6289   1.6968   4.2257   4.2257   6.4108
     7.5593

          k = 0.5000-0.5000 0.3333 (  2866 PWs)   bands (ev):

   -30.1585 -13.6684 -13.6462 -13.6302   2.9900   3.0449   4.0389   5.7325
     7.6679

          k = 0.0000 0.0000 0.6667 (  2855 PWs)   bands (ev):

   -30.1569 -13.6621 -13.6524 -13.6524   2.2393   4.1509   5.4277   5.4277
     6.0580

          k = 0.0000 0.8333-0.1667 (  2846 PWs)   bands (ev):

   -30.1559 -13.6722 -13.6595 -13.6532   3.2343   3.4584   5.0197   5.4160
     6.2014

          k = 0.0000 0.0000-1.0000 (  2844 PWs)   bands (ev):

   -30.1549 -13.6668 -13.6668 -13.6668   3.6008   3.6008   5.5116   5.5116
     5.5116

     the Fermi energy is     1.9630 ev

!    total energy              =     -58.77255197 Ry
     Harris-Foulkes estimate   =     -58.77255197 Ry
     estimated scf accuracy    <          1.6E-09 Ry

     The total energy is the sum of the following terms:

     one-electron contribution =     -36.58537233 Ry
     hartree contribution      =      18.88076244 Ry
     xc contribution           =     -11.17035676 Ry
     ewald contribution        =     -29.89633978 Ry
     smearing contrib. (-TS)   =      -0.00124554 Ry

     convergence has been achieved in   5 iterations

     Forces acting on atoms (cartesian axes, Ry/au):

     atom    1 type  1   force =     0.00000000    0.00000000    0.00000000

     Total force =     0.000000     Total SCF correction =     0.000000


     Computing stress (Cartesian axis) and pressure

          total   stress  (Ry/bohr**3)                   (kbar)     P=    1.13
   0.00000767   0.00000000  -0.00000000          1.13      0.00     -0.00
  -0.00000000   0.00000767   0.00000000         -0.00      1.13      0.00
  -0.00000000   0.00000000   0.00000767         -0.00      0.00      1.13


     Writing output data file K.save/

     init_run     :      0.39s CPU      0.40s WALL (       1 calls)
     electrons    :      3.62s CPU      3.80s WALL (       1 calls)
     forces       :      0.11s CPU      0.12s WALL (       1 calls)
     stress       :      0.38s CPU      0.38s WALL (       1 calls)

     Called by init_run:
     wfcinit      :      0.14s CPU      0.14s WALL (       1 calls)
     potinit      :      0.02s CPU      0.02s WALL (       1 calls)
     hinit0       :      0.19s CPU      0.19s WALL (       1 calls)

     Called by electrons:
     c_bands      :      2.81s CPU      2.96s WALL (       6 calls)
     sum_band     :      0.58s CPU      0.61s WALL (       6 calls)
     v_of_rho     :      0.08s CPU      0.08s WALL (       6 calls)
     newd         :      0.17s CPU      0.17s WALL (       6 calls)
     mix_rho      :      0.01s CPU      0.01s WALL (       6 calls)

     Called by c_bands:
     init_us_2    :      0.10s CPU      0.11s WALL (     240 calls)
     cegterg      :      2.67s CPU      2.81s WALL (      96 calls)

     Called by sum_band:
     sum_band:bec :      0.00s CPU      0.00s WALL (      96 calls)
     addusdens    :      0.14s CPU      0.14s WALL (       6 calls)

     Called by *egterg:
     h_psi        :      2.18s CPU      2.31s WALL (     462 calls)
     s_psi        :      0.06s CPU      0.06s WALL (     462 calls)
     g_psi        :      0.01s CPU      0.01s WALL (     350 calls)
     cdiaghg      :      0.13s CPU      0.13s WALL (     430 calls)

     Called by h_psi:
     h_psi:pot    :      2.17s CPU      2.30s WALL (     462 calls)
     h_psi:calbec :      0.13s CPU      0.14s WALL (     462 calls)
     vloc_psi     :      1.96s CPU      2.08s WALL (     462 calls)
     add_vuspsi   :      0.07s CPU      0.07s WALL (     462 calls)

     General routines
     calbec       :      0.22s CPU      0.23s WALL (     638 calls)
     fft          :      0.05s CPU      0.05s WALL (      93 calls)
     ffts         :      0.00s CPU      0.00s WALL (       6 calls)
     fftw         :      2.14s CPU      2.27s WALL (    5902 calls)

     Parallel routines
     fft_scatt_xy :      0.14s CPU      0.15s WALL (    6001 calls)
     fft_scatt_yz :      0.87s CPU      0.92s WALL (    6001 calls)

     PWSCF        :     5.34s CPU         5.62s WALL


   This run was terminated on:   0:35:12   8Apr2024            

=------------------------------------------------------------------------------=
   JOB DONE.
=------------------------------------------------------------------------------=
