
     Program PWSCF v.6.3MaX starts on  8Apr2024 at  0: 1:16 

     This program is part of the open-source Quantum ESPRESSO suite
     for quantum simulation of materials; please cite
         "P. Giannozzi et al., J. Phys.:Condens. Matter 21 395502 (2009);
         "P. Giannozzi et al., J. Phys.:Condens. Matter 29 465901 (2017);
          URL http://www.quantum-espresso.org", 
     in publications or presentations arising from this work. More details at
     http://www.quantum-espresso.org/quote

     Parallel version (MPI), running on     5 processors

     MPI processes distributed on     1 nodes
     R & G space division:  proc/nbgrp/npool/nimage =       5
     Waiting for input...
     Reading input from standard input

     Current dimensions of program PWSCF are:
     Max number of different atomic species (ntypx) = 10
     Max number of k-points (npk) =  40000
     Max angular momentum in pseudopotentials (lmaxx) =  3
               file K.pbe-spn-kjpaw_psl.1.0.0.UPF: wavefunction(s)  3S renormalized

     Subspace diagonalization in iterative solution of the eigenvalue problem:
     a serial algorithm will be used


     Parallelization info
     --------------------
     sticks:   dense  smooth     PW     G-vecs:    dense   smooth      PW
     Min         438     438    123                12915    12915    1937
     Max         439     439    124                12916    12916    1939
     Sum        2191    2191    619                64579    64579    9693



     bravais-lattice index     =            3
     lattice parameter (alat)  =       9.8600  a.u.
     unit-cell volume          =     479.2926 (a.u.)^3
     number of atoms/cell      =            1
     number of atomic types    =            1
     number of electrons       =         9.00
     number of Kohn-Sham states=            9
     kinetic-energy cutoff     =     100.0000  Ry
     charge density cutoff     =     400.0000  Ry
     convergence threshold     =      1.0E-08
     mixing beta               =       0.7000
     number of iterations used =            8  plain     mixing
     Exchange-correlation      = SLA PW PBX PBC ( 1  4  3  4 0 0)

     celldm(1)=   9.860000  celldm(2)=   0.000000  celldm(3)=   0.000000
     celldm(4)=   0.000000  celldm(5)=   0.000000  celldm(6)=   0.000000

     crystal axes: (cart. coord. in units of alat)
               a(1) = (   0.500000   0.500000   0.500000 )  
               a(2) = (  -0.500000   0.500000   0.500000 )  
               a(3) = (  -0.500000  -0.500000   0.500000 )  

     reciprocal axes: (cart. coord. in units 2 pi/alat)
               b(1) = (  1.000000  0.000000  1.000000 )  
               b(2) = ( -1.000000  1.000000  0.000000 )  
               b(3) = (  0.000000 -1.000000  1.000000 )  


     PseudoPot. # 1 for K  read from file:
     /home/lorenzo/pseudos/K/K.pbe-spn-kjpaw_psl.1.0.0.UPF
     MD5 check sum: 34cc42130a09071ebe376fd42eb21491
     Pseudo is Projector augmented-wave + core cor, Zval =  9.0
     Generated using "atomic" code by A. Dal Corso v.6.2.2
     Shape of augmentation charge: PSQ
     Using radial grid of 1165 points,  6 beta functions with: 
                l(1) =   0
                l(2) =   0
                l(3) =   1
                l(4) =   1
                l(5) =   2
                l(6) =   2
     Q(r) pseudized with 0 coefficients 


     atomic species   valence    mass     pseudopotential
        K              9.00    39.09830     K ( 1.00)

     48 Sym. Ops., with inversion, found



   Cartesian axes

     site n.     atom                  positions (alat units)
         1           K   tau(   1) = (   0.0000000   0.0000000   0.0000000  )

     number of k points=    56  gaussian smearing, width (Ry)=  0.0100
                       cart. coord. in units 2pi/alat
        k(    1) = (   0.0000000   0.0000000   0.0000000), wk =   0.0015026
        k(    2) = (   0.0000000  -0.0909091   0.0909091), wk =   0.0180316
        k(    3) = (   0.0000000  -0.1818182   0.1818182), wk =   0.0180316
        k(    4) = (   0.0000000  -0.2727273   0.2727273), wk =   0.0180316
        k(    5) = (   0.0000000  -0.3636364   0.3636364), wk =   0.0180316
        k(    6) = (   0.0000000  -0.4545455   0.4545455), wk =   0.0180316
        k(    7) = (  -0.0909091  -0.0909091   0.1818182), wk =   0.0360631
        k(    8) = (  -0.0909091  -0.1818182   0.2727273), wk =   0.0721262
        k(    9) = (  -0.0909091  -0.2727273   0.3636364), wk =   0.0721262
        k(   10) = (  -0.0909091  -0.3636364   0.4545455), wk =   0.0721262
        k(   11) = (  -0.0909091   0.5454545  -0.4545455), wk =   0.0360631
        k(   12) = (  -0.1818182  -0.1818182   0.3636364), wk =   0.0360631
        k(   13) = (  -0.1818182  -0.2727273   0.4545455), wk =   0.0721262
        k(   14) = (  -0.1818182   0.6363636  -0.4545455), wk =   0.0721262
        k(   15) = (  -0.2727273   0.7272727  -0.4545455), wk =   0.0360631
        k(   16) = (  -0.2727273   0.6363636  -0.3636364), wk =   0.0360631
        k(   17) = (   0.0000000   0.0000000   0.1818182), wk =   0.0090158
        k(   18) = (   0.0000000  -0.0909091   0.2727273), wk =   0.0360631
        k(   19) = (   0.0000000  -0.1818182   0.3636364), wk =   0.0360631
        k(   20) = (   0.0000000  -0.2727273   0.4545455), wk =   0.0360631
        k(   21) = (   0.0000000  -0.3636364   0.5454545), wk =   0.0360631
        k(   22) = (  -0.0909091  -0.0909091   0.3636364), wk =   0.0360631
        k(   23) = (  -0.0909091  -0.1818182   0.4545455), wk =   0.0721262
        k(   24) = (  -0.0909091  -0.2727273   0.5454545), wk =   0.0721262
        k(   25) = (  -0.0909091   0.6363636  -0.3636364), wk =   0.0360631
        k(   26) = (  -0.1818182   0.1818182   0.1818182), wk =   0.0120210
        k(   27) = (  -0.1818182  -0.1818182   0.5454545), wk =   0.0360631
        k(   28) = (  -0.1818182   0.7272727  -0.3636364), wk =   0.0721262
        k(   29) = (  -0.2727273   0.2727273   0.1818182), wk =   0.0360631
        k(   30) = (  -0.2727273   0.7272727  -0.2727273), wk =   0.0120210
        k(   31) = (  -0.3636364   0.3636364   0.1818182), wk =   0.0360631
        k(   32) = (  -0.3636364   0.2727273   0.2727273), wk =   0.0360631
        k(   33) = (   0.5454545  -0.5454545   0.1818182), wk =   0.0360631
        k(   34) = (   0.5454545  -0.6363636   0.2727273), wk =   0.0721262
        k(   35) = (   0.4545455  -0.5454545   0.2727273), wk =   0.0360631
        k(   36) = (   0.4545455  -0.6363636   0.3636364), wk =   0.0360631
        k(   37) = (   0.0000000   0.0000000   0.3636364), wk =   0.0090158
        k(   38) = (   0.0000000  -0.0909091   0.4545455), wk =   0.0360631
        k(   39) = (   0.0000000  -0.1818182   0.5454545), wk =   0.0360631
        k(   40) = (   0.0000000  -0.2727273   0.6363636), wk =   0.0360631
        k(   41) = (  -0.0909091  -0.0909091   0.5454545), wk =   0.0360631
        k(   42) = (  -0.0909091  -0.1818182   0.6363636), wk =   0.0721262
        k(   43) = (  -0.0909091   0.7272727  -0.2727273), wk =   0.0360631
        k(   44) = (  -0.1818182   0.8181818  -0.2727273), wk =   0.0360631
        k(   45) = (   0.6363636  -0.6363636   0.3636364), wk =   0.0120210
        k(   46) = (   0.5454545  -0.5454545   0.3636364), wk =   0.0360631
        k(   47) = (   0.4545455  -0.5454545   0.4545455), wk =   0.0120210
        k(   48) = (   0.0000000   0.0000000   0.5454545), wk =   0.0090158
        k(   49) = (   0.0000000  -0.0909091   0.6363636), wk =   0.0360631
        k(   50) = (   0.0000000  -0.1818182   0.7272727), wk =   0.0360631
        k(   51) = (  -0.0909091  -0.0909091   0.7272727), wk =   0.0360631
        k(   52) = (  -0.0909091   0.8181818  -0.1818182), wk =   0.0360631
        k(   53) = (   0.0000000   0.0000000   0.7272727), wk =   0.0090158
        k(   54) = (   0.0000000  -0.0909091   0.8181818), wk =   0.0360631
        k(   55) = (  -0.0909091   0.9090909  -0.0909091), wk =   0.0120210
        k(   56) = (   0.0000000   0.0000000   0.9090909), wk =   0.0090158

     Dense  grid:    64579 G-vectors     FFT dimensions: (  60,  60,  60)

     Estimated max dynamical RAM per process >      63.58 MB

     Estimated total dynamical RAM >     317.89 MB

     Check: negative/imaginary core charge=   -0.000001    0.000000

     Initial potential from superposition of free atoms

     starting charge    8.98117, renormalised to    9.00000
     Starting wfcs are    8 randomized atomic wfcs +    1 random wfcs
     Checking if some PAW data can be deallocated... 

     total cpu time spent up to now is        3.2 secs

     Self-consistent Calculation

     iteration #  1     ecut=   100.00 Ry     beta= 0.70
     Davidson diagonalization with overlap
     ethr =  1.00E-02,  avg # of iterations =  6.7

     Threshold (ethr) on eigenvalues was too large:
     Diagonalizing with lowered threshold

     Davidson diagonalization with overlap
     ethr =  1.42E-05,  avg # of iterations =  6.0

     total cpu time spent up to now is       17.2 secs

     total energy              =    -113.01125070 Ry
     Harris-Foulkes estimate   =    -113.01177060 Ry
     estimated scf accuracy    <       0.00125796 Ry

     iteration #  2     ecut=   100.00 Ry     beta= 0.70
     Davidson diagonalization with overlap
     ethr =  1.40E-05,  avg # of iterations =  2.3

     total cpu time spent up to now is       21.8 secs

     total energy              =    -113.01147348 Ry
     Harris-Foulkes estimate   =    -113.01148326 Ry
     estimated scf accuracy    <       0.00010135 Ry

     iteration #  3     ecut=   100.00 Ry     beta= 0.70
     Davidson diagonalization with overlap
     ethr =  1.13E-06,  avg # of iterations =  2.6

     total cpu time spent up to now is       25.9 secs

     total energy              =    -113.01148557 Ry
     Harris-Foulkes estimate   =    -113.01148331 Ry
     estimated scf accuracy    <       0.00000689 Ry

     iteration #  4     ecut=   100.00 Ry     beta= 0.70
     Davidson diagonalization with overlap
     ethr =  7.66E-08,  avg # of iterations =  1.7

     total cpu time spent up to now is       29.6 secs

     total energy              =    -113.01148632 Ry
     Harris-Foulkes estimate   =    -113.01148632 Ry
     estimated scf accuracy    <       0.00000005 Ry

     iteration #  5     ecut=   100.00 Ry     beta= 0.70
     Davidson diagonalization with overlap
     ethr =  5.96E-10,  avg # of iterations =  2.7

     total cpu time spent up to now is       33.9 secs

     End of self-consistent calculation

          k = 0.0000 0.0000 0.0000 (  8151 PWs)   bands (ev):

   -30.1659 -13.6140 -13.6140 -13.6140  -0.2616   6.2633   6.2633   7.1812
     7.1813

          k = 0.0000-0.0909 0.0909 (  8111 PWs)   bands (ev):

   -30.1655 -13.6202 -13.6161 -13.6140  -0.1559   6.1055   6.1290   6.3478
     7.0065

          k = 0.0000-0.1818 0.1818 (  8118 PWs)   bands (ev):

   -30.1645 -13.6367 -13.6215 -13.6140   0.1552   5.5091   5.8264   6.5982
     6.9428

          k = 0.0000-0.2727 0.2727 (  8104 PWs)   bands (ev):

   -30.1631 -13.6580 -13.6287 -13.6140   0.6542   4.6922   5.5089   7.0054
     7.0233

          k = 0.0000-0.3636 0.3636 (  8088 PWs)   bands (ev):

   -30.1619 -13.6775 -13.6353 -13.6140   1.3117   3.8307   5.2657   7.0094
     7.3154

          k = 0.0000-0.4545 0.4545 (  8094 PWs)   bands (ev):

   -30.1612 -13.6889 -13.6392 -13.6140   2.0794   2.9695   5.1366   6.8934
     7.5948

          k =-0.0909-0.0909 0.1818 (  8106 PWs)   bands (ev):

   -30.1648 -13.6316 -13.6183 -13.6155   0.0526   5.7672   5.8615   6.5069
     6.8342

          k =-0.0909-0.1818 0.2727 (  8107 PWs)   bands (ev):

   -30.1636 -13.6496 -13.6248 -13.6161   0.4580   5.0936   5.5119   6.7959
     6.8301

          k =-0.0909-0.2727 0.3636 (  8104 PWs)   bands (ev):

   -30.1623 -13.6687 -13.6328 -13.6163   1.0375   4.2846   5.2269   6.8602
     7.2081

          k =-0.0909-0.3636 0.4545 (  8110 PWs)   bands (ev):

   -30.1613 -13.6831 -13.6390 -13.6163   1.7552   3.4395   5.0432   6.7800
     7.5100

          k =-0.0909 0.5455-0.4545 (  8087 PWs)   bands (ev):

   -30.1610 -13.6884 -13.6414 -13.6163   2.4700   2.6850   4.9801   6.6992
     7.6764

          k =-0.1818-0.1818 0.3636 (  8112 PWs)   bands (ev):

   -30.1625 -13.6642 -13.6312 -13.6191   0.9448   4.6008   5.0471   6.8423
     6.9953

          k =-0.1818-0.2727 0.4545 (  8090 PWs)   bands (ev):

   -30.1614 -13.6757 -13.6403 -13.6203   1.5879   3.9404   4.7129   6.8056
     7.1247

          k =-0.1818 0.6364-0.4545 (  8088 PWs)   bands (ev):

   -30.1608 -13.6818 -13.6467 -13.6207   2.3440   3.1596   4.5540   6.6061
     7.4095

          k =-0.2727 0.7273-0.4545 (  8084 PWs)   bands (ev):

   -30.1608 -13.6762 -13.6515 -13.6226   2.2706   3.6178   4.1195   6.6916
     7.1073

          k =-0.2727 0.6364-0.3636 (  8090 PWs)   bands (ev):

   -30.1605 -13.6736 -13.6587 -13.6233   2.9847   3.0511   3.8830   6.5916
     7.2983

          k = 0.0000 0.0000 0.1818 (  8091 PWs)   bands (ev):

   -30.1652 -13.6220 -13.6181 -13.6181  -0.0511   6.0547   6.0547   6.3868
     6.5729

          k = 0.0000-0.0909 0.2727 (  8106 PWs)   bands (ev):

   -30.1641 -13.6368 -13.6237 -13.6191   0.2574   5.5412   5.8040   6.3585
     6.6108

          k = 0.0000-0.1818 0.3636 (  8117 PWs)   bands (ev):

   -30.1628 -13.6574 -13.6309 -13.6189   0.7521   4.7296   5.5155   6.4028
     7.0072

          k = 0.0000-0.2727 0.4545 (  8108 PWs)   bands (ev):

   -30.1616 -13.6762 -13.6376 -13.6186   1.4042   3.8833   5.2887   6.4113
     7.5148

          k = 0.0000-0.3636 0.5455 (  8107 PWs)   bands (ev):

   -30.1609 -13.6873 -13.6415 -13.6184   2.1687   3.0322   5.1671   6.3361
     7.5523

          k =-0.0909-0.0909 0.3636 (  8113 PWs)   bands (ev):

   -30.1630 -13.6507 -13.6299 -13.6226   0.6556   5.0510   5.4865   6.2357
     6.8661

          k =-0.0909-0.1818 0.4545 (  8114 PWs)   bands (ev):

   -30.1617 -13.6675 -13.6380 -13.6233   1.2249   4.3442   5.1717   6.2994
     7.1840

          k =-0.0909-0.2727 0.5455 (  8088 PWs)   bands (ev):

   -30.1608 -13.6804 -13.6445 -13.6232   1.9306   3.5525   4.9658   6.2595
     7.3008

          k =-0.0909 0.6364-0.3636 (  8089 PWs)   bands (ev):

   -30.1604 -13.6852 -13.6470 -13.6231   2.6779   2.7772   4.8928   6.1977
     7.4181

          k =-0.1818 0.1818 0.1818 (  8103 PWs)   bands (ev):

   -30.1639 -13.6472 -13.6186 -13.6186   0.3582   5.3657   5.3657   6.7252
     7.1431

          k =-0.1818-0.1818 0.5455 (  8086 PWs)   bands (ev):

   -30.1607 -13.6750 -13.6481 -13.6253   1.8490   3.9347   4.6134   6.4836
     6.9770

          k =-0.1818 0.7273-0.3636 (  8078 PWs)   bands (ev):

   -30.1601 -13.6781 -13.6563 -13.6257   2.5794   3.3350   4.2708   6.5318
     7.0888

          k =-0.2727 0.2727 0.1818 (  8103 PWs)   bands (ev):

   -30.1628 -13.6633 -13.6268 -13.6191   0.8496   4.6802   5.0337   6.9232
     7.2136

          k =-0.2727 0.7273-0.2727 (  8067 PWs)   bands (ev):

   -30.1599 -13.6691 -13.6691 -13.6263   3.1791   3.1791   3.7139   6.9512
     7.1658

          k =-0.3636 0.3636 0.1818 (  8091 PWs)   bands (ev):

   -30.1617 -13.6762 -13.6361 -13.6195   1.4984   3.9105   4.8036   6.8408
     7.4215

          k =-0.3636 0.2727 0.2727 (  8088 PWs)   bands (ev):

   -30.1618 -13.6728 -13.6329 -13.6236   1.4114   4.2627   4.5527   6.7294
     7.3321

          k = 0.5455-0.5455 0.1818 (  8089 PWs)   bands (ev):

   -30.1611 -13.6832 -13.6422 -13.6197   2.2597   3.0964   4.6866   6.6195
     7.6520

          k = 0.5455-0.6364 0.2727 (  8088 PWs)   bands (ev):

   -30.1611 -13.6763 -13.6430 -13.6253   2.1078   3.6371   4.3022   6.3391
     7.4684

          k = 0.4545-0.5455 0.2727 (  8081 PWs)   bands (ev):

   -30.1609 -13.6763 -13.6483 -13.6257   2.8720   2.8873   4.2299   6.1660
     7.5733

          k = 0.4545-0.6364 0.3636 (  8085 PWs)   bands (ev):

   -30.1608 -13.6693 -13.6546 -13.6283   2.8077   3.4068   3.7650   5.9743
     7.5553

          k = 0.0000 0.0000 0.3636 (  8100 PWs)   bands (ev):

   -30.1632 -13.6402 -13.6294 -13.6294   0.5578   5.5268   5.6950   5.6950
     6.7412

          k = 0.0000-0.0909 0.4545 (  8102 PWs)   bands (ev):

   -30.1619 -13.6559 -13.6368 -13.6315   1.0393   4.7926   5.5126   5.7570
     7.0657

          k = 0.0000-0.1818 0.5455 (  8085 PWs)   bands (ev):

   -30.1607 -13.6727 -13.6437 -13.6309   1.6730   4.0176   5.3442   5.7434
     7.1234

          k = 0.0000-0.2727 0.6364 (  8091 PWs)   bands (ev):

   -30.1600 -13.6828 -13.6477 -13.6303   2.4175   3.2188   5.2483   5.6213
     7.1664

          k =-0.0909-0.0909 0.5455 (  8079 PWs)   bands (ev):

   -30.1607 -13.6664 -13.6456 -13.6350   1.5858   4.3333   5.1595   5.8390
     6.9179

          k =-0.0909-0.1818 0.6364 (  8081 PWs)   bands (ev):

   -30.1598 -13.6761 -13.6531 -13.6351   2.2584   3.7292   4.8162   5.9234
     6.8015

          k =-0.0909 0.7273-0.2727 (  8090 PWs)   bands (ev):

   -30.1595 -13.6798 -13.6559 -13.6349   2.9591   3.0478   4.6891   5.9016
     6.9199

          k =-0.1818 0.8182-0.2727 (  8082 PWs)   bands (ev):

   -30.1593 -13.6743 -13.6642 -13.6358   2.9161   3.4617   4.1850   6.3116
     6.6328

          k = 0.6364-0.6364 0.3636 (  8082 PWs)   bands (ev):

   -30.1612 -13.6740 -13.6345 -13.6345   2.0271   4.0398   4.0398   6.1006
     7.6290

          k = 0.5455-0.5455 0.3636 (  8094 PWs)   bands (ev):

   -30.1609 -13.6689 -13.6466 -13.6354   2.7359   3.4458   3.9297   5.6273
     7.6863

          k = 0.4545-0.5455 0.4545 (  8112 PWs)   bands (ev):

   -30.1608 -13.6565 -13.6565 -13.6405   3.3024   3.3024   3.5909   5.3027
     7.7590

          k = 0.0000 0.0000 0.5455 (  8084 PWs)   bands (ev):

   -30.1607 -13.6573 -13.6446 -13.6446   1.4966   4.6117   5.4686   5.4686
     6.7826

          k = 0.0000-0.0909 0.6364 (  8091 PWs)   bands (ev):

   -30.1596 -13.6684 -13.6517 -13.6466   2.0915   4.1100   5.3776   5.4004
     6.4285

          k = 0.0000-0.1818 0.7273 (  8077 PWs)   bands (ev):

   -30.1590 -13.6770 -13.6559 -13.6458   2.7708   3.4900   5.1501   5.3522
     6.5695

          k =-0.0909-0.0909 0.7273 (  8080 PWs)   bands (ev):

   -30.1588 -13.6724 -13.6604 -13.6489   2.6929   3.7867   4.8643   5.7152
     6.2290

          k =-0.0909 0.8182-0.1818 (  8098 PWs)   bands (ev):

   -30.1585 -13.6740 -13.6646 -13.6487   3.2172   3.4086   4.6060   5.8130
     6.2981

          k = 0.0000 0.0000 0.7273 (  8112 PWs)   bands (ev):

   -30.1586 -13.6664 -13.6590 -13.6590   2.6138   3.9688   5.4334   5.4334
     5.7866

          k = 0.0000-0.0909 0.8182 (  8072 PWs)   bands (ev):

   -30.1580 -13.6717 -13.6634 -13.6598   3.1562   3.6661   5.1345   5.4443
     5.9376

          k =-0.0909 0.9091-0.0909 (  8076 PWs)   bands (ev):

   -30.1577 -13.6695 -13.6695 -13.6609   3.4973   3.4973   4.9777   5.7414
     5.7414

          k = 0.0000 0.0000 0.9091 (  8072 PWs)   bands (ev):

   -30.1574 -13.6689 -13.6678 -13.6678   3.4782   3.6406   5.4820   5.4967
     5.4967

     the Fermi energy is     1.9690 ev

!    total energy              =    -113.01148634 Ry
     Harris-Foulkes estimate   =    -113.01148634 Ry
     estimated scf accuracy    <          2.6E-09 Ry

     total all-electron energy =     -1204.250197 Ry

     The total energy is the sum of the following terms:

     one-electron contribution =     -35.40551788 Ry
     hartree contribution      =      18.88023447 Ry
     xc contribution           =     -11.16980880 Ry
     ewald contribution        =     -29.89633970 Ry
     one-center paw contrib.   =     -55.41961397 Ry
     smearing contrib. (-TS)   =      -0.00044046 Ry

     convergence has been achieved in   5 iterations

     Forces acting on atoms (cartesian axes, Ry/au):

     atom    1 type  1   force =     0.00000000    0.00000000    0.00000000

     Total force =     0.000000     Total SCF correction =     0.000000


     Computing stress (Cartesian axis) and pressure

          total   stress  (Ry/bohr**3)                   (kbar)     P=    1.46
   0.00000991   0.00000000  -0.00000000          1.46      0.00     -0.00
   0.00000000   0.00000991   0.00000000          0.00      1.46      0.00
  -0.00000000   0.00000000   0.00000991         -0.00      0.00      1.46


     Writing output data file K.save/

     init_run     :      2.30s CPU      2.42s WALL (       1 calls)
     electrons    :     29.66s CPU     30.70s WALL (       1 calls)
     forces       :      0.35s CPU      0.37s WALL (       1 calls)
     stress       :      1.56s CPU      1.59s WALL (       1 calls)

     Called by init_run:
     wfcinit      :      1.60s CPU      1.67s WALL (       1 calls)
     potinit      :      0.18s CPU      0.20s WALL (       1 calls)
     hinit0       :      0.29s CPU      0.30s WALL (       1 calls)

     Called by electrons:
     c_bands      :     24.41s CPU     25.14s WALL (       6 calls)
     sum_band     :      4.28s CPU      4.46s WALL (       6 calls)
     v_of_rho     :      0.26s CPU      0.27s WALL (       6 calls)
     newd         :      0.39s CPU      0.47s WALL (       6 calls)
     PAW_pot      :      0.56s CPU      0.62s WALL (       6 calls)
     mix_rho      :      0.02s CPU      0.02s WALL (       6 calls)

     Called by c_bands:
     init_us_2    :      0.84s CPU      0.85s WALL (     840 calls)
     cegterg      :     23.45s CPU     24.17s WALL (     336 calls)

     Called by sum_band:
     sum_band:bec :      0.01s CPU      0.01s WALL (     336 calls)
     addusdens    :      0.35s CPU      0.42s WALL (       6 calls)

     Called by *egterg:
     h_psi        :     20.54s CPU     21.29s WALL (    1617 calls)
     s_psi        :      0.54s CPU      0.55s WALL (    1617 calls)
     g_psi        :      0.05s CPU      0.06s WALL (    1225 calls)
     cdiaghg      :      0.42s CPU      0.42s WALL (    1505 calls)

     Called by h_psi:
     h_psi:pot    :     20.43s CPU     21.18s WALL (    1617 calls)
     h_psi:calbec :      1.04s CPU      1.07s WALL (    1617 calls)
     vloc_psi     :     18.76s CPU     19.46s WALL (    1617 calls)
     add_vuspsi   :      0.62s CPU      0.63s WALL (    1617 calls)

     General routines
     calbec       :      1.60s CPU      1.64s WALL (    2233 calls)
     fft          :      0.15s CPU      0.17s WALL (      93 calls)
     ffts         :      0.01s CPU      0.01s WALL (       6 calls)
     fftw         :     19.64s CPU     20.39s WALL (   21060 calls)

     Parallel routines
     fft_scatt_xy :      1.64s CPU      1.71s WALL (   21159 calls)
     fft_scatt_yz :      4.66s CPU      4.89s WALL (   21159 calls)

     PWSCF        :    34.75s CPU        36.10s WALL


   This run was terminated on:   0: 1:52   8Apr2024            

=------------------------------------------------------------------------------=
   JOB DONE.
=------------------------------------------------------------------------------=
