
     Program PWSCF v.6.3MaX starts on  8Apr2024 at  0:12: 9 

     This program is part of the open-source Quantum ESPRESSO suite
     for quantum simulation of materials; please cite
         "P. Giannozzi et al., J. Phys.:Condens. Matter 21 395502 (2009);
         "P. Giannozzi et al., J. Phys.:Condens. Matter 29 465901 (2017);
          URL http://www.quantum-espresso.org", 
     in publications or presentations arising from this work. More details at
     http://www.quantum-espresso.org/quote

     Parallel version (MPI), running on     5 processors

     MPI processes distributed on     1 nodes
     R & G space division:  proc/nbgrp/npool/nimage =       5
     Waiting for input...
     Reading input from standard input

     Current dimensions of program PWSCF are:
     Max number of different atomic species (ntypx) = 10
     Max number of k-points (npk) =  40000
     Max angular momentum in pseudopotentials (lmaxx) =  3
               file K.pz-spn-rrkjus_psl.1.0.0.UPF: wavefunction(s)  3S renormalized

     Subspace diagonalization in iterative solution of the eigenvalue problem:
     a serial algorithm will be used


     Parallelization info
     --------------------
     sticks:   dense  smooth     PW     G-vecs:    dense   smooth      PW
     Min          43      43     15                  417      417      85
     Max          44      44     16                  420      420      86
     Sum         219     219     77                 2093     2093     429



     bravais-lattice index     =            3
     lattice parameter (alat)  =       9.8600  a.u.
     unit-cell volume          =     479.2926 (a.u.)^3
     number of atoms/cell      =            1
     number of atomic types    =            1
     number of electrons       =         9.00
     number of Kohn-Sham states=            9
     kinetic-energy cutoff     =      10.0000  Ry
     charge density cutoff     =      40.0000  Ry
     convergence threshold     =      1.0E-08
     mixing beta               =       0.7000
     number of iterations used =            8  plain     mixing
     Exchange-correlation      = LDA ( 1  1  0  0 0 0)

     celldm(1)=   9.860000  celldm(2)=   0.000000  celldm(3)=   0.000000
     celldm(4)=   0.000000  celldm(5)=   0.000000  celldm(6)=   0.000000

     crystal axes: (cart. coord. in units of alat)
               a(1) = (   0.500000   0.500000   0.500000 )  
               a(2) = (  -0.500000   0.500000   0.500000 )  
               a(3) = (  -0.500000  -0.500000   0.500000 )  

     reciprocal axes: (cart. coord. in units 2 pi/alat)
               b(1) = (  1.000000  0.000000  1.000000 )  
               b(2) = ( -1.000000  1.000000  0.000000 )  
               b(3) = (  0.000000 -1.000000  1.000000 )  


     PseudoPot. # 1 for K  read from file:
     /home/lorenzo/pseudos/K/K.pz-spn-rrkjus_psl.1.0.0.UPF
     MD5 check sum: af434a66a3b91719abff201b8f79bb09
     Pseudo is Ultrasoft + core correction, Zval =  9.0
     Generated using "atomic" code by A. Dal Corso v.6.2.2
     Using radial grid of 1165 points,  6 beta functions with: 
                l(1) =   0
                l(2) =   0
                l(3) =   1
                l(4) =   1
                l(5) =   2
                l(6) =   2
     Q(r) pseudized with 0 coefficients 


     atomic species   valence    mass     pseudopotential
        K              9.00    39.09830     K ( 1.00)

     48 Sym. Ops., with inversion, found



   Cartesian axes

     site n.     atom                  positions (alat units)
         1           K   tau(   1) = (   0.0000000   0.0000000   0.0000000  )

     number of k points=    35  gaussian smearing, width (Ry)=  0.0100
                       cart. coord. in units 2pi/alat
        k(    1) = (   0.0000000   0.0000000   0.0000000), wk =   0.0027435
        k(    2) = (   0.0000000  -0.1111111   0.1111111), wk =   0.0329218
        k(    3) = (   0.0000000  -0.2222222   0.2222222), wk =   0.0329218
        k(    4) = (   0.0000000  -0.3333333   0.3333333), wk =   0.0329218
        k(    5) = (   0.0000000  -0.4444444   0.4444444), wk =   0.0329218
        k(    6) = (  -0.1111111  -0.1111111   0.2222222), wk =   0.0658436
        k(    7) = (  -0.1111111  -0.2222222   0.3333333), wk =   0.1316872
        k(    8) = (  -0.1111111  -0.3333333   0.4444444), wk =   0.1316872
        k(    9) = (  -0.1111111   0.5555556  -0.4444444), wk =   0.0658436
        k(   10) = (  -0.2222222  -0.2222222   0.4444444), wk =   0.0658436
        k(   11) = (  -0.2222222   0.6666667  -0.4444444), wk =   0.1316872
        k(   12) = (  -0.3333333   0.6666667  -0.3333333), wk =   0.0219479
        k(   13) = (   0.0000000   0.0000000   0.2222222), wk =   0.0164609
        k(   14) = (   0.0000000  -0.1111111   0.3333333), wk =   0.0658436
        k(   15) = (   0.0000000  -0.2222222   0.4444444), wk =   0.0658436
        k(   16) = (   0.0000000  -0.3333333   0.5555556), wk =   0.0658436
        k(   17) = (  -0.1111111  -0.1111111   0.4444444), wk =   0.0658436
        k(   18) = (  -0.1111111  -0.2222222   0.5555556), wk =   0.1316872
        k(   19) = (  -0.1111111   0.6666667  -0.3333333), wk =   0.0658436
        k(   20) = (  -0.2222222   0.2222222   0.2222222), wk =   0.0219479
        k(   21) = (  -0.2222222   0.7777778  -0.3333333), wk =   0.0658436
        k(   22) = (  -0.3333333   0.3333333   0.2222222), wk =   0.0658436
        k(   23) = (   0.5555556  -0.5555556   0.2222222), wk =   0.0658436
        k(   24) = (   0.5555556  -0.6666667   0.3333333), wk =   0.0658436
        k(   25) = (   0.4444444  -0.5555556   0.3333333), wk =   0.0658436
        k(   26) = (   0.0000000   0.0000000   0.4444444), wk =   0.0164609
        k(   27) = (   0.0000000  -0.1111111   0.5555556), wk =   0.0658436
        k(   28) = (   0.0000000  -0.2222222   0.6666667), wk =   0.0658436
        k(   29) = (  -0.1111111  -0.1111111   0.6666667), wk =   0.0658436
        k(   30) = (  -0.1111111   0.7777778  -0.2222222), wk =   0.0658436
        k(   31) = (   0.5555556  -0.5555556   0.4444444), wk =   0.0219479
        k(   32) = (   0.0000000   0.0000000   0.6666667), wk =   0.0164609
        k(   33) = (   0.0000000  -0.1111111   0.7777778), wk =   0.0658436
        k(   34) = (  -0.1111111   0.8888889  -0.1111111), wk =   0.0219479
        k(   35) = (   0.0000000   0.0000000   0.8888889), wk =   0.0164609

     Dense  grid:     2093 G-vectors     FFT dimensions: (  18,  18,  18)

     Estimated max dynamical RAM per process >       2.62 MB

     Estimated total dynamical RAM >      13.08 MB

     Check: negative/imaginary core charge=   -0.001512    0.000000

     Initial potential from superposition of free atoms
     Check: negative starting charge=   -0.000618

     starting charge    8.98437, renormalised to    9.00000

     negative rho (up, down):  6.194E-04 0.000E+00
     Starting wfcs are    8 randomized atomic wfcs +    1 random wfcs

     total cpu time spent up to now is        0.9 secs

     Self-consistent Calculation

     iteration #  1     ecut=    10.00 Ry     beta= 0.70
     Davidson diagonalization with overlap
     ethr =  1.00E-02,  avg # of iterations =  6.2

     total cpu time spent up to now is        1.2 secs

     total energy              =     -57.19694018 Ry
     Harris-Foulkes estimate   =     -57.45682580 Ry
     estimated scf accuracy    <       0.37291804 Ry

     iteration #  2     ecut=    10.00 Ry     beta= 0.70
     Davidson diagonalization with overlap
     ethr =  4.14E-03,  avg # of iterations =  2.0

     total cpu time spent up to now is        1.3 secs

     total energy              =     -57.26403867 Ry
     Harris-Foulkes estimate   =     -57.26666001 Ry
     estimated scf accuracy    <       0.00987549 Ry

     iteration #  3     ecut=    10.00 Ry     beta= 0.70
     Davidson diagonalization with overlap
     ethr =  1.10E-04,  avg # of iterations =  3.1

     total cpu time spent up to now is        1.5 secs

     total energy              =     -57.26437362 Ry
     Harris-Foulkes estimate   =     -57.26441392 Ry
     estimated scf accuracy    <       0.00073280 Ry

     iteration #  4     ecut=    10.00 Ry     beta= 0.70
     Davidson diagonalization with overlap
     ethr =  8.14E-06,  avg # of iterations =  3.7

     total cpu time spent up to now is        1.7 secs

     total energy              =     -57.26439357 Ry
     Harris-Foulkes estimate   =     -57.26439460 Ry
     estimated scf accuracy    <       0.00000218 Ry

     iteration #  5     ecut=    10.00 Ry     beta= 0.70
     Davidson diagonalization with overlap
     ethr =  2.42E-08,  avg # of iterations =  2.1

     total cpu time spent up to now is        1.8 secs

     total energy              =     -57.26439399 Ry
     Harris-Foulkes estimate   =     -57.26439410 Ry
     estimated scf accuracy    <       0.00000014 Ry

     iteration #  6     ecut=    10.00 Ry     beta= 0.70
     Davidson diagonalization with overlap
     ethr =  1.53E-09,  avg # of iterations =  2.0

     total cpu time spent up to now is        1.9 secs

     End of self-consistent calculation

          k = 0.0000 0.0000 0.0000 (   249 PWs)   bands (ev):

   -33.9423 -13.0755 -13.0755 -13.0755  -0.3740   7.1029   7.1029   7.1029
     8.3319

          k = 0.0000-0.1111 0.1111 (   247 PWs)   bands (ev):

   -33.9351 -13.0917 -13.0467 -12.9535  -0.2038   6.6923   6.8262   7.2897
     7.9820

          k = 0.0000-0.2222 0.2222 (   257 PWs)   bands (ev):

   -33.9610 -13.4690 -13.2029 -13.1999   0.2877   5.6050   6.3111   7.6384
     7.9580

          k = 0.0000-0.3333 0.3333 (   257 PWs)   bands (ev):

   -33.9650 -13.3899 -13.3576 -13.2503   1.0583   4.4009   5.8591   7.9146
     7.9648

          k = 0.0000-0.4444 0.4444 (   263 PWs)   bands (ev):

   -33.9788 -13.5004 -13.4920 -13.4665   2.0055   3.2559   5.5963   7.5493
     8.1303

          k =-0.1111-0.1111 0.2222 (   257 PWs)   bands (ev):

   -33.9601 -13.5324 -13.1577 -13.1527   0.1235   6.0405   6.2830   7.4408
     7.7183

          k =-0.1111-0.2222 0.3333 (   262 PWs)   bands (ev):

   -33.9751 -13.4805 -13.4516 -13.3727   0.7583   5.0095   5.7399   7.5629
     7.8272

          k =-0.1111-0.3333 0.4444 (   258 PWs)   bands (ev):

   -33.9666 -13.4249 -13.3950 -13.2682   1.6395   3.9021   5.4329   7.2786
     8.1780

          k =-0.1111 0.5556-0.4444 (   263 PWs)   bands (ev):

   -33.9785 -13.6229 -13.5002 -13.3376   2.4902   2.9346   5.3398   7.0564
     8.4291

          k =-0.2222-0.2222 0.4444 (   258 PWs)   bands (ev):

   -33.9653 -13.4283 -13.4114 -13.2176   1.5054   4.4638   4.9606   7.2547
     7.8682

          k =-0.2222 0.6667-0.4444 (   258 PWs)   bands (ev):

   -33.9661 -13.4681 -13.4175 -13.2233   2.4638   3.5715   4.5571   6.8976
     8.1894

          k =-0.3333 0.6667-0.3333 (   249 PWs)   bands (ev):

   -33.9420 -13.2747 -13.0891 -13.0891   3.4685   3.4685   3.5409   6.8182
     8.4808

          k = 0.0000 0.0000 0.2222 (   249 PWs)   bands (ev):

   -33.9412 -13.3966 -12.9355 -12.9355  -0.0353   6.6692   6.6692   7.0459
     7.3869

          k = 0.0000-0.1111 0.3333 (   258 PWs)   bands (ev):

   -33.9646 -13.5318 -13.2459 -13.2064   0.4472   5.6582   6.2440   6.8651
     7.7122

          k = 0.0000-0.2222 0.4444 (   257 PWs)   bands (ev):

   -33.9648 -13.4569 -13.3082 -13.2509   1.2148   4.4972   5.8819   6.7917
     8.3192

          k = 0.0000-0.3333 0.5556 (   257 PWs)   bands (ev):

   -33.9649 -13.4880 -13.3071 -13.2545   2.1656   3.3624   5.6928   6.5737
     8.5828

          k =-0.1111-0.1111 0.4444 (   252 PWs)   bands (ev):

   -33.9524 -13.3677 -13.1861 -13.0973   1.0729   5.0131   5.6738   6.8546
     7.9179

          k =-0.1111-0.2222 0.5556 (   257 PWs)   bands (ev):

   -33.9648 -13.4421 -13.3941 -13.2145   1.9283   4.0655   5.1753   6.8209
     7.8121

          k =-0.1111 0.6667-0.3333 (   259 PWs)   bands (ev):

   -33.9690 -13.4645 -13.4272 -13.3066   2.8391   3.0945   5.0078   6.6929
     8.2130

          k =-0.2222 0.2222 0.2222 (   261 PWs)   bands (ev):

   -33.9736 -13.4749 -13.3769 -13.3769   0.6029   5.4698   5.4698   7.4169
     8.3352

          k =-0.2222 0.7778-0.3333 (   253 PWs)   bands (ev):

   -33.9548 -13.4055 -13.2825 -13.1030   2.8614   3.7655   4.1292   7.4024
     7.5329

          k =-0.3333 0.3333 0.2222 (   257 PWs)   bands (ev):

   -33.9642 -13.4540 -13.3005 -13.2407   1.3591   4.5097   5.0817   6.9281
     8.6248

          k = 0.5556-0.5556 0.2222 (   253 PWs)   bands (ev):

   -33.9543 -13.3724 -13.2416 -13.1311   2.3279   3.4789   4.9299   6.4919
     8.8920

          k = 0.5556-0.6667 0.3333 (   255 PWs)   bands (ev):

   -33.9574 -13.3312 -13.2939 -13.2310   2.2219   4.1159   4.4207   6.1151
     8.7944

          k = 0.4444-0.5556 0.3333 (   261 PWs)   bands (ev):

   -33.9719 -13.4867 -13.4811 -13.3305   3.1804   3.2786   4.1842   5.8069
     8.8962

          k = 0.0000 0.0000 0.4444 (   249 PWs)   bands (ev):

   -33.9473 -13.3464 -13.0601 -13.0601   0.9280   5.5457   6.1331   6.1331
     8.0533

          k = 0.0000-0.1111 0.5556 (   253 PWs)   bands (ev):

   -33.9579 -13.3922 -13.2238 -13.1944   1.6641   4.6667   5.9167   5.9878
     7.3738

          k = 0.0000-0.2222 0.6667 (   255 PWs)   bands (ev):

   -33.9644 -13.4135 -13.3337 -13.2518   2.5975   3.6467   5.6497   5.7665
     7.5728

          k =-0.1111-0.1111 0.6667 (   254 PWs)   bands (ev):

   -33.9645 -13.5253 -13.3101 -13.1370   2.4683   4.1944   5.0042   6.3942
     6.9753

          k =-0.1111 0.7778-0.2222 (   250 PWs)   bands (ev):

   -33.9552 -13.3656 -13.1761 -13.1669   3.3873   3.4640   4.6098   6.4788
     7.2059

          k = 0.5556-0.5556 0.4444 (   258 PWs)   bands (ev):

   -33.9635 -13.3706 -13.3449 -13.3449   3.1239   3.9213   3.9213   5.0718
     9.2345

          k = 0.0000 0.0000 0.6667 (   249 PWs)   bands (ev):

   -33.9547 -13.5164 -13.0721 -13.0721   2.3376   4.5221   5.8747   5.8747
     6.2408

          k = 0.0000-0.1111 0.7778 (   252 PWs)   bands (ev):

   -33.9635 -13.3969 -13.2858 -13.2257   3.1680   3.9856   5.2741   5.7937
     6.5227

          k =-0.1111 0.8889-0.1111 (   245 PWs)   bands (ev):

   -33.9487 -13.2672 -13.0955 -13.0955   3.7716   3.7716   4.8735   6.2587
     6.2587

          k = 0.0000 0.0000 0.8889 (   245 PWs)   bands (ev):

   -33.9494 -13.2933 -13.0934 -13.0934   3.7234   4.0047   5.6540   5.8163
     5.8163

     the Fermi energy is     1.9976 ev

!    total energy              =     -57.26439401 Ry
     Harris-Foulkes estimate   =     -57.26439401 Ry
     estimated scf accuracy    <          7.5E-10 Ry

     The total energy is the sum of the following terms:

     one-electron contribution =     -33.58498915 Ry
     hartree contribution      =      16.85844887 Ry
     xc contribution           =     -10.64108077 Ry
     ewald contribution        =     -29.89633971 Ry
     smearing contrib. (-TS)   =      -0.00043326 Ry

     convergence has been achieved in   6 iterations

     Forces acting on atoms (cartesian axes, Ry/au):

     atom    1 type  1   force =     0.00000000    0.00000000    0.00000000

     Total force =     0.000000     Total SCF correction =     0.000000


     Computing stress (Cartesian axis) and pressure

          total   stress  (Ry/bohr**3)                   (kbar)     P= -795.79
  -0.00540968  -0.00000000   0.00000000       -795.79     -0.00      0.00
  -0.00000000  -0.00540968  -0.00000000         -0.00   -795.79     -0.00
   0.00000000  -0.00000000  -0.00540968          0.00     -0.00   -795.79


     Writing output data file K.save/

     init_run     :      0.12s CPU      0.13s WALL (       1 calls)
     electrons    :      0.98s CPU      1.09s WALL (       1 calls)
     forces       :      0.02s CPU      0.02s WALL (       1 calls)
     stress       :      0.05s CPU      0.05s WALL (       1 calls)

     Called by init_run:
     wfcinit      :      0.04s CPU      0.05s WALL (       1 calls)
     potinit      :      0.00s CPU      0.00s WALL (       1 calls)
     hinit0       :      0.07s CPU      0.07s WALL (       1 calls)

     Called by electrons:
     c_bands      :      0.85s CPU      0.94s WALL (       6 calls)
     sum_band     :      0.12s CPU      0.13s WALL (       6 calls)
     v_of_rho     :      0.00s CPU      0.00s WALL (       7 calls)
     newd         :      0.01s CPU      0.01s WALL (       7 calls)
     mix_rho      :      0.00s CPU      0.00s WALL (       6 calls)

     Called by c_bands:
     init_us_2    :      0.02s CPU      0.02s WALL (     525 calls)
     cegterg      :      0.81s CPU      0.90s WALL (     210 calls)

     Called by sum_band:
     sum_band:bec :      0.00s CPU      0.00s WALL (     210 calls)
     addusdens    :      0.01s CPU      0.01s WALL (       6 calls)

     Called by *egterg:
     h_psi        :      0.56s CPU      0.63s WALL (     913 calls)
     s_psi        :      0.02s CPU      0.02s WALL (     913 calls)
     g_psi        :      0.00s CPU      0.00s WALL (     668 calls)
     cdiaghg      :      0.16s CPU      0.18s WALL (     878 calls)

     Called by h_psi:
     h_psi:pot    :      0.56s CPU      0.62s WALL (     913 calls)
     h_psi:calbec :      0.04s CPU      0.04s WALL (     913 calls)
     vloc_psi     :      0.50s CPU      0.56s WALL (     913 calls)
     add_vuspsi   :      0.02s CPU      0.02s WALL (     913 calls)

     General routines
     calbec       :      0.06s CPU      0.06s WALL (    1298 calls)
     fft          :      0.00s CPU      0.00s WALL (      37 calls)
     ffts         :      0.00s CPU      0.00s WALL (       6 calls)
     fftw         :      0.54s CPU      0.60s WALL (   12762 calls)

     Parallel routines
     fft_scatt_xy :      0.04s CPU      0.05s WALL (   12805 calls)
     fft_scatt_yz :      0.22s CPU      0.24s WALL (   12805 calls)

     PWSCF        :     1.96s CPU         2.16s WALL


   This run was terminated on:   0:12:11   8Apr2024            

=------------------------------------------------------------------------------=
   JOB DONE.
=------------------------------------------------------------------------------=
