
     Program PWSCF v.6.3MaX starts on  8Apr2024 at  1:16:33 

     This program is part of the open-source Quantum ESPRESSO suite
     for quantum simulation of materials; please cite
         "P. Giannozzi et al., J. Phys.:Condens. Matter 21 395502 (2009);
         "P. Giannozzi et al., J. Phys.:Condens. Matter 29 465901 (2017);
          URL http://www.quantum-espresso.org", 
     in publications or presentations arising from this work. More details at
     http://www.quantum-espresso.org/quote

     Parallel version (MPI), running on     5 processors

     MPI processes distributed on     1 nodes
     R & G space division:  proc/nbgrp/npool/nimage =       5
     Waiting for input...
     Reading input from standard input

     Current dimensions of program PWSCF are:
     Max number of different atomic species (ntypx) = 10
     Max number of k-points (npk) =  40000
     Max angular momentum in pseudopotentials (lmaxx) =  3
               file K.pbe-spn-rrkjus_psl.1.0.0.UPF: wavefunction(s)  3S renormalized

     Subspace diagonalization in iterative solution of the eigenvalue problem:
     a serial algorithm will be used


     Parallelization info
     --------------------
     sticks:   dense  smooth     PW     G-vecs:    dense   smooth      PW
     Min         369     369    107                10119    10119    1560
     Max         370     370    107                10120    10120    1561
     Sum        1849    1849    535                50597    50597    7803



     bravais-lattice index     =            3
     lattice parameter (alat)  =       9.8600  a.u.
     unit-cell volume          =     479.2926 (a.u.)^3
     number of atoms/cell      =            1
     number of atomic types    =            1
     number of electrons       =         9.00
     number of Kohn-Sham states=            9
     kinetic-energy cutoff     =      85.0000  Ry
     charge density cutoff     =     340.0000  Ry
     convergence threshold     =      1.0E-08
     mixing beta               =       0.7000
     number of iterations used =            8  plain     mixing
     Exchange-correlation      = PBE ( 1  4  3  4 0 0)

     celldm(1)=   9.860000  celldm(2)=   0.000000  celldm(3)=   0.000000
     celldm(4)=   0.000000  celldm(5)=   0.000000  celldm(6)=   0.000000

     crystal axes: (cart. coord. in units of alat)
               a(1) = (   0.500000   0.500000   0.500000 )  
               a(2) = (  -0.500000   0.500000   0.500000 )  
               a(3) = (  -0.500000  -0.500000   0.500000 )  

     reciprocal axes: (cart. coord. in units 2 pi/alat)
               b(1) = (  1.000000  0.000000  1.000000 )  
               b(2) = ( -1.000000  1.000000  0.000000 )  
               b(3) = (  0.000000 -1.000000  1.000000 )  


     PseudoPot. # 1 for K  read from file:
     /home/lorenzo/pseudos/K/K.pbe-spn-rrkjus_psl.1.0.0.UPF
     MD5 check sum: 897b700350bb708b0563e904352feb48
     Pseudo is Ultrasoft + core correction, Zval =  9.0
     Generated using "atomic" code by A. Dal Corso v.6.2.2
     Using radial grid of 1165 points,  6 beta functions with: 
                l(1) =   0
                l(2) =   0
                l(3) =   1
                l(4) =   1
                l(5) =   2
                l(6) =   2
     Q(r) pseudized with 0 coefficients 


     atomic species   valence    mass     pseudopotential
        K              9.00    39.09830     K ( 1.00)

     48 Sym. Ops., with inversion, found



   Cartesian axes

     site n.     atom                  positions (alat units)
         1           K   tau(   1) = (   0.0000000   0.0000000   0.0000000  )

     number of k points=    56  gaussian smearing, width (Ry)=  0.0100
                       cart. coord. in units 2pi/alat
        k(    1) = (   0.0000000   0.0000000   0.0000000), wk =   0.0015026
        k(    2) = (   0.0000000  -0.0909091   0.0909091), wk =   0.0180316
        k(    3) = (   0.0000000  -0.1818182   0.1818182), wk =   0.0180316
        k(    4) = (   0.0000000  -0.2727273   0.2727273), wk =   0.0180316
        k(    5) = (   0.0000000  -0.3636364   0.3636364), wk =   0.0180316
        k(    6) = (   0.0000000  -0.4545455   0.4545455), wk =   0.0180316
        k(    7) = (  -0.0909091  -0.0909091   0.1818182), wk =   0.0360631
        k(    8) = (  -0.0909091  -0.1818182   0.2727273), wk =   0.0721262
        k(    9) = (  -0.0909091  -0.2727273   0.3636364), wk =   0.0721262
        k(   10) = (  -0.0909091  -0.3636364   0.4545455), wk =   0.0721262
        k(   11) = (  -0.0909091   0.5454545  -0.4545455), wk =   0.0360631
        k(   12) = (  -0.1818182  -0.1818182   0.3636364), wk =   0.0360631
        k(   13) = (  -0.1818182  -0.2727273   0.4545455), wk =   0.0721262
        k(   14) = (  -0.1818182   0.6363636  -0.4545455), wk =   0.0721262
        k(   15) = (  -0.2727273   0.7272727  -0.4545455), wk =   0.0360631
        k(   16) = (  -0.2727273   0.6363636  -0.3636364), wk =   0.0360631
        k(   17) = (   0.0000000   0.0000000   0.1818182), wk =   0.0090158
        k(   18) = (   0.0000000  -0.0909091   0.2727273), wk =   0.0360631
        k(   19) = (   0.0000000  -0.1818182   0.3636364), wk =   0.0360631
        k(   20) = (   0.0000000  -0.2727273   0.4545455), wk =   0.0360631
        k(   21) = (   0.0000000  -0.3636364   0.5454545), wk =   0.0360631
        k(   22) = (  -0.0909091  -0.0909091   0.3636364), wk =   0.0360631
        k(   23) = (  -0.0909091  -0.1818182   0.4545455), wk =   0.0721262
        k(   24) = (  -0.0909091  -0.2727273   0.5454545), wk =   0.0721262
        k(   25) = (  -0.0909091   0.6363636  -0.3636364), wk =   0.0360631
        k(   26) = (  -0.1818182   0.1818182   0.1818182), wk =   0.0120210
        k(   27) = (  -0.1818182  -0.1818182   0.5454545), wk =   0.0360631
        k(   28) = (  -0.1818182   0.7272727  -0.3636364), wk =   0.0721262
        k(   29) = (  -0.2727273   0.2727273   0.1818182), wk =   0.0360631
        k(   30) = (  -0.2727273   0.7272727  -0.2727273), wk =   0.0120210
        k(   31) = (  -0.3636364   0.3636364   0.1818182), wk =   0.0360631
        k(   32) = (  -0.3636364   0.2727273   0.2727273), wk =   0.0360631
        k(   33) = (   0.5454545  -0.5454545   0.1818182), wk =   0.0360631
        k(   34) = (   0.5454545  -0.6363636   0.2727273), wk =   0.0721262
        k(   35) = (   0.4545455  -0.5454545   0.2727273), wk =   0.0360631
        k(   36) = (   0.4545455  -0.6363636   0.3636364), wk =   0.0360631
        k(   37) = (   0.0000000   0.0000000   0.3636364), wk =   0.0090158
        k(   38) = (   0.0000000  -0.0909091   0.4545455), wk =   0.0360631
        k(   39) = (   0.0000000  -0.1818182   0.5454545), wk =   0.0360631
        k(   40) = (   0.0000000  -0.2727273   0.6363636), wk =   0.0360631
        k(   41) = (  -0.0909091  -0.0909091   0.5454545), wk =   0.0360631
        k(   42) = (  -0.0909091  -0.1818182   0.6363636), wk =   0.0721262
        k(   43) = (  -0.0909091   0.7272727  -0.2727273), wk =   0.0360631
        k(   44) = (  -0.1818182   0.8181818  -0.2727273), wk =   0.0360631
        k(   45) = (   0.6363636  -0.6363636   0.3636364), wk =   0.0120210
        k(   46) = (   0.5454545  -0.5454545   0.3636364), wk =   0.0360631
        k(   47) = (   0.4545455  -0.5454545   0.4545455), wk =   0.0120210
        k(   48) = (   0.0000000   0.0000000   0.5454545), wk =   0.0090158
        k(   49) = (   0.0000000  -0.0909091   0.6363636), wk =   0.0360631
        k(   50) = (   0.0000000  -0.1818182   0.7272727), wk =   0.0360631
        k(   51) = (  -0.0909091  -0.0909091   0.7272727), wk =   0.0360631
        k(   52) = (  -0.0909091   0.8181818  -0.1818182), wk =   0.0360631
        k(   53) = (   0.0000000   0.0000000   0.7272727), wk =   0.0090158
        k(   54) = (   0.0000000  -0.0909091   0.8181818), wk =   0.0360631
        k(   55) = (  -0.0909091   0.9090909  -0.0909091), wk =   0.0120210
        k(   56) = (   0.0000000   0.0000000   0.9090909), wk =   0.0090158

     Dense  grid:    50597 G-vectors     FFT dimensions: (  54,  54,  54)

     Estimated max dynamical RAM per process >      50.04 MB

     Estimated total dynamical RAM >     250.22 MB

     Check: negative/imaginary core charge=   -0.000001    0.000000

     Initial potential from superposition of free atoms

     starting charge    8.98117, renormalised to    9.00000
     Starting wfcs are    8 randomized atomic wfcs +    1 random wfcs

     total cpu time spent up to now is        2.3 secs

     Self-consistent Calculation

     iteration #  1     ecut=    85.00 Ry     beta= 0.70
     Davidson diagonalization with overlap
     ethr =  1.00E-02,  avg # of iterations =  6.8

     Threshold (ethr) on eigenvalues was too large:
     Diagonalizing with lowered threshold

     Davidson diagonalization with overlap
     ethr =  1.43E-05,  avg # of iterations =  6.3

     total cpu time spent up to now is       12.5 secs

     total energy              =     -58.77396878 Ry
     Harris-Foulkes estimate   =     -58.77450252 Ry
     estimated scf accuracy    <       0.00127393 Ry

     iteration #  2     ecut=    85.00 Ry     beta= 0.70
     Davidson diagonalization with overlap
     ethr =  1.42E-05,  avg # of iterations =  2.2

     total cpu time spent up to now is       15.9 secs

     total energy              =     -58.77420355 Ry
     Harris-Foulkes estimate   =     -58.77420650 Ry
     estimated scf accuracy    <       0.00010187 Ry

     iteration #  3     ecut=    85.00 Ry     beta= 0.70
     Davidson diagonalization with overlap
     ethr =  1.13E-06,  avg # of iterations =  1.9

     total cpu time spent up to now is       18.7 secs

     total energy              =     -58.77421346 Ry
     Harris-Foulkes estimate   =     -58.77421089 Ry
     estimated scf accuracy    <       0.00000691 Ry

     iteration #  4     ecut=    85.00 Ry     beta= 0.70
     Davidson diagonalization with overlap
     ethr =  7.68E-08,  avg # of iterations =  1.7

     total cpu time spent up to now is       21.5 secs

     total energy              =     -58.77421408 Ry
     Harris-Foulkes estimate   =     -58.77421407 Ry
     estimated scf accuracy    <       0.00000005 Ry

     iteration #  5     ecut=    85.00 Ry     beta= 0.70
     Davidson diagonalization with overlap
     ethr =  5.44E-10,  avg # of iterations =  2.6

     total cpu time spent up to now is       24.5 secs

     End of self-consistent calculation

          k = 0.0000 0.0000 0.0000 (  6363 PWs)   bands (ev):

   -30.1656 -13.6139 -13.6139 -13.6139  -0.2616   6.2634   6.2634   7.1815
     7.1815

          k = 0.0000-0.0909 0.0909 (  6383 PWs)   bands (ev):

   -30.1652 -13.6200 -13.6159 -13.6139  -0.1559   6.1056   6.1292   6.3479
     7.0067

          k = 0.0000-0.1818 0.1818 (  6357 PWs)   bands (ev):

   -30.1641 -13.6365 -13.6214 -13.6139   0.1552   5.5092   5.8266   6.5983
     6.9432

          k = 0.0000-0.2727 0.2727 (  6370 PWs)   bands (ev):

   -30.1628 -13.6579 -13.6285 -13.6138   0.6542   4.6923   5.5091   7.0055
     7.0235

          k = 0.0000-0.3636 0.3636 (  6356 PWs)   bands (ev):

   -30.1615 -13.6773 -13.6351 -13.6138   1.3117   3.8308   5.2658   7.0095
     7.3156

          k = 0.0000-0.4545 0.4545 (  6316 PWs)   bands (ev):

   -30.1608 -13.6887 -13.6390 -13.6138   2.0794   2.9695   5.1368   6.8937
     7.5951

          k =-0.0909-0.0909 0.1818 (  6365 PWs)   bands (ev):

   -30.1645 -13.6314 -13.6181 -13.6154   0.0526   5.7673   5.8617   6.5071
     6.8346

          k =-0.0909-0.1818 0.2727 (  6367 PWs)   bands (ev):

   -30.1633 -13.6495 -13.6246 -13.6160   0.4580   5.0937   5.5120   6.7960
     6.8303

          k =-0.0909-0.2727 0.3636 (  6367 PWs)   bands (ev):

   -30.1620 -13.6686 -13.6326 -13.6161   1.0375   4.2847   5.2270   6.8604
     7.2083

          k =-0.0909-0.3636 0.4545 (  6335 PWs)   bands (ev):

   -30.1610 -13.6829 -13.6389 -13.6162   1.7552   3.4396   5.0433   6.7801
     7.5107

          k =-0.0909 0.5455-0.4545 (  6318 PWs)   bands (ev):

   -30.1606 -13.6882 -13.6412 -13.6162   2.4700   2.6850   4.9802   6.6993
     8.0128

          k =-0.1818-0.1818 0.3636 (  6342 PWs)   bands (ev):

   -30.1621 -13.6640 -13.6310 -13.6189   0.9448   4.6008   5.0472   6.8425
     6.9954

          k =-0.1818-0.2727 0.4545 (  6353 PWs)   bands (ev):

   -30.1611 -13.6755 -13.6401 -13.6202   1.5879   3.9405   4.7129   6.8057
     7.1248

          k =-0.1818 0.6364-0.4545 (  6323 PWs)   bands (ev):

   -30.1605 -13.6816 -13.6466 -13.6206   2.3440   3.1597   4.5541   6.6062
     7.4097

          k =-0.2727 0.7273-0.4545 (  6332 PWs)   bands (ev):

   -30.1604 -13.6761 -13.6514 -13.6225   2.2706   3.6179   4.1195   6.6916
     7.1074

          k =-0.2727 0.6364-0.3636 (  6324 PWs)   bands (ev):

   -30.1601 -13.6735 -13.6586 -13.6231   2.9848   3.0511   3.8830   6.5917
     7.2986

          k = 0.0000 0.0000 0.1818 (  6395 PWs)   bands (ev):

   -30.1648 -13.6218 -13.6180 -13.6180  -0.0511   6.0549   6.0549   6.3869
     6.5730

          k = 0.0000-0.0909 0.2727 (  6359 PWs)   bands (ev):

   -30.1638 -13.6366 -13.6235 -13.6189   0.2574   5.5413   5.8041   6.3586
     6.6110

          k = 0.0000-0.1818 0.3636 (  6357 PWs)   bands (ev):

   -30.1624 -13.6572 -13.6308 -13.6187   0.7521   4.7297   5.5157   6.4030
     7.0073

          k = 0.0000-0.2727 0.4545 (  6338 PWs)   bands (ev):

   -30.1612 -13.6760 -13.6374 -13.6184   1.4043   3.8834   5.2889   6.4114
     7.5137

          k = 0.0000-0.3636 0.5455 (  6319 PWs)   bands (ev):

   -30.1605 -13.6871 -13.6413 -13.6183   2.1688   3.0322   5.1672   6.3362
     7.5525

          k =-0.0909-0.0909 0.3636 (  6354 PWs)   bands (ev):

   -30.1626 -13.6505 -13.6297 -13.6224   0.6556   5.0511   5.4866   6.2359
     6.8663

          k =-0.0909-0.1818 0.4545 (  6341 PWs)   bands (ev):

   -30.1614 -13.6673 -13.6378 -13.6231   1.2249   4.3443   5.1718   6.2996
     7.1841

          k =-0.0909-0.2727 0.5455 (  6323 PWs)   bands (ev):

   -30.1604 -13.6802 -13.6443 -13.6230   1.9306   3.5526   4.9659   6.2596
     7.3010

          k =-0.0909 0.6364-0.3636 (  6332 PWs)   bands (ev):

   -30.1601 -13.6850 -13.6468 -13.6230   2.6779   2.7772   4.8929   6.1978
     7.4182

          k =-0.1818 0.1818 0.1818 (  6351 PWs)   bands (ev):

   -30.1636 -13.6470 -13.6185 -13.6185   0.3582   5.3658   5.3658   6.7254
     7.1433

          k =-0.1818-0.1818 0.5455 (  6344 PWs)   bands (ev):

   -30.1604 -13.6749 -13.6480 -13.6251   1.8490   3.9348   4.6134   6.4837
     6.9772

          k =-0.1818 0.7273-0.3636 (  6331 PWs)   bands (ev):

   -30.1598 -13.6779 -13.6561 -13.6256   2.5794   3.3350   4.2709   6.5319
     7.0889

          k =-0.2727 0.2727 0.1818 (  6357 PWs)   bands (ev):

   -30.1624 -13.6632 -13.6266 -13.6189   0.8496   4.6803   5.0338   6.9233
     7.2137

          k =-0.2727 0.7273-0.2727 (  6335 PWs)   bands (ev):

   -30.1596 -13.6690 -13.6690 -13.6262   3.1791   3.1791   3.7139   6.9514
     7.1659

          k =-0.3636 0.3636 0.1818 (  6351 PWs)   bands (ev):

   -30.1613 -13.6760 -13.6359 -13.6193   1.4984   3.9106   4.8037   6.8409
     7.4220

          k =-0.3636 0.2727 0.2727 (  6350 PWs)   bands (ev):

   -30.1615 -13.6726 -13.6327 -13.6234   1.4114   4.2628   4.5528   6.7294
     7.3323

          k = 0.5455-0.5455 0.1818 (  6338 PWs)   bands (ev):

   -30.1607 -13.6830 -13.6420 -13.6196   2.2597   3.0964   4.6867   6.6195
     7.6523

          k = 0.5455-0.6364 0.2727 (  6344 PWs)   bands (ev):

   -30.1608 -13.6761 -13.6429 -13.6251   2.1078   3.6371   4.3023   6.3390
     7.4685

          k = 0.4545-0.5455 0.2727 (  6357 PWs)   bands (ev):

   -30.1605 -13.6762 -13.6481 -13.6255   2.8720   2.8874   4.2300   6.1660
     7.5739

          k = 0.4545-0.6364 0.3636 (  6329 PWs)   bands (ev):

   -30.1604 -13.6691 -13.6545 -13.6282   2.8077   3.4068   3.7650   5.9742
     7.5554

          k = 0.0000 0.0000 0.3636 (  6347 PWs)   bands (ev):

   -30.1628 -13.6400 -13.6292 -13.6292   0.5578   5.5270   5.6951   5.6951
     6.7414

          k = 0.0000-0.0909 0.4545 (  6358 PWs)   bands (ev):

   -30.1615 -13.6557 -13.6367 -13.6313   1.0393   4.7927   5.5127   5.7571
     7.0659

          k = 0.0000-0.1818 0.5455 (  6341 PWs)   bands (ev):

   -30.1604 -13.6726 -13.6435 -13.6307   1.6730   4.0177   5.3442   5.7435
     7.1236

          k = 0.0000-0.2727 0.6364 (  6328 PWs)   bands (ev):

   -30.1597 -13.6827 -13.6476 -13.6302   2.4175   3.2188   5.2483   5.6214
     7.1666

          k =-0.0909-0.0909 0.5455 (  6349 PWs)   bands (ev):

   -30.1604 -13.6662 -13.6454 -13.6349   1.5858   4.3334   5.1596   5.8391
     6.9180

          k =-0.0909-0.1818 0.6364 (  6338 PWs)   bands (ev):

   -30.1595 -13.6759 -13.6529 -13.6350   2.2584   3.7292   4.8163   5.9235
     6.8016

          k =-0.0909 0.7273-0.2727 (  6320 PWs)   bands (ev):

   -30.1591 -13.6797 -13.6557 -13.6348   2.9592   3.0479   4.6891   5.9017
     6.9201

          k =-0.1818 0.8182-0.2727 (  6325 PWs)   bands (ev):

   -30.1589 -13.6742 -13.6640 -13.6356   2.9161   3.4618   4.1850   6.3117
     6.6329

          k = 0.6364-0.6364 0.3636 (  6377 PWs)   bands (ev):

   -30.1609 -13.6738 -13.6343 -13.6343   2.0271   4.0399   4.0399   6.1005
     7.6292

          k = 0.5455-0.5455 0.3636 (  6350 PWs)   bands (ev):

   -30.1605 -13.6688 -13.6465 -13.6352   2.7359   3.4459   3.9298   5.6272
     7.6854

          k = 0.4545-0.5455 0.4545 (  6341 PWs)   bands (ev):

   -30.1604 -13.6563 -13.6563 -13.6403   3.3024   3.3024   3.5910   5.3026
     7.7593

          k = 0.0000 0.0000 0.5455 (  6342 PWs)   bands (ev):

   -30.1604 -13.6571 -13.6444 -13.6444   1.4966   4.6118   5.4686   5.4686
     6.7826

          k = 0.0000-0.0909 0.6364 (  6326 PWs)   bands (ev):

   -30.1593 -13.6682 -13.6515 -13.6465   2.0915   4.1101   5.3777   5.4004
     6.4286

          k = 0.0000-0.1818 0.7273 (  6326 PWs)   bands (ev):

   -30.1586 -13.6769 -13.6557 -13.6456   2.7708   3.4901   5.1502   5.3523
     6.5696

          k =-0.0909-0.0909 0.7273 (  6348 PWs)   bands (ev):

   -30.1584 -13.6722 -13.6603 -13.6487   2.6929   3.7867   4.8644   5.7153
     6.2291

          k =-0.0909 0.8182-0.1818 (  6338 PWs)   bands (ev):

   -30.1581 -13.6738 -13.6644 -13.6486   3.2172   3.4087   4.6060   5.8131
     6.2982

          k = 0.0000 0.0000 0.7273 (  6350 PWs)   bands (ev):

   -30.1582 -13.6662 -13.6589 -13.6589   2.6138   3.9689   5.4334   5.4334
     5.7867

          k = 0.0000-0.0909 0.8182 (  6354 PWs)   bands (ev):

   -30.1576 -13.6715 -13.6632 -13.6597   3.1563   3.6662   5.1345   5.4443
     5.9377

          k =-0.0909 0.9091-0.0909 (  6344 PWs)   bands (ev):

   -30.1573 -13.6693 -13.6693 -13.6607   3.4974   3.4974   4.9777   5.7414
     5.7414

          k = 0.0000 0.0000 0.9091 (  6330 PWs)   bands (ev):

   -30.1570 -13.6687 -13.6677 -13.6677   3.4782   3.6407   5.4820   5.4966
     5.4966

     the Fermi energy is     1.9690 ev

!    total energy              =     -58.77421409 Ry
     Harris-Foulkes estimate   =     -58.77421410 Ry
     estimated scf accuracy    <          1.4E-09 Ry

     The total energy is the sum of the following terms:

     one-electron contribution =     -36.58806154 Ry
     hartree contribution      =      18.88047898 Ry
     xc contribution           =     -11.16985138 Ry
     ewald contribution        =     -29.89633970 Ry
     smearing contrib. (-TS)   =      -0.00044045 Ry

     convergence has been achieved in   5 iterations

     Forces acting on atoms (cartesian axes, Ry/au):

     atom    1 type  1   force =     0.00000000    0.00000000    0.00000000

     Total force =     0.000000     Total SCF correction =     0.000000


     Computing stress (Cartesian axis) and pressure

          total   stress  (Ry/bohr**3)                   (kbar)     P=    1.30
   0.00000886  -0.00000000   0.00000000          1.30     -0.00      0.00
  -0.00000000   0.00000886  -0.00000000         -0.00      1.30     -0.00
   0.00000000  -0.00000000   0.00000886          0.00     -0.00      1.30


     Writing output data file K.save/

     init_run     :      1.56s CPU      1.62s WALL (       1 calls)
     electrons    :     21.54s CPU     22.19s WALL (       1 calls)
     forces       :      0.31s CPU      0.31s WALL (       1 calls)
     stress       :      1.19s CPU      1.19s WALL (       1 calls)

     Called by init_run:
     wfcinit      :      1.14s CPU      1.19s WALL (       1 calls)
     potinit      :      0.05s CPU      0.05s WALL (       1 calls)
     hinit0       :      0.24s CPU      0.25s WALL (       1 calls)

     Called by electrons:
     c_bands      :     17.82s CPU     18.34s WALL (       6 calls)
     sum_band     :      3.31s CPU      3.43s WALL (       6 calls)
     v_of_rho     :      0.19s CPU      0.19s WALL (       6 calls)
     newd         :      0.28s CPU      0.29s WALL (       6 calls)
     mix_rho      :      0.01s CPU      0.01s WALL (       6 calls)

     Called by c_bands:
     init_us_2    :      0.63s CPU      0.64s WALL (     840 calls)
     cegterg      :     17.06s CPU     17.58s WALL (     336 calls)

     Called by sum_band:
     sum_band:bec :      0.00s CPU      0.00s WALL (     336 calls)
     addusdens    :      0.28s CPU      0.28s WALL (       6 calls)

     Called by *egterg:
     h_psi        :     14.83s CPU     15.35s WALL (    1598 calls)
     s_psi        :      0.41s CPU      0.42s WALL (    1598 calls)
     g_psi        :      0.04s CPU      0.04s WALL (    1206 calls)
     cdiaghg      :      0.38s CPU      0.39s WALL (    1486 calls)

     Called by h_psi:
     h_psi:pot    :     14.76s CPU     15.28s WALL (    1598 calls)
     h_psi:calbec :      0.79s CPU      0.82s WALL (    1598 calls)
     vloc_psi     :     13.49s CPU     13.98s WALL (    1598 calls)
     add_vuspsi   :      0.46s CPU      0.46s WALL (    1598 calls)

     General routines
     calbec       :      1.23s CPU      1.26s WALL (    2214 calls)
     fft          :      0.11s CPU      0.12s WALL (      93 calls)
     ffts         :      0.01s CPU      0.01s WALL (       6 calls)
     fftw         :     14.57s CPU     15.12s WALL (   20702 calls)

     Parallel routines
     fft_scatt_xy :      1.18s CPU      1.23s WALL (   20801 calls)
     fft_scatt_yz :      3.25s CPU      3.39s WALL (   20801 calls)

     PWSCF        :    25.45s CPU        26.32s WALL


   This run was terminated on:   1:16:59   8Apr2024            

=------------------------------------------------------------------------------=
   JOB DONE.
=------------------------------------------------------------------------------=
