
     Program PWSCF v.6.3MaX starts on  8Apr2024 at  0:12:12 

     This program is part of the open-source Quantum ESPRESSO suite
     for quantum simulation of materials; please cite
         "P. Giannozzi et al., J. Phys.:Condens. Matter 21 395502 (2009);
         "P. Giannozzi et al., J. Phys.:Condens. Matter 29 465901 (2017);
          URL http://www.quantum-espresso.org", 
     in publications or presentations arising from this work. More details at
     http://www.quantum-espresso.org/quote

     Parallel version (MPI), running on     5 processors

     MPI processes distributed on     1 nodes
     R & G space division:  proc/nbgrp/npool/nimage =       5
     Waiting for input...
     Reading input from standard input

     Current dimensions of program PWSCF are:
     Max number of different atomic species (ntypx) = 10
     Max number of k-points (npk) =  40000
     Max angular momentum in pseudopotentials (lmaxx) =  3
               file K.pbe-spn-kjpaw_psl.1.0.0.UPF: wavefunction(s)  3S renormalized

     Subspace diagonalization in iterative solution of the eigenvalue problem:
     a serial algorithm will be used


     Parallelization info
     --------------------
     sticks:   dense  smooth     PW     G-vecs:    dense   smooth      PW
     Min          66      66     23                  756      756     153
     Max          67      67     24                  757      757     154
     Sum         333     333    117                 3781     3781     767



     bravais-lattice index     =            3
     lattice parameter (alat)  =       9.8600  a.u.
     unit-cell volume          =     479.2926 (a.u.)^3
     number of atoms/cell      =            1
     number of atomic types    =            1
     number of electrons       =         9.00
     number of Kohn-Sham states=            9
     kinetic-energy cutoff     =      15.0000  Ry
     charge density cutoff     =      60.0000  Ry
     convergence threshold     =      1.0E-08
     mixing beta               =       0.7000
     number of iterations used =            8  plain     mixing
     Exchange-correlation      = SLA PW PBX PBC ( 1  4  3  4 0 0)

     celldm(1)=   9.860000  celldm(2)=   0.000000  celldm(3)=   0.000000
     celldm(4)=   0.000000  celldm(5)=   0.000000  celldm(6)=   0.000000

     crystal axes: (cart. coord. in units of alat)
               a(1) = (   0.500000   0.500000   0.500000 )  
               a(2) = (  -0.500000   0.500000   0.500000 )  
               a(3) = (  -0.500000  -0.500000   0.500000 )  

     reciprocal axes: (cart. coord. in units 2 pi/alat)
               b(1) = (  1.000000  0.000000  1.000000 )  
               b(2) = ( -1.000000  1.000000  0.000000 )  
               b(3) = (  0.000000 -1.000000  1.000000 )  


     PseudoPot. # 1 for K  read from file:
     /home/lorenzo/pseudos/K/K.pbe-spn-kjpaw_psl.1.0.0.UPF
     MD5 check sum: 34cc42130a09071ebe376fd42eb21491
     Pseudo is Projector augmented-wave + core cor, Zval =  9.0
     Generated using "atomic" code by A. Dal Corso v.6.2.2
     Shape of augmentation charge: PSQ
     Using radial grid of 1165 points,  6 beta functions with: 
                l(1) =   0
                l(2) =   0
                l(3) =   1
                l(4) =   1
                l(5) =   2
                l(6) =   2
     Q(r) pseudized with 0 coefficients 


     atomic species   valence    mass     pseudopotential
        K              9.00    39.09830     K ( 1.00)

     48 Sym. Ops., with inversion, found



   Cartesian axes

     site n.     atom                  positions (alat units)
         1           K   tau(   1) = (   0.0000000   0.0000000   0.0000000  )

     number of k points=    47  gaussian smearing, width (Ry)=  0.0100
                       cart. coord. in units 2pi/alat
        k(    1) = (   0.0000000   0.0000000   0.0000000), wk =   0.0020000
        k(    2) = (   0.0000000  -0.1000000   0.1000000), wk =   0.0240000
        k(    3) = (   0.0000000  -0.2000000   0.2000000), wk =   0.0240000
        k(    4) = (   0.0000000  -0.3000000   0.3000000), wk =   0.0240000
        k(    5) = (   0.0000000  -0.4000000   0.4000000), wk =   0.0240000
        k(    6) = (   0.0000000   0.5000000  -0.5000000), wk =   0.0120000
        k(    7) = (  -0.1000000  -0.1000000   0.2000000), wk =   0.0480000
        k(    8) = (  -0.1000000  -0.2000000   0.3000000), wk =   0.0960000
        k(    9) = (  -0.1000000  -0.3000000   0.4000000), wk =   0.0960000
        k(   10) = (  -0.1000000   0.6000000  -0.5000000), wk =   0.0960000
        k(   11) = (  -0.2000000  -0.2000000   0.4000000), wk =   0.0480000
        k(   12) = (  -0.2000000   0.7000000  -0.5000000), wk =   0.0960000
        k(   13) = (  -0.2000000   0.6000000  -0.4000000), wk =   0.0480000
        k(   14) = (  -0.3000000   0.7000000  -0.4000000), wk =   0.0480000
        k(   15) = (   0.0000000   0.0000000   0.2000000), wk =   0.0120000
        k(   16) = (   0.0000000  -0.1000000   0.3000000), wk =   0.0480000
        k(   17) = (   0.0000000  -0.2000000   0.4000000), wk =   0.0480000
        k(   18) = (   0.0000000  -0.3000000   0.5000000), wk =   0.0480000
        k(   19) = (   0.0000000   0.6000000  -0.4000000), wk =   0.0240000
        k(   20) = (  -0.1000000  -0.1000000   0.4000000), wk =   0.0480000
        k(   21) = (  -0.1000000  -0.2000000   0.5000000), wk =   0.0960000
        k(   22) = (  -0.1000000   0.7000000  -0.4000000), wk =   0.0960000
        k(   23) = (  -0.2000000   0.2000000   0.2000000), wk =   0.0160000
        k(   24) = (  -0.2000000   0.8000000  -0.4000000), wk =   0.0480000
        k(   25) = (  -0.2000000   0.7000000  -0.3000000), wk =   0.0480000
        k(   26) = (  -0.3000000   0.3000000   0.2000000), wk =   0.0480000
        k(   27) = (   0.6000000  -0.6000000   0.2000000), wk =   0.0480000
        k(   28) = (   0.6000000  -0.7000000   0.3000000), wk =   0.0480000
        k(   29) = (   0.5000000  -0.5000000   0.2000000), wk =   0.0240000
        k(   30) = (   0.5000000  -0.6000000   0.3000000), wk =   0.0960000
        k(   31) = (   0.4000000  -0.6000000   0.4000000), wk =   0.0160000
        k(   32) = (   0.0000000   0.0000000   0.4000000), wk =   0.0120000
        k(   33) = (   0.0000000  -0.1000000   0.5000000), wk =   0.0480000
        k(   34) = (   0.0000000  -0.2000000   0.6000000), wk =   0.0480000
        k(   35) = (   0.0000000   0.7000000  -0.3000000), wk =   0.0240000
        k(   36) = (  -0.1000000  -0.1000000   0.6000000), wk =   0.0480000
        k(   37) = (  -0.1000000   0.8000000  -0.3000000), wk =   0.0960000
        k(   38) = (  -0.2000000   0.8000000  -0.2000000), wk =   0.0160000
        k(   39) = (   0.6000000  -0.6000000   0.4000000), wk =   0.0160000
        k(   40) = (   0.5000000  -0.5000000   0.4000000), wk =   0.0240000
        k(   41) = (   0.0000000   0.0000000   0.6000000), wk =   0.0120000
        k(   42) = (   0.0000000  -0.1000000   0.7000000), wk =   0.0480000
        k(   43) = (   0.0000000   0.8000000  -0.2000000), wk =   0.0240000
        k(   44) = (  -0.1000000   0.9000000  -0.2000000), wk =   0.0480000
        k(   45) = (   0.0000000   0.0000000   0.8000000), wk =   0.0120000
        k(   46) = (   0.0000000   0.9000000  -0.1000000), wk =   0.0240000
        k(   47) = (   0.0000000   0.0000000  -1.0000000), wk =   0.0020000

     Dense  grid:     3781 G-vectors     FFT dimensions: (  24,  24,  24)

     Estimated max dynamical RAM per process >       4.46 MB

     Estimated total dynamical RAM >      22.28 MB

     Check: negative/imaginary core charge=   -0.000363    0.000000

     Initial potential from superposition of free atoms

     starting charge    8.98117, renormalised to    9.00000
     Starting wfcs are    8 randomized atomic wfcs +    1 random wfcs
     Checking if some PAW data can be deallocated... 

     total cpu time spent up to now is        1.0 secs

     Self-consistent Calculation

     iteration #  1     ecut=    15.00 Ry     beta= 0.70
     Davidson diagonalization with overlap
     ethr =  1.00E-02,  avg # of iterations =  6.8

     Threshold (ethr) on eigenvalues was too large:
     Diagonalizing with lowered threshold

     Davidson diagonalization with overlap
     ethr =  5.01E-04,  avg # of iterations =  1.9

     total cpu time spent up to now is        2.2 secs

     total energy              =    -112.65602168 Ry
     Harris-Foulkes estimate   =    -112.69065226 Ry
     estimated scf accuracy    <       0.04623497 Ry

     iteration #  2     ecut=    15.00 Ry     beta= 0.70
     Davidson diagonalization with overlap
     ethr =  5.14E-04,  avg # of iterations =  2.0

     total cpu time spent up to now is        2.5 secs

     total energy              =    -112.66756253 Ry
     Harris-Foulkes estimate   =    -112.66821249 Ry
     estimated scf accuracy    <       0.00280357 Ry

     iteration #  3     ecut=    15.00 Ry     beta= 0.70
     Davidson diagonalization with overlap
     ethr =  3.12E-05,  avg # of iterations =  3.9

     total cpu time spent up to now is        3.0 secs

     total energy              =    -112.66782090 Ry
     Harris-Foulkes estimate   =    -112.66779380 Ry
     estimated scf accuracy    <       0.00016448 Ry

     iteration #  4     ecut=    15.00 Ry     beta= 0.70
     Davidson diagonalization with overlap
     ethr =  1.83E-06,  avg # of iterations =  3.6

     total cpu time spent up to now is        3.4 secs

     total energy              =    -112.66782481 Ry
     Harris-Foulkes estimate   =    -112.66782495 Ry
     estimated scf accuracy    <       0.00000030 Ry

     iteration #  5     ecut=    15.00 Ry     beta= 0.70
     Davidson diagonalization with overlap
     ethr =  3.38E-09,  avg # of iterations =  2.6

     total cpu time spent up to now is        3.7 secs

     total energy              =    -112.66782504 Ry
     Harris-Foulkes estimate   =    -112.66782504 Ry
     estimated scf accuracy    <       0.00000002 Ry

     iteration #  6     ecut=    15.00 Ry     beta= 0.70
     Davidson diagonalization with overlap
     ethr =  1.69E-10,  avg # of iterations =  2.0

     total cpu time spent up to now is        4.1 secs

     End of self-consistent calculation

          k = 0.0000 0.0000 0.0000 (   459 PWs)   bands (ev):

   -31.2972 -13.4726 -13.4726 -13.4726  -0.5463   6.6483   6.6483   6.6483
     7.7167

          k = 0.0000-0.1000 0.1000 (   463 PWs)   bands (ev):

   -31.2968 -13.5401 -13.4835 -13.4671  -0.4161   6.3411   6.4313   6.7519
     7.4392

          k = 0.0000-0.2000 0.2000 (   475 PWs)   bands (ev):

   -31.2958 -13.6115 -13.5779 -13.5410  -0.0345   5.4304   5.9839   7.0084
     7.4492

          k = 0.0000-0.3000 0.3000 (   468 PWs)   bands (ev):

   -31.2944 -13.6232 -13.5582 -13.4904   0.5723   4.3868   5.6170   7.4545
     7.5259

          k = 0.0000-0.4000 0.4000 (   474 PWs)   bands (ev):

   -31.2934 -13.6547 -13.6195 -13.5379   1.3662   3.3301   5.3514   7.2473
     7.6009

          k = 0.0000 0.5000-0.5000 (   476 PWs)   bands (ev):

   -31.2930 -13.6609 -13.6605 -13.5288   2.1688   2.4508   5.2608   7.1276
     7.7765

          k =-0.1000-0.1000 0.2000 (   471 PWs)   bands (ev):

   -31.2961 -13.6015 -13.5421 -13.5082  -0.1600   5.8057   5.9956   6.8905
     7.2120

          k =-0.1000-0.2000 0.3000 (   468 PWs)   bands (ev):

   -31.2949 -13.5750 -13.5616 -13.5162   0.3370   4.9137   5.5403   7.1430
     7.2496

          k =-0.1000-0.3000 0.4000 (   471 PWs)   bands (ev):

   -31.2937 -13.6476 -13.5922 -13.5129   1.0375   3.8985   5.2154   7.0454
     7.5835

          k =-0.1000 0.6000-0.5000 (   470 PWs)   bands (ev):

   -31.2930 -13.6570 -13.5845 -13.5149   1.8970   2.8893   5.0498   6.8436
     7.8983

          k =-0.2000-0.2000 0.4000 (   465 PWs)   bands (ev):

   -31.2938 -13.5947 -13.5293 -13.5195   0.9287   4.3539   4.8799   7.0863
     7.2883

          k =-0.2000 0.7000-0.5000 (   473 PWs)   bands (ev):

   -31.2930 -13.6509 -13.5904 -13.5744   1.7026   3.5427   4.4763   6.7489
     7.5083

          k =-0.2000 0.6000-0.4000 (   474 PWs)   bands (ev):

   -31.2927 -13.6500 -13.6114 -13.5831   2.5655   2.6456   4.3589   6.5991
     7.7353

          k =-0.3000 0.7000-0.4000 (   471 PWs)   bands (ev):

   -31.2926 -13.6183 -13.6161 -13.5694   2.5207   3.2603   3.6676   6.5676
     7.6553

          k = 0.0000 0.0000 0.2000 (   470 PWs)   bands (ev):

   -31.2964 -13.5859 -13.5177 -13.5177  -0.2873   6.2721   6.2721   6.7105
     6.8056

          k = 0.0000-0.1000 0.3000 (   470 PWs)   bands (ev):

   -31.2954 -13.6052 -13.5326 -13.5297   0.0905   5.4720   5.9343   6.5242
     7.0833

          k = 0.0000-0.2000 0.4000 (   468 PWs)   bands (ev):

   -31.2941 -13.6009 -13.5599 -13.5269   0.6937   4.4439   5.5858   6.5121
     7.5538

          k = 0.0000-0.3000 0.5000 (   472 PWs)   bands (ev):

   -31.2931 -13.6573 -13.5756 -13.5542   1.4799   3.4100   5.3542   6.3868
     7.9992

          k = 0.0000 0.6000-0.4000 (   472 PWs)   bands (ev):

   -31.2927 -13.6611 -13.5760 -13.5578   2.3011   2.5086   5.2758   6.2953
     8.1280

          k =-0.1000-0.1000 0.4000 (   464 PWs)   bands (ev):

   -31.2942 -13.5772 -13.5267 -13.5103   0.5783   4.8709   5.4566   6.4193
     7.3702

          k =-0.1000-0.2000 0.5000 (   470 PWs)   bands (ev):

   -31.2931 -13.6424 -13.5746 -13.5377   1.2654   4.0104   5.0380   6.4514
     7.4645

          k =-0.1000 0.7000-0.4000 (   467 PWs)   bands (ev):

   -31.2924 -13.6418 -13.5683 -13.5192   2.1126   3.0559   4.8335   6.3457
     7.6983

          k =-0.2000 0.2000 0.2000 (   477 PWs)   bands (ev):

   -31.2952 -13.6084 -13.6084 -13.5735   0.2146   5.2918   5.2918   7.0259
     7.6514

          k =-0.2000 0.8000-0.4000 (   468 PWs)   bands (ev):

   -31.2923 -13.6251 -13.6115 -13.5187   2.0174   3.6009   4.2295   6.7794
     7.1580

          k =-0.2000 0.7000-0.3000 (   472 PWs)   bands (ev):

   -31.2921 -13.6703 -13.6221 -13.5374   2.8292   2.9129   3.9193   6.8306
     7.4255

          k =-0.3000 0.3000 0.2000 (   471 PWs)   bands (ev):

   -31.2941 -13.5949 -13.5821 -13.5573   0.8135   4.4315   4.9166   6.8635
     7.8353

          k = 0.6000-0.6000 0.2000 (   474 PWs)   bands (ev):

   -31.2932 -13.6506 -13.5877 -13.5792   1.5949   3.4787   4.6879   6.5242
     8.0458

          k = 0.6000-0.7000 0.3000 (   478 PWs)   bands (ev):

   -31.2934 -13.6626 -13.6289 -13.5951   1.4906   3.9761   4.3065   6.2598
     7.9851

          k = 0.5000-0.5000 0.2000 (   472 PWs)   bands (ev):

   -31.2929 -13.6044 -13.6021 -13.5881   2.4368   2.5891   4.6065   6.3597
     8.1509

          k = 0.5000-0.6000 0.3000 (   477 PWs)   bands (ev):

   -31.2929 -13.6413 -13.6320 -13.6142   2.3248   3.2157   4.0452   5.8552
     8.1440

          k = 0.4000-0.6000 0.4000 (   475 PWs)   bands (ev):

   -31.2927 -13.6598 -13.6034 -13.6034   3.0596   3.0596   3.4043   5.6121
     8.3122

          k = 0.0000 0.0000 0.4000 (   470 PWs)   bands (ev):

   -31.2944 -13.5955 -13.5540 -13.5540   0.4582   5.3923   5.7532   5.7532
     7.2837

          k = 0.0000-0.1000 0.5000 (   463 PWs)   bands (ev):

   -31.2932 -13.5772 -13.5364 -13.5172   1.0449   4.5591   5.5379   5.7423
     7.3767

          k = 0.0000-0.2000 0.6000 (   468 PWs)   bands (ev):

   -31.2922 -13.6375 -13.5537 -13.5520   1.8034   3.6244   5.3663   5.5734
     7.2584

          k = 0.0000 0.7000-0.3000 (   464 PWs)   bands (ev):

   -31.2918 -13.6407 -13.5503 -13.5017   2.6831   2.6925   5.3198   5.4492
     7.3920

          k =-0.1000-0.1000 0.6000 (   467 PWs)   bands (ev):

   -31.2922 -13.6247 -13.5870 -13.5227   1.7016   4.0564   4.9419   5.9183
     6.8457

          k =-0.1000 0.8000-0.3000 (   466 PWs)   bands (ev):

   -31.2915 -13.6256 -13.5959 -13.5214   2.4964   3.3523   4.5170   5.9993
     6.8959

          k =-0.2000 0.8000-0.2000 (   469 PWs)   bands (ev):

   -31.2913 -13.6387 -13.6387 -13.5339   3.1393   3.1393   3.8799   6.5386
     6.5386

          k = 0.6000-0.6000 0.4000 (   477 PWs)   bands (ev):

   -31.2930 -13.6883 -13.6018 -13.6018   2.2266   3.7580   3.7580   5.4139
     8.3988

          k = 0.5000-0.5000 0.4000 (   474 PWs)   bands (ev):

   -31.2928 -13.6285 -13.6278 -13.5949   2.9931   3.1041   3.6848   5.0632
     8.4418

          k = 0.0000 0.0000 0.6000 (   462 PWs)   bands (ev):

   -31.2921 -13.5795 -13.5348 -13.5348   1.5969   4.3905   5.4477   5.4477
     6.4422

          k = 0.0000-0.1000 0.7000 (   466 PWs)   bands (ev):

   -31.2912 -13.6250 -13.6013 -13.5290   2.2975   3.8330   5.1663   5.3547
     6.2750

          k = 0.0000 0.8000-0.2000 (   470 PWs)   bands (ev):

   -31.2909 -13.6669 -13.6300 -13.5427   2.9826   3.1906   4.9413   5.3166
     6.4655

          k =-0.1000 0.9000-0.2000 (   468 PWs)   bands (ev):

   -31.2906 -13.6602 -13.6334 -13.5287   2.9634   3.5300   4.5703   5.7041
     6.0598

          k = 0.0000 0.0000 0.8000 (   466 PWs)   bands (ev):

   -31.2903 -13.6079 -13.6079 -13.5730   2.8874   3.7632   5.3231   5.3231
     5.4586

          k = 0.0000 0.9000-0.1000 (   478 PWs)   bands (ev):

   -31.2901 -13.6802 -13.6651 -13.6641   3.3410   3.5046   5.0014   5.3040
     5.6547

          k = 0.0000 0.0000-1.0000 (   466 PWs)   bands (ev):

   -31.2897 -13.6069 -13.6069 -13.6069   3.5642   3.5642   5.3088   5.3088
     5.3088

     the Fermi energy is     1.7130 ev

!    total energy              =    -112.66782504 Ry
     Harris-Foulkes estimate   =    -112.66782504 Ry
     estimated scf accuracy    <          2.4E-10 Ry

     total all-electron energy =     -1203.906535 Ry

     The total energy is the sum of the following terms:

     one-electron contribution =     -34.77668951 Ry
     hartree contribution      =      18.42203261 Ry
     xc contribution           =     -11.13699719 Ry
     ewald contribution        =     -29.89633977 Ry
     one-center paw contrib.   =     -55.27919928 Ry
     smearing contrib. (-TS)   =      -0.00063190 Ry

     convergence has been achieved in   6 iterations

     Forces acting on atoms (cartesian axes, Ry/au):

     atom    1 type  1   force =     0.00000000    0.00000000    0.00000000

     Total force =     0.000000     Total SCF correction =     0.000000


     Computing stress (Cartesian axis) and pressure

          total   stress  (Ry/bohr**3)                   (kbar)     P= -293.03
  -0.00199201  -0.00000000   0.00000000       -293.03     -0.00      0.00
  -0.00000000  -0.00199201  -0.00000000         -0.00   -293.03     -0.00
   0.00000000  -0.00000000  -0.00199201          0.00     -0.00   -293.03


     Writing output data file K.save/

     init_run     :      0.29s CPU      0.31s WALL (       1 calls)
     electrons    :      2.80s CPU      3.04s WALL (       1 calls)
     forces       :      0.03s CPU      0.03s WALL (       1 calls)
     stress       :      0.10s CPU      0.10s WALL (       1 calls)

     Called by init_run:
     wfcinit      :      0.08s CPU      0.08s WALL (       1 calls)
     potinit      :      0.11s CPU      0.12s WALL (       1 calls)
     hinit0       :      0.09s CPU      0.09s WALL (       1 calls)

     Called by electrons:
     c_bands      :      1.93s CPU      2.07s WALL (       7 calls)
     sum_band     :      0.29s CPU      0.30s WALL (       7 calls)
     v_of_rho     :      0.02s CPU      0.02s WALL (       7 calls)
     newd         :      0.03s CPU      0.03s WALL (       7 calls)
     PAW_pot      :      0.63s CPU      0.72s WALL (       7 calls)
     mix_rho      :      0.00s CPU      0.00s WALL (       7 calls)

     Called by c_bands:
     init_us_2    :      0.05s CPU      0.06s WALL (     799 calls)
     cegterg      :      1.86s CPU      1.99s WALL (     329 calls)

     Called by sum_band:
     sum_band:bec :      0.00s CPU      0.00s WALL (     329 calls)
     addusdens    :      0.03s CPU      0.03s WALL (       7 calls)

     Called by *egterg:
     h_psi        :      1.34s CPU      1.45s WALL (    1450 calls)
     s_psi        :      0.04s CPU      0.04s WALL (    1450 calls)
     g_psi        :      0.01s CPU      0.01s WALL (    1074 calls)
     cdiaghg      :      0.30s CPU      0.32s WALL (    1356 calls)

     Called by h_psi:
     h_psi:pot    :      1.33s CPU      1.44s WALL (    1450 calls)
     h_psi:calbec :      0.07s CPU      0.07s WALL (    1450 calls)
     vloc_psi     :      1.21s CPU      1.31s WALL (    1450 calls)
     add_vuspsi   :      0.04s CPU      0.05s WALL (    1450 calls)

     General routines
     calbec       :      0.10s CPU      0.10s WALL (    2014 calls)
     fft          :      0.02s CPU      0.02s WALL (     104 calls)
     ffts         :      0.00s CPU      0.00s WALL (       7 calls)
     fftw         :      1.30s CPU      1.40s WALL (   19373 calls)

     Parallel routines
     fft_scatt_xy :      0.12s CPU      0.13s WALL (   19484 calls)
     fft_scatt_yz :      0.35s CPU      0.38s WALL (   19484 calls)

     PWSCF        :     3.97s CPU         4.31s WALL


   This run was terminated on:   0:12:16   8Apr2024            

=------------------------------------------------------------------------------=
   JOB DONE.
=------------------------------------------------------------------------------=
