
     Program PWSCF v.6.3MaX starts on  8Apr2024 at  0:15:38 

     This program is part of the open-source Quantum ESPRESSO suite
     for quantum simulation of materials; please cite
         "P. Giannozzi et al., J. Phys.:Condens. Matter 21 395502 (2009);
         "P. Giannozzi et al., J. Phys.:Condens. Matter 29 465901 (2017);
          URL http://www.quantum-espresso.org", 
     in publications or presentations arising from this work. More details at
     http://www.quantum-espresso.org/quote

     Parallel version (MPI), running on     5 processors

     MPI processes distributed on     1 nodes
     R & G space division:  proc/nbgrp/npool/nimage =       5
     Waiting for input...
     Reading input from standard input

     Current dimensions of program PWSCF are:
     Max number of different atomic species (ntypx) = 10
     Max number of k-points (npk) =  40000
     Max angular momentum in pseudopotentials (lmaxx) =  3
               file K.pbe-spn-rrkjus_psl.1.0.0.UPF: wavefunction(s)  3S renormalized

     Subspace diagonalization in iterative solution of the eigenvalue problem:
     a serial algorithm will be used


     Parallelization info
     --------------------
     sticks:   dense  smooth     PW     G-vecs:    dense   smooth      PW
     Min          87      87     27                 1155     1155     212
     Max          88      88     28                 1155     1155     213
     Sum         437     437    139                 5775     5775    1061



     bravais-lattice index     =            3
     lattice parameter (alat)  =       9.8600  a.u.
     unit-cell volume          =     479.2926 (a.u.)^3
     number of atoms/cell      =            1
     number of atomic types    =            1
     number of electrons       =         9.00
     number of Kohn-Sham states=            9
     kinetic-energy cutoff     =      20.0000  Ry
     charge density cutoff     =      80.0000  Ry
     convergence threshold     =      1.0E-08
     mixing beta               =       0.7000
     number of iterations used =            8  plain     mixing
     Exchange-correlation      = PBE ( 1  4  3  4 0 0)

     celldm(1)=   9.860000  celldm(2)=   0.000000  celldm(3)=   0.000000
     celldm(4)=   0.000000  celldm(5)=   0.000000  celldm(6)=   0.000000

     crystal axes: (cart. coord. in units of alat)
               a(1) = (   0.500000   0.500000   0.500000 )  
               a(2) = (  -0.500000   0.500000   0.500000 )  
               a(3) = (  -0.500000  -0.500000   0.500000 )  

     reciprocal axes: (cart. coord. in units 2 pi/alat)
               b(1) = (  1.000000  0.000000  1.000000 )  
               b(2) = ( -1.000000  1.000000  0.000000 )  
               b(3) = (  0.000000 -1.000000  1.000000 )  


     PseudoPot. # 1 for K  read from file:
     /home/lorenzo/pseudos/K/K.pbe-spn-rrkjus_psl.1.0.0.UPF
     MD5 check sum: 897b700350bb708b0563e904352feb48
     Pseudo is Ultrasoft + core correction, Zval =  9.0
     Generated using "atomic" code by A. Dal Corso v.6.2.2
     Using radial grid of 1165 points,  6 beta functions with: 
                l(1) =   0
                l(2) =   0
                l(3) =   1
                l(4) =   1
                l(5) =   2
                l(6) =   2
     Q(r) pseudized with 0 coefficients 


     atomic species   valence    mass     pseudopotential
        K              9.00    39.09830     K ( 1.00)

     48 Sym. Ops., with inversion, found



   Cartesian axes

     site n.     atom                  positions (alat units)
         1           K   tau(   1) = (   0.0000000   0.0000000   0.0000000  )

     number of k points=    16  gaussian smearing, width (Ry)=  0.0100
                       cart. coord. in units 2pi/alat
        k(    1) = (   0.0000000   0.0000000   0.0000000), wk =   0.0092593
        k(    2) = (   0.0000000  -0.1666667   0.1666667), wk =   0.1111111
        k(    3) = (   0.0000000  -0.3333333   0.3333333), wk =   0.1111111
        k(    4) = (   0.0000000   0.5000000  -0.5000000), wk =   0.0555556
        k(    5) = (  -0.1666667  -0.1666667   0.3333333), wk =   0.2222222
        k(    6) = (  -0.1666667   0.6666667  -0.5000000), wk =   0.4444444
        k(    7) = (  -0.3333333   0.6666667  -0.3333333), wk =   0.0740741
        k(    8) = (   0.0000000   0.0000000   0.3333333), wk =   0.0555556
        k(    9) = (   0.0000000  -0.1666667   0.5000000), wk =   0.2222222
        k(   10) = (   0.0000000   0.6666667  -0.3333333), wk =   0.1111111
        k(   11) = (  -0.1666667   0.8333333  -0.3333333), wk =   0.2222222
        k(   12) = (   0.6666667  -0.6666667   0.3333333), wk =   0.0740741
        k(   13) = (   0.5000000  -0.5000000   0.3333333), wk =   0.1111111
        k(   14) = (   0.0000000   0.0000000   0.6666667), wk =   0.0555556
        k(   15) = (   0.0000000   0.8333333  -0.1666667), wk =   0.1111111
        k(   16) = (   0.0000000   0.0000000  -1.0000000), wk =   0.0092593

     Dense  grid:     5775 G-vectors     FFT dimensions: (  25,  25,  25)

     Estimated max dynamical RAM per process >       5.74 MB

     Estimated total dynamical RAM >      28.70 MB

     Check: negative/imaginary core charge=   -0.000041    0.000000

     Initial potential from superposition of free atoms

     starting charge    8.98117, renormalised to    9.00000
     Starting wfcs are    8 randomized atomic wfcs +    1 random wfcs

     total cpu time spent up to now is        0.9 secs

     Self-consistent Calculation

     iteration #  1     ecut=    20.00 Ry     beta= 0.70
     Davidson diagonalization with overlap
     ethr =  1.00E-02,  avg # of iterations =  7.1

     Threshold (ethr) on eigenvalues was too large:
     Diagonalizing with lowered threshold

     Davidson diagonalization with overlap
     ethr =  6.49E-05,  avg # of iterations =  5.2

     total cpu time spent up to now is        1.2 secs

     total energy              =     -58.68234537 Ry
     Harris-Foulkes estimate   =     -58.68511482 Ry
     estimated scf accuracy    <       0.00602508 Ry

     iteration #  2     ecut=    20.00 Ry     beta= 0.70
     Davidson diagonalization with overlap
     ethr =  6.69E-05,  avg # of iterations =  2.0

     total cpu time spent up to now is        1.4 secs

     total energy              =     -58.68374215 Ry
     Harris-Foulkes estimate   =     -58.68372267 Ry
     estimated scf accuracy    <       0.00042030 Ry

     iteration #  3     ecut=    20.00 Ry     beta= 0.70
     Davidson diagonalization with overlap
     ethr =  4.67E-06,  avg # of iterations =  2.4

     total cpu time spent up to now is        1.5 secs

     total energy              =     -58.68378783 Ry
     Harris-Foulkes estimate   =     -58.68376988 Ry
     estimated scf accuracy    <       0.00002976 Ry

     iteration #  4     ecut=    20.00 Ry     beta= 0.70
     Davidson diagonalization with overlap
     ethr =  3.31E-07,  avg # of iterations =  1.8

     total cpu time spent up to now is        1.6 secs

     total energy              =     -58.68378900 Ry
     Harris-Foulkes estimate   =     -58.68378897 Ry
     estimated scf accuracy    <       0.00000004 Ry

     iteration #  5     ecut=    20.00 Ry     beta= 0.70
     Davidson diagonalization with overlap
     ethr =  4.06E-10,  avg # of iterations =  2.5

     total cpu time spent up to now is        1.7 secs

     End of self-consistent calculation

          k = 0.0000 0.0000 0.0000 (   683 PWs)   bands (ev):

   -30.3983 -13.5326 -13.5326 -13.5326  -0.2463   6.5178   6.5178   6.5178
     7.4749

          k = 0.0000-0.1667 0.1667 (   708 PWs)   bands (ev):

   -30.3972 -13.6022 -13.5591 -13.5506   0.1068   5.7828   6.0890   6.7610
     7.1949

          k = 0.0000-0.3333 0.3333 (   714 PWs)   bands (ev):

   -30.3949 -13.6426 -13.5765 -13.5577   1.0998   4.1960   5.5004   7.2760
     7.4525

          k = 0.0000 0.5000-0.5000 (   726 PWs)   bands (ev):

   -30.3938 -13.6846 -13.6016 -13.5614   2.4207   2.6886   5.2670   7.0706
     8.0362

          k =-0.1667-0.1667 0.3333 (   721 PWs)   bands (ev):

   -30.3955 -13.6281 -13.5873 -13.5768   0.7815   4.9018   5.3147   7.0394
     7.1119

          k =-0.1667 0.6667-0.5000 (   727 PWs)   bands (ev):

   -30.3938 -13.6584 -13.6084 -13.5860   2.0062   3.5280   4.7904   6.8101
     7.5215

          k =-0.3333 0.6667-0.3333 (   727 PWs)   bands (ev):

   -30.3932 -13.6398 -13.6398 -13.5925   3.2131   3.2131   3.6171   6.6724
     7.5888

          k = 0.0000 0.0000 0.3333 (   707 PWs)   bands (ev):

   -30.3961 -13.5830 -13.5743 -13.5743   0.4508   5.8505   5.9041   5.9041
     6.9101

          k = 0.0000-0.1667 0.5000 (   722 PWs)   bands (ev):

   -30.3940 -13.6443 -13.5947 -13.5905   1.4143   4.3426   5.5144   5.9890
     7.4821

          k = 0.0000 0.6667-0.3333 (   732 PWs)   bands (ev):

   -30.3929 -13.6695 -13.6133 -13.6056   2.7749   2.8478   5.3387   5.8128
     7.4746

          k =-0.1667 0.8333-0.3333 (   733 PWs)   bands (ev):

   -30.3924 -13.6589 -13.6318 -13.6093   2.5508   3.7231   4.4573   6.3658
     6.8734

          k = 0.6667-0.6667 0.3333 (   736 PWs)   bands (ev):

   -30.3943 -13.6734 -13.6018 -13.6018   1.7214   4.3100   4.3100   6.4128
     7.8438

          k = 0.5000-0.5000 0.3333 (   724 PWs)   bands (ev):

   -30.3936 -13.6487 -13.6210 -13.5820   3.0400   3.0891   4.1241   5.7338
     7.9652

          k = 0.0000 0.0000 0.6667 (   735 PWs)   bands (ev):

   -30.3920 -13.6713 -13.6220 -13.6220   2.2718   4.2522   5.5011   5.5011
     6.1443

          k = 0.0000 0.8333-0.1667 (   724 PWs)   bands (ev):

   -30.3910 -13.6419 -13.6295 -13.6229   3.3010   3.5269   5.0786   5.4804
     6.2890

          k = 0.0000 0.0000-1.0000 (   736 PWs)   bands (ev):

   -30.3901 -13.6501 -13.6501 -13.6501   3.6907   5.5427   5.5427   5.5427
     7.6415

     the Fermi energy is     1.9911 ev

!    total energy              =     -58.68378903 Ry
     Harris-Foulkes estimate   =     -58.68378903 Ry
     estimated scf accuracy    <          1.7E-09 Ry

     The total energy is the sum of the following terms:

     one-electron contribution =     -36.41758295 Ry
     hartree contribution      =      18.78038588 Ry
     xc contribution           =     -11.14900748 Ry
     ewald contribution        =     -29.89633972 Ry
     smearing contrib. (-TS)   =      -0.00124477 Ry

     convergence has been achieved in   5 iterations

     Forces acting on atoms (cartesian axes, Ry/au):

     atom    1 type  1   force =     0.00000000    0.00000000    0.00000000

     Total force =     0.000000     Total SCF correction =     0.000000


     Computing stress (Cartesian axis) and pressure

          total   stress  (Ry/bohr**3)                   (kbar)     P= -104.25
  -0.00070866   0.00000000  -0.00000000       -104.25      0.00     -0.00
   0.00000000  -0.00070866   0.00000000          0.00   -104.25      0.00
  -0.00000000   0.00000000  -0.00070866         -0.00      0.00   -104.25


     Writing output data file K.save/

     init_run     :      0.17s CPU      0.18s WALL (       1 calls)
     electrons    :      0.82s CPU      0.86s WALL (       1 calls)
     forces       :      0.02s CPU      0.02s WALL (       1 calls)
     stress       :      0.08s CPU      0.08s WALL (       1 calls)

     Called by init_run:
     wfcinit      :      0.03s CPU      0.03s WALL (       1 calls)
     potinit      :      0.01s CPU      0.01s WALL (       1 calls)
     hinit0       :      0.12s CPU      0.12s WALL (       1 calls)

     Called by electrons:
     c_bands      :      0.64s CPU      0.68s WALL (       6 calls)
     sum_band     :      0.13s CPU      0.13s WALL (       6 calls)
     v_of_rho     :      0.02s CPU      0.02s WALL (       6 calls)
     newd         :      0.03s CPU      0.04s WALL (       6 calls)
     mix_rho      :      0.00s CPU      0.00s WALL (       6 calls)

     Called by c_bands:
     init_us_2    :      0.03s CPU      0.03s WALL (     240 calls)
     cegterg      :      0.61s CPU      0.64s WALL (      96 calls)

     Called by sum_band:
     sum_band:bec :      0.00s CPU      0.00s WALL (      96 calls)
     addusdens    :      0.03s CPU      0.03s WALL (       6 calls)

     Called by *egterg:
     h_psi        :      0.45s CPU      0.47s WALL (     448 calls)
     s_psi        :      0.01s CPU      0.02s WALL (     448 calls)
     g_psi        :      0.00s CPU      0.00s WALL (     336 calls)
     cdiaghg      :      0.09s CPU      0.10s WALL (     416 calls)

     Called by h_psi:
     h_psi:pot    :      0.45s CPU      0.47s WALL (     448 calls)
     h_psi:calbec :      0.02s CPU      0.03s WALL (     448 calls)
     vloc_psi     :      0.40s CPU      0.43s WALL (     448 calls)
     add_vuspsi   :      0.01s CPU      0.02s WALL (     448 calls)

     General routines
     calbec       :      0.04s CPU      0.04s WALL (     624 calls)
     fft          :      0.01s CPU      0.01s WALL (      93 calls)
     ffts         :      0.00s CPU      0.00s WALL (       6 calls)
     fftw         :      0.44s CPU      0.47s WALL (    5854 calls)

     Parallel routines
     fft_scatt_xy :      0.04s CPU      0.04s WALL (    5953 calls)
     fft_scatt_yz :      0.11s CPU      0.12s WALL (    5953 calls)

     PWSCF        :     1.78s CPU         1.88s WALL


   This run was terminated on:   0:15:40   8Apr2024            

=------------------------------------------------------------------------------=
   JOB DONE.
=------------------------------------------------------------------------------=
