
     Program PWSCF v.6.3MaX starts on  8Apr2024 at  0:51:26 

     This program is part of the open-source Quantum ESPRESSO suite
     for quantum simulation of materials; please cite
         "P. Giannozzi et al., J. Phys.:Condens. Matter 21 395502 (2009);
         "P. Giannozzi et al., J. Phys.:Condens. Matter 29 465901 (2017);
          URL http://www.quantum-espresso.org", 
     in publications or presentations arising from this work. More details at
     http://www.quantum-espresso.org/quote

     Parallel version (MPI), running on     5 processors

     MPI processes distributed on     1 nodes
     R & G space division:  proc/nbgrp/npool/nimage =       5
     Waiting for input...
     Reading input from standard input

     Current dimensions of program PWSCF are:
     Max number of different atomic species (ntypx) = 10
     Max number of k-points (npk) =  40000
     Max angular momentum in pseudopotentials (lmaxx) =  3
               file K.pbe-spn-rrkjus_psl.1.0.0.UPF: wavefunction(s)  3S renormalized

     Subspace diagonalization in iterative solution of the eigenvalue problem:
     a serial algorithm will be used


     Parallelization info
     --------------------
     sticks:   dense  smooth     PW     G-vecs:    dense   smooth      PW
     Min         282     282     82                 6766     6766    1084
     Max         283     283     83                 6768     6768    1088
     Sum        1411    1411    411                33837    33837    5425



     bravais-lattice index     =            3
     lattice parameter (alat)  =       9.8600  a.u.
     unit-cell volume          =     479.2926 (a.u.)^3
     number of atoms/cell      =            1
     number of atomic types    =            1
     number of electrons       =         9.00
     number of Kohn-Sham states=            9
     kinetic-energy cutoff     =      65.0000  Ry
     charge density cutoff     =     260.0000  Ry
     convergence threshold     =      1.0E-08
     mixing beta               =       0.7000
     number of iterations used =            8  plain     mixing
     Exchange-correlation      = PBE ( 1  4  3  4 0 0)

     celldm(1)=   9.860000  celldm(2)=   0.000000  celldm(3)=   0.000000
     celldm(4)=   0.000000  celldm(5)=   0.000000  celldm(6)=   0.000000

     crystal axes: (cart. coord. in units of alat)
               a(1) = (   0.500000   0.500000   0.500000 )  
               a(2) = (  -0.500000   0.500000   0.500000 )  
               a(3) = (  -0.500000  -0.500000   0.500000 )  

     reciprocal axes: (cart. coord. in units 2 pi/alat)
               b(1) = (  1.000000  0.000000  1.000000 )  
               b(2) = ( -1.000000  1.000000  0.000000 )  
               b(3) = (  0.000000 -1.000000  1.000000 )  


     PseudoPot. # 1 for K  read from file:
     /home/lorenzo/pseudos/K/K.pbe-spn-rrkjus_psl.1.0.0.UPF
     MD5 check sum: 897b700350bb708b0563e904352feb48
     Pseudo is Ultrasoft + core correction, Zval =  9.0
     Generated using "atomic" code by A. Dal Corso v.6.2.2
     Using radial grid of 1165 points,  6 beta functions with: 
                l(1) =   0
                l(2) =   0
                l(3) =   1
                l(4) =   1
                l(5) =   2
                l(6) =   2
     Q(r) pseudized with 0 coefficients 


     atomic species   valence    mass     pseudopotential
        K              9.00    39.09830     K ( 1.00)

     48 Sym. Ops., with inversion, found



   Cartesian axes

     site n.     atom                  positions (alat units)
         1           K   tau(   1) = (   0.0000000   0.0000000   0.0000000  )

     number of k points=    16  gaussian smearing, width (Ry)=  0.0100
                       cart. coord. in units 2pi/alat
        k(    1) = (   0.0000000   0.0000000   0.0000000), wk =   0.0092593
        k(    2) = (   0.0000000  -0.1666667   0.1666667), wk =   0.1111111
        k(    3) = (   0.0000000  -0.3333333   0.3333333), wk =   0.1111111
        k(    4) = (   0.0000000   0.5000000  -0.5000000), wk =   0.0555556
        k(    5) = (  -0.1666667  -0.1666667   0.3333333), wk =   0.2222222
        k(    6) = (  -0.1666667   0.6666667  -0.5000000), wk =   0.4444444
        k(    7) = (  -0.3333333   0.6666667  -0.3333333), wk =   0.0740741
        k(    8) = (   0.0000000   0.0000000   0.3333333), wk =   0.0555556
        k(    9) = (   0.0000000  -0.1666667   0.5000000), wk =   0.2222222
        k(   10) = (   0.0000000   0.6666667  -0.3333333), wk =   0.1111111
        k(   11) = (  -0.1666667   0.8333333  -0.3333333), wk =   0.2222222
        k(   12) = (   0.6666667  -0.6666667   0.3333333), wk =   0.0740741
        k(   13) = (   0.5000000  -0.5000000   0.3333333), wk =   0.1111111
        k(   14) = (   0.0000000   0.0000000   0.6666667), wk =   0.0555556
        k(   15) = (   0.0000000   0.8333333  -0.1666667), wk =   0.1111111
        k(   16) = (   0.0000000   0.0000000  -1.0000000), wk =   0.0092593

     Dense  grid:    33837 G-vectors     FFT dimensions: (  45,  45,  45)

     Estimated max dynamical RAM per process >      29.07 MB

     Estimated total dynamical RAM >     145.33 MB

     Check: negative/imaginary core charge=   -0.000004    0.000000

     Initial potential from superposition of free atoms

     starting charge    8.98117, renormalised to    9.00000
     Starting wfcs are    8 randomized atomic wfcs +    1 random wfcs

     total cpu time spent up to now is        1.2 secs

     Self-consistent Calculation

     iteration #  1     ecut=    65.00 Ry     beta= 0.70
     Davidson diagonalization with overlap
     ethr =  1.00E-02,  avg # of iterations =  7.0

     Threshold (ethr) on eigenvalues was too large:
     Diagonalizing with lowered threshold

     Davidson diagonalization with overlap
     ethr =  1.42E-05,  avg # of iterations =  6.6

     total cpu time spent up to now is        2.9 secs

     total energy              =     -58.77270134 Ry
     Harris-Foulkes estimate   =     -58.77322494 Ry
     estimated scf accuracy    <       0.00126347 Ry

     iteration #  2     ecut=    65.00 Ry     beta= 0.70
     Davidson diagonalization with overlap
     ethr =  1.40E-05,  avg # of iterations =  2.2

     total cpu time spent up to now is        3.6 secs

     total energy              =     -58.77293363 Ry
     Harris-Foulkes estimate   =     -58.77293608 Ry
     estimated scf accuracy    <       0.00010099 Ry

     iteration #  3     ecut=    65.00 Ry     beta= 0.70
     Davidson diagonalization with overlap
     ethr =  1.12E-06,  avg # of iterations =  2.7

     total cpu time spent up to now is        4.1 secs

     total energy              =     -58.77294353 Ry
     Harris-Foulkes estimate   =     -58.77294095 Ry
     estimated scf accuracy    <       0.00000682 Ry

     iteration #  4     ecut=    65.00 Ry     beta= 0.70
     Davidson diagonalization with overlap
     ethr =  7.58E-08,  avg # of iterations =  1.5

     total cpu time spent up to now is        4.7 secs

     total energy              =     -58.77294405 Ry
     Harris-Foulkes estimate   =     -58.77294404 Ry
     estimated scf accuracy    <       0.00000005 Ry

     iteration #  5     ecut=    65.00 Ry     beta= 0.70
     Davidson diagonalization with overlap
     ethr =  5.49E-10,  avg # of iterations =  2.4

     total cpu time spent up to now is        5.2 secs

     End of self-consistent calculation

          k = 0.0000 0.0000 0.0000 (  4213 PWs)   bands (ev):

   -30.1636 -13.6126 -13.6126 -13.6126  -0.2611   6.2637   6.2637   6.2637
     7.1827

          k = 0.0000-0.1667 0.1667 (  4228 PWs)   bands (ev):

   -30.1624 -13.6320 -13.6190 -13.6126   0.0902   5.6332   5.8817   6.5457
     6.9371

          k = 0.0000-0.3333 0.3333 (  4214 PWs)   bands (ev):

   -30.1599 -13.6702 -13.6318 -13.6125   1.0778   4.1202   5.3358   7.0343
     7.2501

          k = 0.0000 0.5000-0.5000 (  4238 PWs)   bands (ev):

   -30.1587 -13.6890 -13.6382 -13.6125   2.3895   2.6491   5.1205   6.8721
     7.7031

          k =-0.1667-0.1667 0.3333 (  4235 PWs)   bands (ev):

   -30.1605 -13.6579 -13.6270 -13.6170   0.7614   4.7940   5.1893   6.8187
     6.9391

          k =-0.1667 0.6667-0.5000 (  4248 PWs)   bands (ev):

   -30.1587 -13.6793 -13.6420 -13.6186   1.9778   3.4685   4.6899   6.6783
     7.3335

          k =-0.3333 0.6667-0.3333 (  4237 PWs)   bands (ev):

   -30.1581 -13.6652 -13.6652 -13.6222   3.1574   3.1574   3.5778   6.5952
     7.3442

          k = 0.0000 0.0000 0.3333 (  4213 PWs)   bands (ev):

   -30.1612 -13.6355 -13.6257 -13.6257   0.4315   5.7000   5.7505   5.7505
     6.6684

          k = 0.0000-0.1667 0.5000 (  4247 PWs)   bands (ev):

   -30.1589 -13.6667 -13.6390 -13.6272   1.3900   4.2600   5.3878   5.8637
     7.2777

          k = 0.0000 0.6667-0.3333 (  4242 PWs)   bands (ev):

   -30.1578 -13.6837 -13.6456 -13.6265   2.7378   2.8026   5.2194   5.7079
     7.2748

          k =-0.1667 0.8333-0.3333 (  4241 PWs)   bands (ev):

   -30.1573 -13.6742 -13.6572 -13.6323   2.5135   3.6524   4.4035   6.2368
     6.7210

          k = 0.6667-0.6667 0.3333 (  4237 PWs)   bands (ev):

   -30.1592 -13.6728 -13.6296 -13.6296   1.6966   4.2252   4.2252   6.4109
     7.5581

          k = 0.5000-0.5000 0.3333 (  4230 PWs)   bands (ev):

   -30.1585 -13.6692 -13.6469 -13.6309   2.9896   3.0446   4.0384   5.7327
     7.6668

          k = 0.0000 0.0000 0.6667 (  4276 PWs)   bands (ev):

   -30.1569 -13.6629 -13.6532 -13.6532   2.2390   4.1503   5.4273   5.4273
     6.0576

          k = 0.0000 0.8333-0.1667 (  4272 PWs)   bands (ev):

   -30.1559 -13.6730 -13.6603 -13.6540   3.2339   3.4579   5.0195   5.4157
     6.2010

          k = 0.0000 0.0000-1.0000 (  4196 PWs)   bands (ev):

   -30.1549 -13.6676 -13.6676 -13.6676   3.6002   5.5114   5.5114   5.5114
     7.6779

     the Fermi energy is     1.9627 ev

!    total energy              =     -58.77294406 Ry
     Harris-Foulkes estimate   =     -58.77294407 Ry
     estimated scf accuracy    <          1.5E-09 Ry

     The total energy is the sum of the following terms:

     one-electron contribution =     -36.58666383 Ry
     hartree contribution      =      18.88131451 Ry
     xc contribution           =     -11.17000951 Ry
     ewald contribution        =     -29.89633970 Ry
     smearing contrib. (-TS)   =      -0.00124554 Ry

     convergence has been achieved in   5 iterations

     Forces acting on atoms (cartesian axes, Ry/au):

     atom    1 type  1   force =     0.00000000    0.00000000    0.00000000

     Total force =     0.000000     Total SCF correction =     0.000000


     Computing stress (Cartesian axis) and pressure

          total   stress  (Ry/bohr**3)                   (kbar)     P=    1.72
   0.00001169   0.00000000  -0.00000000          1.72      0.00     -0.00
   0.00000000   0.00001169   0.00000000          0.00      1.72      0.00
  -0.00000000   0.00000000   0.00001169         -0.00      0.00      1.72


     Writing output data file K.save/

     init_run     :      0.45s CPU      0.47s WALL (       1 calls)
     electrons    :      3.92s CPU      4.07s WALL (       1 calls)
     forces       :      0.11s CPU      0.11s WALL (       1 calls)
     stress       :      0.41s CPU      0.41s WALL (       1 calls)

     Called by init_run:
     wfcinit      :      0.15s CPU      0.16s WALL (       1 calls)
     potinit      :      0.04s CPU      0.04s WALL (       1 calls)
     hinit0       :      0.19s CPU      0.19s WALL (       1 calls)

     Called by electrons:
     c_bands      :      2.97s CPU      3.09s WALL (       6 calls)
     sum_band     :      0.68s CPU      0.71s WALL (       6 calls)
     v_of_rho     :      0.11s CPU      0.12s WALL (       6 calls)
     newd         :      0.20s CPU      0.21s WALL (       6 calls)
     mix_rho      :      0.01s CPU      0.01s WALL (       6 calls)

     Called by c_bands:
     init_us_2    :      0.12s CPU      0.12s WALL (     240 calls)
     cegterg      :      2.83s CPU      2.95s WALL (      96 calls)

     Called by sum_band:
     sum_band:bec :      0.00s CPU      0.00s WALL (      96 calls)
     addusdens    :      0.18s CPU      0.19s WALL (       6 calls)

     Called by *egterg:
     h_psi        :      2.33s CPU      2.44s WALL (     470 calls)
     s_psi        :      0.08s CPU      0.08s WALL (     470 calls)
     g_psi        :      0.01s CPU      0.01s WALL (     358 calls)
     cdiaghg      :      0.11s CPU      0.11s WALL (     438 calls)

     Called by h_psi:
     h_psi:pot    :      2.32s CPU      2.43s WALL (     470 calls)
     h_psi:calbec :      0.14s CPU      0.15s WALL (     470 calls)
     vloc_psi     :      2.09s CPU      2.19s WALL (     470 calls)
     add_vuspsi   :      0.09s CPU      0.09s WALL (     470 calls)

     General routines
     calbec       :      0.23s CPU      0.24s WALL (     646 calls)
     fft          :      0.09s CPU      0.09s WALL (      93 calls)
     ffts         :      0.00s CPU      0.00s WALL (       6 calls)
     fftw         :      2.29s CPU      2.40s WALL (    5908 calls)

     Parallel routines
     fft_scatt_xy :      0.18s CPU      0.19s WALL (    6007 calls)
     fft_scatt_yz :      0.56s CPU      0.60s WALL (    6007 calls)

     PWSCF        :     5.60s CPU         5.84s WALL


   This run was terminated on:   0:51:32   8Apr2024            

=------------------------------------------------------------------------------=
   JOB DONE.
=------------------------------------------------------------------------------=
