
     Program PWSCF v.6.3MaX starts on  8Apr2024 at  0:40:30 

     This program is part of the open-source Quantum ESPRESSO suite
     for quantum simulation of materials; please cite
         "P. Giannozzi et al., J. Phys.:Condens. Matter 21 395502 (2009);
         "P. Giannozzi et al., J. Phys.:Condens. Matter 29 465901 (2017);
          URL http://www.quantum-espresso.org", 
     in publications or presentations arising from this work. More details at
     http://www.quantum-espresso.org/quote

     Parallel version (MPI), running on     5 processors

     MPI processes distributed on     1 nodes
     R & G space division:  proc/nbgrp/npool/nimage =       5
     Waiting for input...
     Reading input from standard input

     Current dimensions of program PWSCF are:
     Max number of different atomic species (ntypx) = 10
     Max number of k-points (npk) =  40000
     Max angular momentum in pseudopotentials (lmaxx) =  3
               file K.pbe-spn-rrkjus_psl.1.0.0.UPF: wavefunction(s)  3S renormalized

     Subspace diagonalization in iterative solution of the eigenvalue problem:
     a serial algorithm will be used


     Parallelization info
     --------------------
     sticks:   dense  smooth     PW     G-vecs:    dense   smooth      PW
     Min         239     239     69                 5244     5244     818
     Max         240     240     69                 5246     5246     819
     Sum        1199    1199    345                26227    26227    4093



     bravais-lattice index     =            3
     lattice parameter (alat)  =       9.8600  a.u.
     unit-cell volume          =     479.2926 (a.u.)^3
     number of atoms/cell      =            1
     number of atomic types    =            1
     number of electrons       =         9.00
     number of Kohn-Sham states=            9
     kinetic-energy cutoff     =      55.0000  Ry
     charge density cutoff     =     220.0000  Ry
     convergence threshold     =      1.0E-08
     mixing beta               =       0.7000
     number of iterations used =            8  plain     mixing
     Exchange-correlation      = PBE ( 1  4  3  4 0 0)

     celldm(1)=   9.860000  celldm(2)=   0.000000  celldm(3)=   0.000000
     celldm(4)=   0.000000  celldm(5)=   0.000000  celldm(6)=   0.000000

     crystal axes: (cart. coord. in units of alat)
               a(1) = (   0.500000   0.500000   0.500000 )  
               a(2) = (  -0.500000   0.500000   0.500000 )  
               a(3) = (  -0.500000  -0.500000   0.500000 )  

     reciprocal axes: (cart. coord. in units 2 pi/alat)
               b(1) = (  1.000000  0.000000  1.000000 )  
               b(2) = ( -1.000000  1.000000  0.000000 )  
               b(3) = (  0.000000 -1.000000  1.000000 )  


     PseudoPot. # 1 for K  read from file:
     /home/lorenzo/pseudos/K/K.pbe-spn-rrkjus_psl.1.0.0.UPF
     MD5 check sum: 897b700350bb708b0563e904352feb48
     Pseudo is Ultrasoft + core correction, Zval =  9.0
     Generated using "atomic" code by A. Dal Corso v.6.2.2
     Using radial grid of 1165 points,  6 beta functions with: 
                l(1) =   0
                l(2) =   0
                l(3) =   1
                l(4) =   1
                l(5) =   2
                l(6) =   2
     Q(r) pseudized with 0 coefficients 


     atomic species   valence    mass     pseudopotential
        K              9.00    39.09830     K ( 1.00)

     48 Sym. Ops., with inversion, found



   Cartesian axes

     site n.     atom                  positions (alat units)
         1           K   tau(   1) = (   0.0000000   0.0000000   0.0000000  )

     number of k points=    20  gaussian smearing, width (Ry)=  0.0100
                       cart. coord. in units 2pi/alat
        k(    1) = (   0.0000000   0.0000000   0.0000000), wk =   0.0058309
        k(    2) = (   0.0000000  -0.1428571   0.1428571), wk =   0.0699708
        k(    3) = (   0.0000000  -0.2857143   0.2857143), wk =   0.0699708
        k(    4) = (   0.0000000  -0.4285714   0.4285714), wk =   0.0699708
        k(    5) = (  -0.1428571  -0.1428571   0.2857143), wk =   0.1399417
        k(    6) = (  -0.1428571  -0.2857143   0.4285714), wk =   0.2798834
        k(    7) = (  -0.1428571   0.5714286  -0.4285714), wk =   0.1399417
        k(    8) = (  -0.2857143   0.7142857  -0.4285714), wk =   0.1399417
        k(    9) = (   0.0000000   0.0000000   0.2857143), wk =   0.0349854
        k(   10) = (   0.0000000  -0.1428571   0.4285714), wk =   0.1399417
        k(   11) = (   0.0000000  -0.2857143   0.5714286), wk =   0.1399417
        k(   12) = (  -0.1428571  -0.1428571   0.5714286), wk =   0.1399417
        k(   13) = (  -0.1428571   0.7142857  -0.2857143), wk =   0.1399417
        k(   14) = (  -0.2857143   0.2857143   0.2857143), wk =   0.0466472
        k(   15) = (   0.5714286  -0.5714286   0.2857143), wk =   0.1399417
        k(   16) = (   0.4285714  -0.5714286   0.4285714), wk =   0.0466472
        k(   17) = (   0.0000000   0.0000000   0.5714286), wk =   0.0349854
        k(   18) = (   0.0000000  -0.1428571   0.7142857), wk =   0.1399417
        k(   19) = (  -0.1428571   0.8571429  -0.1428571), wk =   0.0466472
        k(   20) = (   0.0000000   0.0000000   0.8571429), wk =   0.0349854

     Dense  grid:    26227 G-vectors     FFT dimensions: (  45,  45,  45)

     Estimated max dynamical RAM per process >      23.47 MB

     Estimated total dynamical RAM >     117.37 MB

     Check: negative/imaginary core charge=   -0.000002    0.000000

     Initial potential from superposition of free atoms

     starting charge    8.98117, renormalised to    9.00000
     Starting wfcs are    8 randomized atomic wfcs +    1 random wfcs

     total cpu time spent up to now is        1.1 secs

     Self-consistent Calculation

     iteration #  1     ecut=    55.00 Ry     beta= 0.70
     Davidson diagonalization with overlap
     ethr =  1.00E-02,  avg # of iterations =  6.6

     Threshold (ethr) on eigenvalues was too large:
     Diagonalizing with lowered threshold

     Davidson diagonalization with overlap
     ethr =  1.43E-05,  avg # of iterations =  7.0

     total cpu time spent up to now is        3.3 secs

     total energy              =     -58.77371576 Ry
     Harris-Foulkes estimate   =     -58.77424507 Ry
     estimated scf accuracy    <       0.00127690 Ry

     iteration #  2     ecut=    55.00 Ry     beta= 0.70
     Davidson diagonalization with overlap
     ethr =  1.42E-05,  avg # of iterations =  2.1

     total cpu time spent up to now is        4.0 secs

     total energy              =     -58.77395046 Ry
     Harris-Foulkes estimate   =     -58.77395316 Ry
     estimated scf accuracy    <       0.00010173 Ry

     iteration #  3     ecut=    55.00 Ry     beta= 0.70
     Davidson diagonalization with overlap
     ethr =  1.13E-06,  avg # of iterations =  2.0

     total cpu time spent up to now is        4.6 secs

     total energy              =     -58.77396036 Ry
     Harris-Foulkes estimate   =     -58.77395777 Ry
     estimated scf accuracy    <       0.00000691 Ry

     iteration #  4     ecut=    55.00 Ry     beta= 0.70
     Davidson diagonalization with overlap
     ethr =  7.68E-08,  avg # of iterations =  1.8

     total cpu time spent up to now is        5.2 secs

     total energy              =     -58.77396104 Ry
     Harris-Foulkes estimate   =     -58.77396103 Ry
     estimated scf accuracy    <       0.00000005 Ry

     iteration #  5     ecut=    55.00 Ry     beta= 0.70
     Davidson diagonalization with overlap
     ethr =  5.44E-10,  avg # of iterations =  2.3

     total cpu time spent up to now is        5.9 secs

     End of self-consistent calculation

          k = 0.0000 0.0000 0.0000 (  3319 PWs)   bands (ev):

   -30.1647 -13.6136 -13.6136 -13.6136  -0.2613   6.2643   6.2643   6.2643
     7.1818

          k = 0.0000-0.1429 0.1429 (  3289 PWs)   bands (ev):

   -30.1638 -13.6282 -13.6184 -13.6135  -0.0022   5.8126   5.9667   6.4720
     6.9375

          k = 0.0000-0.2857 0.2857 (  3296 PWs)   bands (ev):

   -30.1618 -13.6606 -13.6292 -13.6135   0.7396   4.5709   5.4692   7.0336
     7.0767

          k = 0.0000-0.4286 0.4286 (  3298 PWs)   bands (ev):

   -30.1601 -13.6862 -13.6379 -13.6135   1.8540   3.2122   5.1615   6.9236
     7.5064

          k =-0.1429-0.1429 0.2857 (  3298 PWs)   bands (ev):

   -30.1623 -13.6504 -13.6241 -13.6169   0.4990   5.1064   5.4091   6.7952
     6.8087

          k =-0.1429-0.2857 0.4286 (  3291 PWs)   bands (ev):

   -30.1605 -13.6748 -13.6371 -13.6182   1.4332   3.9657   4.9259   6.7988
     7.2371

          k =-0.1429 0.5714-0.4286 (  3302 PWs)   bands (ev):

   -30.1597 -13.6850 -13.6438 -13.6185   2.5867   2.7392   4.7619   6.6026
     7.6377

          k =-0.2857 0.7143-0.4286 (  3297 PWs)   bands (ev):

   -30.1595 -13.6747 -13.6543 -13.6225   2.4806   3.5059   3.9782   6.6489
     7.1572

          k = 0.0000 0.0000 0.2857 (  3295 PWs)   bands (ev):

   -30.1629 -13.6314 -13.6234 -13.6234   0.2516   5.8443   5.8443   5.9758
     6.5646

          k = 0.0000-0.1429 0.4286 (  3292 PWs)   bands (ev):

   -30.1610 -13.6588 -13.6345 -13.6249   0.9775   4.6563   5.4860   6.0203
     7.0937

          k = 0.0000-0.2857 0.5714 (  3309 PWs)   bands (ev):

   -30.1594 -13.6825 -13.6435 -13.6241   2.0700   3.3619   5.2301   5.9353
     7.3472

          k =-0.1429-0.1429 0.5714 (  3316 PWs)   bands (ev):

   -30.1593 -13.6727 -13.6488 -13.6299   1.8666   4.0155   4.7897   6.1626
     6.9007

          k =-0.1429 0.7143-0.2857 (  3302 PWs)   bands (ev):

   -30.1585 -13.6781 -13.6578 -13.6301   2.9681   3.0538   4.3799   6.2502
     7.0047

          k =-0.2857 0.2857 0.2857 (  3304 PWs)   bands (ev):

   -30.1610 -13.6697 -13.6258 -13.6258   1.2114   4.5497   4.5497   6.7862
     7.4257

          k = 0.5714-0.5714 0.2857 (  3293 PWs)   bands (ev):

   -30.1599 -13.6753 -13.6427 -13.6271   2.2857   3.4932   4.2713   6.1389
     7.5899

          k = 0.4286-0.5714 0.4286 (  3322 PWs)   bands (ev):

   -30.1596 -13.6587 -13.6587 -13.6344   3.2490   3.2490   3.5985   5.5325
     7.7184

          k = 0.0000 0.0000 0.5714 (  3288 PWs)   bands (ev):

   -30.1592 -13.6586 -13.6463 -13.6463   1.6510   4.5019   5.4533   5.4533
     6.6117

          k = 0.0000-0.1429 0.7143 (  3325 PWs)   bands (ev):

   -30.1578 -13.6741 -13.6558 -13.6477   2.6336   3.7024   5.1751   5.3756
     6.4192

          k =-0.1429 0.8571-0.1429 (  3324 PWs)   bands (ev):

   -30.1571 -13.6695 -13.6695 -13.6502   3.3893   3.3893   4.5203   6.0328
     6.0328

          k = 0.0000 0.0000 0.8571 (  3320 PWs)   bands (ev):

   -30.1565 -13.6681 -13.6657 -13.6657   3.3015   3.7013   5.4791   5.4791
     5.4910

     the Fermi energy is     1.9397 ev

!    total energy              =     -58.77396105 Ry
     Harris-Foulkes estimate   =     -58.77396105 Ry
     estimated scf accuracy    <          1.3E-09 Ry

     The total energy is the sum of the following terms:

     one-electron contribution =     -36.58728592 Ry
     hartree contribution      =      18.88024838 Ry
     xc contribution           =     -11.16999592 Ry
     ewald contribution        =     -29.89633976 Ry
     smearing contrib. (-TS)   =      -0.00058784 Ry

     convergence has been achieved in   5 iterations

     Forces acting on atoms (cartesian axes, Ry/au):

     atom    1 type  1   force =     0.00000000    0.00000000    0.00000000

     Total force =     0.000000     Total SCF correction =     0.000000


     Computing stress (Cartesian axis) and pressure

          total   stress  (Ry/bohr**3)                   (kbar)     P=    1.08
   0.00000735  -0.00000000   0.00000000          1.08     -0.00      0.00
  -0.00000000   0.00000735  -0.00000000         -0.00      1.08     -0.00
   0.00000000  -0.00000000   0.00000735          0.00     -0.00      1.08


     Writing output data file K.save/

     init_run     :      0.43s CPU      0.44s WALL (       1 calls)
     electrons    :      4.58s CPU      4.77s WALL (       1 calls)
     forces       :      0.10s CPU      0.10s WALL (       1 calls)
     stress       :      0.37s CPU      0.37s WALL (       1 calls)

     Called by init_run:
     wfcinit      :      0.18s CPU      0.19s WALL (       1 calls)
     potinit      :      0.02s CPU      0.03s WALL (       1 calls)
     hinit0       :      0.17s CPU      0.17s WALL (       1 calls)

     Called by electrons:
     c_bands      :      3.58s CPU      3.74s WALL (       6 calls)
     sum_band     :      0.77s CPU      0.80s WALL (       6 calls)
     v_of_rho     :      0.11s CPU      0.11s WALL (       6 calls)
     newd         :      0.15s CPU      0.15s WALL (       6 calls)
     mix_rho      :      0.01s CPU      0.01s WALL (       6 calls)

     Called by c_bands:
     init_us_2    :      0.12s CPU      0.13s WALL (     300 calls)
     cegterg      :      3.44s CPU      3.59s WALL (     120 calls)

     Called by sum_band:
     sum_band:bec :      0.00s CPU      0.00s WALL (     120 calls)
     addusdens    :      0.14s CPU      0.15s WALL (       6 calls)

     Called by *egterg:
     h_psi        :      2.93s CPU      3.07s WALL (     575 calls)
     s_psi        :      0.08s CPU      0.08s WALL (     575 calls)
     g_psi        :      0.01s CPU      0.01s WALL (     435 calls)
     cdiaghg      :      0.13s CPU      0.13s WALL (     535 calls)

     Called by h_psi:
     h_psi:pot    :      2.92s CPU      3.06s WALL (     575 calls)
     h_psi:calbec :      0.14s CPU      0.15s WALL (     575 calls)
     vloc_psi     :      2.68s CPU      2.81s WALL (     575 calls)
     add_vuspsi   :      0.08s CPU      0.09s WALL (     575 calls)

     General routines
     calbec       :      0.24s CPU      0.25s WALL (     795 calls)
     fft          :      0.07s CPU      0.07s WALL (      93 calls)
     ffts         :      0.00s CPU      0.00s WALL (       6 calls)
     fftw         :      2.97s CPU      3.12s WALL (    7370 calls)

     Parallel routines
     fft_scatt_xy :      0.22s CPU      0.23s WALL (    7469 calls)
     fft_scatt_yz :      0.84s CPU      0.88s WALL (    7469 calls)

     PWSCF        :     6.21s CPU         6.49s WALL


   This run was terminated on:   0:40:36   8Apr2024            

=------------------------------------------------------------------------------=
   JOB DONE.
=------------------------------------------------------------------------------=
