
     Program PWSCF v.6.3MaX starts on  8Apr2024 at  0:15:52 

     This program is part of the open-source Quantum ESPRESSO suite
     for quantum simulation of materials; please cite
         "P. Giannozzi et al., J. Phys.:Condens. Matter 21 395502 (2009);
         "P. Giannozzi et al., J. Phys.:Condens. Matter 29 465901 (2017);
          URL http://www.quantum-espresso.org", 
     in publications or presentations arising from this work. More details at
     http://www.quantum-espresso.org/quote

     Parallel version (MPI), running on     5 processors

     MPI processes distributed on     1 nodes
     R & G space division:  proc/nbgrp/npool/nimage =       5
     Waiting for input...
     Reading input from standard input

     Current dimensions of program PWSCF are:
     Max number of different atomic species (ntypx) = 10
     Max number of k-points (npk) =  40000
     Max angular momentum in pseudopotentials (lmaxx) =  3
               file K.pz-spn-kjpaw_psl.1.0.0.UPF: wavefunction(s)  3S renormalized

     Subspace diagonalization in iterative solution of the eigenvalue problem:
     a serial algorithm will be used


     Parallelization info
     --------------------
     sticks:   dense  smooth     PW     G-vecs:    dense   smooth      PW
     Min          87      87     27                 1155     1155     210
     Max          88      88     28                 1155     1155     212
     Sum         437     437    137                 5775     5775    1055



     bravais-lattice index     =            3
     lattice parameter (alat)  =       9.8600  a.u.
     unit-cell volume          =     479.2926 (a.u.)^3
     number of atoms/cell      =            1
     number of atomic types    =            1
     number of electrons       =         9.00
     number of Kohn-Sham states=            9
     kinetic-energy cutoff     =      20.0000  Ry
     charge density cutoff     =      80.0000  Ry
     convergence threshold     =      1.0E-08
     mixing beta               =       0.7000
     number of iterations used =            8  plain     mixing
     Exchange-correlation      = SLA PZ NOGX NOGC ( 1  1  0  0 0 0)

     celldm(1)=   9.860000  celldm(2)=   0.000000  celldm(3)=   0.000000
     celldm(4)=   0.000000  celldm(5)=   0.000000  celldm(6)=   0.000000

     crystal axes: (cart. coord. in units of alat)
               a(1) = (   0.500000   0.500000   0.500000 )  
               a(2) = (  -0.500000   0.500000   0.500000 )  
               a(3) = (  -0.500000  -0.500000   0.500000 )  

     reciprocal axes: (cart. coord. in units 2 pi/alat)
               b(1) = (  1.000000  0.000000  1.000000 )  
               b(2) = ( -1.000000  1.000000  0.000000 )  
               b(3) = (  0.000000 -1.000000  1.000000 )  


     PseudoPot. # 1 for K  read from file:
     /home/lorenzo/pseudos/K/K.pz-spn-kjpaw_psl.1.0.0.UPF
     MD5 check sum: 59b94f4c1a6681f21e103574f2c5fc67
     Pseudo is Projector augmented-wave + core cor, Zval =  9.0
     Generated using "atomic" code by A. Dal Corso v.6.2.2
     Shape of augmentation charge: PSQ
     Using radial grid of 1165 points,  6 beta functions with: 
                l(1) =   0
                l(2) =   0
                l(3) =   1
                l(4) =   1
                l(5) =   2
                l(6) =   2
     Q(r) pseudized with 0 coefficients 


     atomic species   valence    mass     pseudopotential
        K              9.00    39.09830     K ( 1.00)

     48 Sym. Ops., with inversion, found



   Cartesian axes

     site n.     atom                  positions (alat units)
         1           K   tau(   1) = (   0.0000000   0.0000000   0.0000000  )

     number of k points=    20  gaussian smearing, width (Ry)=  0.0100
                       cart. coord. in units 2pi/alat
        k(    1) = (   0.0000000   0.0000000   0.0000000), wk =   0.0058309
        k(    2) = (   0.0000000  -0.1428571   0.1428571), wk =   0.0699708
        k(    3) = (   0.0000000  -0.2857143   0.2857143), wk =   0.0699708
        k(    4) = (   0.0000000  -0.4285714   0.4285714), wk =   0.0699708
        k(    5) = (  -0.1428571  -0.1428571   0.2857143), wk =   0.1399417
        k(    6) = (  -0.1428571  -0.2857143   0.4285714), wk =   0.2798834
        k(    7) = (  -0.1428571   0.5714286  -0.4285714), wk =   0.1399417
        k(    8) = (  -0.2857143   0.7142857  -0.4285714), wk =   0.1399417
        k(    9) = (   0.0000000   0.0000000   0.2857143), wk =   0.0349854
        k(   10) = (   0.0000000  -0.1428571   0.4285714), wk =   0.1399417
        k(   11) = (   0.0000000  -0.2857143   0.5714286), wk =   0.1399417
        k(   12) = (  -0.1428571  -0.1428571   0.5714286), wk =   0.1399417
        k(   13) = (  -0.1428571   0.7142857  -0.2857143), wk =   0.1399417
        k(   14) = (  -0.2857143   0.2857143   0.2857143), wk =   0.0466472
        k(   15) = (   0.5714286  -0.5714286   0.2857143), wk =   0.1399417
        k(   16) = (   0.4285714  -0.5714286   0.4285714), wk =   0.0466472
        k(   17) = (   0.0000000   0.0000000   0.5714286), wk =   0.0349854
        k(   18) = (   0.0000000  -0.1428571   0.7142857), wk =   0.1399417
        k(   19) = (  -0.1428571   0.8571429  -0.1428571), wk =   0.0466472
        k(   20) = (   0.0000000   0.0000000   0.8571429), wk =   0.0349854

     Dense  grid:     5775 G-vectors     FFT dimensions: (  25,  25,  25)

     Estimated max dynamical RAM per process >       5.82 MB

     Estimated total dynamical RAM >      29.10 MB

     Check: negative/imaginary core charge=   -0.000042    0.000000

     Initial potential from superposition of free atoms

     starting charge    8.98437, renormalised to    9.00000
     Starting wfcs are    8 randomized atomic wfcs +    1 random wfcs
     Checking if some PAW data can be deallocated... 

     total cpu time spent up to now is        0.9 secs

     Self-consistent Calculation

     iteration #  1     ecut=    20.00 Ry     beta= 0.70
     Davidson diagonalization with overlap
     ethr =  1.00E-02,  avg # of iterations =  7.0

     Threshold (ethr) on eigenvalues was too large:
     Diagonalizing with lowered threshold

     Davidson diagonalization with overlap
     ethr =  6.33E-05,  avg # of iterations =  5.8

     total cpu time spent up to now is        1.4 secs

     total energy              =    -109.77824612 Ry
     Harris-Foulkes estimate   =    -109.78297654 Ry
     estimated scf accuracy    <       0.00592355 Ry

     iteration #  2     ecut=    20.00 Ry     beta= 0.70
     Davidson diagonalization with overlap
     ethr =  6.58E-05,  avg # of iterations =  2.1

     total cpu time spent up to now is        1.6 secs

     total energy              =    -109.77985089 Ry
     Harris-Foulkes estimate   =    -109.78005995 Ry
     estimated scf accuracy    <       0.00058913 Ry

     iteration #  3     ecut=    20.00 Ry     beta= 0.70
     Davidson diagonalization with overlap
     ethr =  6.55E-06,  avg # of iterations =  2.5

     total cpu time spent up to now is        1.8 secs

     total energy              =    -109.77991312 Ry
     Harris-Foulkes estimate   =    -109.77991399 Ry
     estimated scf accuracy    <       0.00003059 Ry

     iteration #  4     ecut=    20.00 Ry     beta= 0.70
     Davidson diagonalization with overlap
     ethr =  3.40E-07,  avg # of iterations =  1.4

     total cpu time spent up to now is        2.0 secs

     total energy              =    -109.77991380 Ry
     Harris-Foulkes estimate   =    -109.77991379 Ry
     estimated scf accuracy    <       0.00000003 Ry

     iteration #  5     ecut=    20.00 Ry     beta= 0.70
     Davidson diagonalization with overlap
     ethr =  3.21E-10,  avg # of iterations =  3.2

     total cpu time spent up to now is        2.2 secs

     End of self-consistent calculation

          k = 0.0000 0.0000 0.0000 (   683 PWs)   bands (ev):

   -30.3402 -13.6797 -13.6797 -13.6797  -0.4849   6.1658   6.1658   6.1658
     7.1488

          k = 0.0000-0.1429 0.1429 (   708 PWs)   bands (ev):

   -30.3392 -13.7461 -13.7052 -13.6984  -0.2232   5.6730   5.8484   6.3386
     6.8705

          k = 0.0000-0.2857 0.2857 (   718 PWs)   bands (ev):

   -30.3371 -13.7892 -13.7246 -13.7099   0.5252   4.4096   5.3264   6.9334
     6.9473

          k = 0.0000-0.4286 0.4286 (   724 PWs)   bands (ev):

   -30.3355 -13.8198 -13.7443 -13.7175   1.6452   3.0406   5.0090   6.7777
     7.4095

          k =-0.1429-0.1429 0.2857 (   710 PWs)   bands (ev):

   -30.3377 -13.7496 -13.7301 -13.7060   0.2836   4.9617   5.2680   6.6674
     6.6956

          k =-0.1429-0.2857 0.4286 (   728 PWs)   bands (ev):

   -30.3358 -13.8124 -13.7521 -13.7250   1.2250   3.7991   4.7624   6.6305
     7.0725

          k =-0.1429 0.5714-0.4286 (   730 PWs)   bands (ev):

   -30.3350 -13.8258 -13.7555 -13.7357   2.3588   2.5881   4.5956   6.4003
     7.5472

          k =-0.2857 0.7143-0.4286 (   730 PWs)   bands (ev):

   -30.3348 -13.8083 -13.7705 -13.7463   2.2891   3.3536   3.7694   6.3801
     7.0505

          k = 0.0000 0.0000 0.2857 (   707 PWs)   bands (ev):

   -30.3383 -13.7266 -13.7189 -13.7189   0.0337   5.6950   5.6950   5.8786
     6.4474

          k = 0.0000-0.1429 0.4286 (   724 PWs)   bands (ev):

   -30.3363 -13.7831 -13.7419 -13.7411   0.7666   4.5043   5.3218   5.8773
     6.9710

          k = 0.0000-0.2857 0.5714 (   719 PWs)   bands (ev):

   -30.3347 -13.8125 -13.7351 -13.7329   1.8688   3.1930   5.0726   5.7709
     7.2300

          k =-0.1429-0.1429 0.5714 (   725 PWs)   bands (ev):

   -30.3346 -13.8033 -13.7629 -13.7383   1.6675   3.8668   4.5892   6.0154
     6.7359

          k =-0.1429 0.7143-0.2857 (   730 PWs)   bands (ev):

   -30.3338 -13.8083 -13.7805 -13.7515   2.8194   2.8513   4.1723   6.0870
     6.8613

          k =-0.2857 0.2857 0.2857 (   721 PWs)   bands (ev):

   -30.3363 -13.7900 -13.7334 -13.7334   1.0026   4.3950   4.3950   6.5052
     7.3617

          k = 0.5714-0.5714 0.2857 (   724 PWs)   bands (ev):

   -30.3352 -13.8033 -13.7621 -13.7286   2.0895   3.3266   4.1144   5.8077
     7.5293

          k = 0.4286-0.5714 0.4286 (   718 PWs)   bands (ev):

   -30.3349 -13.7764 -13.7764 -13.7277   3.0959   3.0959   3.3996   5.1883
     7.6805

          k = 0.0000 0.0000 0.5714 (   723 PWs)   bands (ev):

   -30.3345 -13.7879 -13.7558 -13.7558   1.4515   4.3788   5.2711   5.2711
     6.4120

          k = 0.0000-0.1429 0.7143 (   732 PWs)   bands (ev):

   -30.3330 -13.8043 -13.7818 -13.7719   2.4539   3.5533   4.9632   5.1877
     6.2396

          k =-0.1429 0.8571-0.1429 (   724 PWs)   bands (ev):

   -30.3324 -13.7846 -13.7846 -13.7743   3.2501   3.2501   4.2637   5.8495
     5.8495

          k = 0.0000 0.0000 0.8571 (   715 PWs)   bands (ev):

   -30.3317 -13.7822 -13.7704 -13.7704   3.1561   3.5762   5.2604   5.2743
     5.2743

     the Fermi energy is     1.7379 ev

!    total energy              =    -109.77991390 Ry
     Harris-Foulkes estimate   =    -109.77991390 Ry
     estimated scf accuracy    <          8.2E-10 Ry

     total all-electron energy =     -1201.104914 Ry

     The total energy is the sum of the following terms:

     one-electron contribution =     -35.27397250 Ry
     hartree contribution      =      18.74040302 Ry
     xc contribution           =     -10.99246240 Ry
     ewald contribution        =     -29.89633972 Ry
     one-center paw contrib.   =     -52.35695812 Ry
     smearing contrib. (-TS)   =      -0.00058418 Ry

     convergence has been achieved in   5 iterations

     Forces acting on atoms (cartesian axes, Ry/au):

     atom    1 type  1   force =     0.00000000    0.00000000    0.00000000

     Total force =     0.000000     Total SCF correction =     0.000000


     Computing stress (Cartesian axis) and pressure

          total   stress  (Ry/bohr**3)                   (kbar)     P= -121.78
  -0.00082783  -0.00000000   0.00000000       -121.78     -0.00      0.00
  -0.00000000  -0.00082783  -0.00000000         -0.00   -121.78     -0.00
   0.00000000  -0.00000000  -0.00082783          0.00     -0.00   -121.78


     Writing output data file K.save/

     init_run     :      0.21s CPU      0.21s WALL (       1 calls)
     electrons    :      1.20s CPU      1.26s WALL (       1 calls)
     forces       :      0.03s CPU      0.03s WALL (       1 calls)
     stress       :      0.08s CPU      0.08s WALL (       1 calls)

     Called by init_run:
     wfcinit      :      0.04s CPU      0.04s WALL (       1 calls)
     potinit      :      0.06s CPU      0.07s WALL (       1 calls)
     hinit0       :      0.10s CPU      0.10s WALL (       1 calls)

     Called by electrons:
     c_bands      :      0.80s CPU      0.85s WALL (       6 calls)
     sum_band     :      0.16s CPU      0.17s WALL (       6 calls)
     v_of_rho     :      0.00s CPU      0.00s WALL (       6 calls)
     newd         :      0.04s CPU      0.04s WALL (       6 calls)
     PAW_pot      :      0.25s CPU      0.26s WALL (       6 calls)
     mix_rho      :      0.00s CPU      0.00s WALL (       6 calls)

     Called by c_bands:
     init_us_2    :      0.03s CPU      0.03s WALL (     300 calls)
     cegterg      :      0.77s CPU      0.81s WALL (     120 calls)

     Called by sum_band:
     sum_band:bec :      0.00s CPU      0.00s WALL (     120 calls)
     addusdens    :      0.03s CPU      0.03s WALL (       6 calls)

     Called by *egterg:
     h_psi        :      0.57s CPU      0.60s WALL (     581 calls)
     s_psi        :      0.02s CPU      0.02s WALL (     581 calls)
     g_psi        :      0.00s CPU      0.00s WALL (     441 calls)
     cdiaghg      :      0.11s CPU      0.11s WALL (     541 calls)

     Called by h_psi:
     h_psi:pot    :      0.57s CPU      0.60s WALL (     581 calls)
     h_psi:calbec :      0.03s CPU      0.03s WALL (     581 calls)
     vloc_psi     :      0.52s CPU      0.55s WALL (     581 calls)
     add_vuspsi   :      0.02s CPU      0.02s WALL (     581 calls)

     General routines
     calbec       :      0.05s CPU      0.06s WALL (     801 calls)
     fft          :      0.01s CPU      0.01s WALL (      34 calls)
     ffts         :      0.00s CPU      0.00s WALL (       6 calls)
     fftw         :      0.57s CPU      0.60s WALL (    7496 calls)

     Parallel routines
     fft_scatt_xy :      0.05s CPU      0.05s WALL (    7536 calls)
     fft_scatt_yz :      0.15s CPU      0.15s WALL (    7536 calls)

     PWSCF        :     2.24s CPU         2.36s WALL


   This run was terminated on:   0:15:54   8Apr2024            

=------------------------------------------------------------------------------=
   JOB DONE.
=------------------------------------------------------------------------------=
