
     Program PWSCF v.6.3MaX starts on  8Apr2024 at  0: 5:38 

     This program is part of the open-source Quantum ESPRESSO suite
     for quantum simulation of materials; please cite
         "P. Giannozzi et al., J. Phys.:Condens. Matter 21 395502 (2009);
         "P. Giannozzi et al., J. Phys.:Condens. Matter 29 465901 (2017);
          URL http://www.quantum-espresso.org", 
     in publications or presentations arising from this work. More details at
     http://www.quantum-espresso.org/quote

     Parallel version (MPI), running on     5 processors

     MPI processes distributed on     1 nodes
     R & G space division:  proc/nbgrp/npool/nimage =       5
     Waiting for input...
     Reading input from standard input

     Current dimensions of program PWSCF are:
     Max number of different atomic species (ntypx) = 10
     Max number of k-points (npk) =  40000
     Max angular momentum in pseudopotentials (lmaxx) =  3
               file K.pz-spn-rrkjus_psl.1.0.0.UPF: wavefunction(s)  3S renormalized

     Subspace diagonalization in iterative solution of the eigenvalue problem:
     a serial algorithm will be used


     Parallelization info
     --------------------
     sticks:   dense  smooth     PW     G-vecs:    dense   smooth      PW
     Min         438     438    123                12915    12915    1937
     Max         439     439    124                12916    12916    1939
     Sum        2191    2191    619                64579    64579    9693



     bravais-lattice index     =            3
     lattice parameter (alat)  =       9.8600  a.u.
     unit-cell volume          =     479.2926 (a.u.)^3
     number of atoms/cell      =            1
     number of atomic types    =            1
     number of electrons       =         9.00
     number of Kohn-Sham states=            9
     kinetic-energy cutoff     =     100.0000  Ry
     charge density cutoff     =     400.0000  Ry
     convergence threshold     =      1.0E-08
     mixing beta               =       0.7000
     number of iterations used =            8  plain     mixing
     Exchange-correlation      = LDA ( 1  1  0  0 0 0)

     celldm(1)=   9.860000  celldm(2)=   0.000000  celldm(3)=   0.000000
     celldm(4)=   0.000000  celldm(5)=   0.000000  celldm(6)=   0.000000

     crystal axes: (cart. coord. in units of alat)
               a(1) = (   0.500000   0.500000   0.500000 )  
               a(2) = (  -0.500000   0.500000   0.500000 )  
               a(3) = (  -0.500000  -0.500000   0.500000 )  

     reciprocal axes: (cart. coord. in units 2 pi/alat)
               b(1) = (  1.000000  0.000000  1.000000 )  
               b(2) = ( -1.000000  1.000000  0.000000 )  
               b(3) = (  0.000000 -1.000000  1.000000 )  


     PseudoPot. # 1 for K  read from file:
     /home/lorenzo/pseudos/K/K.pz-spn-rrkjus_psl.1.0.0.UPF
     MD5 check sum: af434a66a3b91719abff201b8f79bb09
     Pseudo is Ultrasoft + core correction, Zval =  9.0
     Generated using "atomic" code by A. Dal Corso v.6.2.2
     Using radial grid of 1165 points,  6 beta functions with: 
                l(1) =   0
                l(2) =   0
                l(3) =   1
                l(4) =   1
                l(5) =   2
                l(6) =   2
     Q(r) pseudized with 0 coefficients 


     atomic species   valence    mass     pseudopotential
        K              9.00    39.09830     K ( 1.00)

     48 Sym. Ops., with inversion, found



   Cartesian axes

     site n.     atom                  positions (alat units)
         1           K   tau(   1) = (   0.0000000   0.0000000   0.0000000  )

     number of k points=    10  gaussian smearing, width (Ry)=  0.0100
                       cart. coord. in units 2pi/alat
        k(    1) = (   0.0000000   0.0000000   0.0000000), wk =   0.0160000
        k(    2) = (   0.0000000  -0.2000000   0.2000000), wk =   0.1920000
        k(    3) = (   0.0000000  -0.4000000   0.4000000), wk =   0.1920000
        k(    4) = (  -0.2000000  -0.2000000   0.4000000), wk =   0.3840000
        k(    5) = (  -0.2000000   0.6000000  -0.4000000), wk =   0.3840000
        k(    6) = (   0.0000000   0.0000000   0.4000000), wk =   0.0960000
        k(    7) = (   0.0000000  -0.2000000   0.6000000), wk =   0.3840000
        k(    8) = (  -0.2000000   0.8000000  -0.2000000), wk =   0.1280000
        k(    9) = (   0.6000000  -0.6000000   0.4000000), wk =   0.1280000
        k(   10) = (   0.0000000   0.0000000   0.8000000), wk =   0.0960000

     Dense  grid:    64579 G-vectors     FFT dimensions: (  60,  60,  60)

     Estimated max dynamical RAM per process >      53.36 MB

     Estimated total dynamical RAM >     266.78 MB

     Check: negative/imaginary core charge=   -0.000001    0.000000

     Initial potential from superposition of free atoms

     starting charge    8.98437, renormalised to    9.00000
     Starting wfcs are    8 randomized atomic wfcs +    1 random wfcs

     total cpu time spent up to now is        1.4 secs

     Self-consistent Calculation

     iteration #  1     ecut=   100.00 Ry     beta= 0.70
     Davidson diagonalization with overlap
     ethr =  1.00E-02,  avg # of iterations =  6.8

     Threshold (ethr) on eigenvalues was too large:
     Diagonalizing with lowered threshold

     Davidson diagonalization with overlap
     ethr =  1.22E-05,  avg # of iterations =  7.9

     total cpu time spent up to now is        3.8 secs

     total energy              =     -58.74351281 Ry
     Harris-Foulkes estimate   =     -58.74408288 Ry
     estimated scf accuracy    <       0.00111850 Ry

     iteration #  2     ecut=   100.00 Ry     beta= 0.70
     Davidson diagonalization with overlap
     ethr =  1.24E-05,  avg # of iterations =  2.3

     total cpu time spent up to now is        4.7 secs

     total energy              =     -58.74371215 Ry
     Harris-Foulkes estimate   =     -58.74372986 Ry
     estimated scf accuracy    <       0.00008902 Ry

     iteration #  3     ecut=   100.00 Ry     beta= 0.70
     Davidson diagonalization with overlap
     ethr =  9.89E-07,  avg # of iterations =  1.6

     total cpu time spent up to now is        5.4 secs

     total energy              =     -58.74372105 Ry
     Harris-Foulkes estimate   =     -58.74372029 Ry
     estimated scf accuracy    <       0.00000565 Ry

     iteration #  4     ecut=   100.00 Ry     beta= 0.70
     Davidson diagonalization with overlap
     ethr =  6.28E-08,  avg # of iterations =  1.7

     total cpu time spent up to now is        6.2 secs

     total energy              =     -58.74372156 Ry
     Harris-Foulkes estimate   =     -58.74372156 Ry
     estimated scf accuracy    <       0.00000003 Ry

     iteration #  5     ecut=   100.00 Ry     beta= 0.70
     Davidson diagonalization with overlap
     ethr =  3.72E-10,  avg # of iterations =  2.0

     total cpu time spent up to now is        6.9 secs

     End of self-consistent calculation

          k = 0.0000 0.0000 0.0000 (  8151 PWs)   bands (ev):

   -30.0983 -13.7364 -13.7364 -13.7364  -0.4764   5.9292   5.9292   5.9292
     6.8747

          k = 0.0000-0.2000 0.2000 (  8116 PWs)   bands (ev):

   -30.0965 -13.7643 -13.7457 -13.7363   0.0288   5.0921   5.4542   6.3356
     6.6430

          k = 0.0000-0.4000 0.4000 (  8074 PWs)   bands (ev):

   -30.0936 -13.8086 -13.7606 -13.7363   1.3999   3.2800   4.9124   6.6283
     7.1260

          k =-0.2000-0.2000 0.4000 (  8116 PWs)   bands (ev):

   -30.0941 -13.7939 -13.7580 -13.7425   0.9741   4.1557   4.6162   6.5726
     6.6851

          k =-0.2000 0.6000-0.4000 (  8079 PWs)   bands (ev):

   -30.0927 -13.8062 -13.7735 -13.7441   2.5305   2.6594   4.1688   6.2384
     7.1369

          k = 0.0000 0.0000 0.4000 (  8108 PWs)   bands (ev):

   -30.0948 -13.7677 -13.7554 -13.7554   0.5136   5.1010   5.3499   5.3499
     6.4991

          k = 0.0000-0.2000 0.6000 (  8073 PWs)   bands (ev):

   -30.0921 -13.8020 -13.7711 -13.7568   1.8279   3.5342   5.0421   5.3164
     6.6796

          k =-0.2000 0.8000-0.2000 (  8058 PWs)   bands (ev):

   -30.0909 -13.7950 -13.7950 -13.7617   3.0930   3.0930   3.8048   6.1461
     6.1461

          k = 0.6000-0.6000 0.4000 (  8109 PWs)   bands (ev):

   -30.0930 -13.7957 -13.7623 -13.7623   2.2377   3.6312   3.6312   5.3855
     7.3527

          k = 0.0000 0.0000 0.8000 (  8100 PWs)   bands (ev):

   -30.0898 -13.7927 -13.7881 -13.7881   2.8398   3.5983   5.2172   5.2172
     5.2875

     the Fermi energy is     1.7809 ev

!    total energy              =     -58.74372157 Ry
     Harris-Foulkes estimate   =     -58.74372157 Ry
     estimated scf accuracy    <          6.4E-10 Ry

     The total energy is the sum of the following terms:

     one-electron contribution =     -36.65560794 Ry
     hartree contribution      =      18.82604052 Ry
     xc contribution           =     -11.01685293 Ry
     ewald contribution        =     -29.89633970 Ry
     smearing contrib. (-TS)   =      -0.00096152 Ry

     convergence has been achieved in   5 iterations

     Forces acting on atoms (cartesian axes, Ry/au):

     atom    1 type  1   force =     0.00000000    0.00000000    0.00000000

     Total force =     0.000000     Total SCF correction =     0.000000


     Computing stress (Cartesian axis) and pressure

          total   stress  (Ry/bohr**3)                   (kbar)     P=   -3.92
  -0.00002665   0.00000000  -0.00000000         -3.92      0.00     -0.00
   0.00000000  -0.00002665   0.00000000          0.00     -3.92      0.00
  -0.00000000   0.00000000  -0.00002665         -0.00      0.00     -3.92


     Writing output data file K.save/

     init_run     :      0.65s CPU      0.69s WALL (       1 calls)
     electrons    :      5.33s CPU      5.59s WALL (       1 calls)
     forces       :      0.16s CPU      0.18s WALL (       1 calls)
     stress       :      0.61s CPU      0.67s WALL (       1 calls)

     Called by init_run:
     wfcinit      :      0.22s CPU      0.23s WALL (       1 calls)
     potinit      :      0.02s CPU      0.02s WALL (       1 calls)
     hinit0       :      0.24s CPU      0.24s WALL (       1 calls)

     Called by electrons:
     c_bands      :      3.95s CPU      4.08s WALL (       6 calls)
     sum_band     :      1.03s CPU      1.10s WALL (       6 calls)
     v_of_rho     :      0.04s CPU      0.04s WALL (       6 calls)
     newd         :      0.33s CPU      0.41s WALL (       6 calls)
     mix_rho      :      0.02s CPU      0.02s WALL (       6 calls)

     Called by c_bands:
     init_us_2    :      0.15s CPU      0.15s WALL (     150 calls)
     cegterg      :      3.79s CPU      3.91s WALL (      60 calls)

     Called by sum_band:
     sum_band:bec :      0.00s CPU      0.00s WALL (      60 calls)
     addusdens    :      0.34s CPU      0.39s WALL (       6 calls)

     Called by *egterg:
     h_psi        :      3.28s CPU      3.41s WALL (     293 calls)
     s_psi        :      0.09s CPU      0.09s WALL (     293 calls)
     g_psi        :      0.01s CPU      0.01s WALL (     223 calls)
     cdiaghg      :      0.07s CPU      0.07s WALL (     273 calls)

     Called by h_psi:
     h_psi:pot    :      3.27s CPU      3.40s WALL (     293 calls)
     h_psi:calbec :      0.17s CPU      0.18s WALL (     293 calls)
     vloc_psi     :      2.99s CPU      3.11s WALL (     293 calls)
     add_vuspsi   :      0.11s CPU      0.11s WALL (     293 calls)

     General routines
     calbec       :      0.26s CPU      0.26s WALL (     403 calls)
     fft          :      0.06s CPU      0.06s WALL (      34 calls)
     ffts         :      0.01s CPU      0.01s WALL (       6 calls)
     fftw         :      3.16s CPU      3.28s WALL (    3728 calls)

     Parallel routines
     fft_scatt_xy :      0.28s CPU      0.29s WALL (    3768 calls)
     fft_scatt_yz :      0.61s CPU      0.64s WALL (    3768 calls)

     PWSCF        :     7.43s CPU         7.87s WALL


   This run was terminated on:   0: 5:46   8Apr2024            

=------------------------------------------------------------------------------=
   JOB DONE.
=------------------------------------------------------------------------------=
