
     Program PWSCF v.6.3MaX starts on  8Apr2024 at  0:10:53 

     This program is part of the open-source Quantum ESPRESSO suite
     for quantum simulation of materials; please cite
         "P. Giannozzi et al., J. Phys.:Condens. Matter 21 395502 (2009);
         "P. Giannozzi et al., J. Phys.:Condens. Matter 29 465901 (2017);
          URL http://www.quantum-espresso.org", 
     in publications or presentations arising from this work. More details at
     http://www.quantum-espresso.org/quote

     Parallel version (MPI), running on     5 processors

     MPI processes distributed on     1 nodes
     R & G space division:  proc/nbgrp/npool/nimage =       5
     Waiting for input...
     Reading input from standard input

     Current dimensions of program PWSCF are:
     Max number of different atomic species (ntypx) = 10
     Max number of k-points (npk) =  40000
     Max angular momentum in pseudopotentials (lmaxx) =  3
               file K.pz-spn-kjpaw_psl.1.0.0.UPF: wavefunction(s)  3S renormalized

     Subspace diagonalization in iterative solution of the eigenvalue problem:
     a serial algorithm will be used


     Parallelization info
     --------------------
     sticks:   dense  smooth     PW     G-vecs:    dense   smooth      PW
     Min          43      43     15                  417      417      85
     Max          44      44     16                  420      420      86
     Sum         219     219     77                 2093     2093     429



     bravais-lattice index     =            3
     lattice parameter (alat)  =       9.8600  a.u.
     unit-cell volume          =     479.2926 (a.u.)^3
     number of atoms/cell      =            1
     number of atomic types    =            1
     number of electrons       =         9.00
     number of Kohn-Sham states=            9
     kinetic-energy cutoff     =      10.0000  Ry
     charge density cutoff     =      40.0000  Ry
     convergence threshold     =      1.0E-08
     mixing beta               =       0.7000
     number of iterations used =            8  plain     mixing
     Exchange-correlation      = SLA PZ NOGX NOGC ( 1  1  0  0 0 0)

     celldm(1)=   9.860000  celldm(2)=   0.000000  celldm(3)=   0.000000
     celldm(4)=   0.000000  celldm(5)=   0.000000  celldm(6)=   0.000000

     crystal axes: (cart. coord. in units of alat)
               a(1) = (   0.500000   0.500000   0.500000 )  
               a(2) = (  -0.500000   0.500000   0.500000 )  
               a(3) = (  -0.500000  -0.500000   0.500000 )  

     reciprocal axes: (cart. coord. in units 2 pi/alat)
               b(1) = (  1.000000  0.000000  1.000000 )  
               b(2) = ( -1.000000  1.000000  0.000000 )  
               b(3) = (  0.000000 -1.000000  1.000000 )  


     PseudoPot. # 1 for K  read from file:
     /home/lorenzo/pseudos/K/K.pz-spn-kjpaw_psl.1.0.0.UPF
     MD5 check sum: 59b94f4c1a6681f21e103574f2c5fc67
     Pseudo is Projector augmented-wave + core cor, Zval =  9.0
     Generated using "atomic" code by A. Dal Corso v.6.2.2
     Shape of augmentation charge: PSQ
     Using radial grid of 1165 points,  6 beta functions with: 
                l(1) =   0
                l(2) =   0
                l(3) =   1
                l(4) =   1
                l(5) =   2
                l(6) =   2
     Q(r) pseudized with 0 coefficients 


     atomic species   valence    mass     pseudopotential
        K              9.00    39.09830     K ( 1.00)

     48 Sym. Ops., with inversion, found



   Cartesian axes

     site n.     atom                  positions (alat units)
         1           K   tau(   1) = (   0.0000000   0.0000000   0.0000000  )

     number of k points=    56  gaussian smearing, width (Ry)=  0.0100
                       cart. coord. in units 2pi/alat
        k(    1) = (   0.0000000   0.0000000   0.0000000), wk =   0.0015026
        k(    2) = (   0.0000000  -0.0909091   0.0909091), wk =   0.0180316
        k(    3) = (   0.0000000  -0.1818182   0.1818182), wk =   0.0180316
        k(    4) = (   0.0000000  -0.2727273   0.2727273), wk =   0.0180316
        k(    5) = (   0.0000000  -0.3636364   0.3636364), wk =   0.0180316
        k(    6) = (   0.0000000  -0.4545455   0.4545455), wk =   0.0180316
        k(    7) = (  -0.0909091  -0.0909091   0.1818182), wk =   0.0360631
        k(    8) = (  -0.0909091  -0.1818182   0.2727273), wk =   0.0721262
        k(    9) = (  -0.0909091  -0.2727273   0.3636364), wk =   0.0721262
        k(   10) = (  -0.0909091  -0.3636364   0.4545455), wk =   0.0721262
        k(   11) = (  -0.0909091   0.5454545  -0.4545455), wk =   0.0360631
        k(   12) = (  -0.1818182  -0.1818182   0.3636364), wk =   0.0360631
        k(   13) = (  -0.1818182  -0.2727273   0.4545455), wk =   0.0721262
        k(   14) = (  -0.1818182   0.6363636  -0.4545455), wk =   0.0721262
        k(   15) = (  -0.2727273   0.7272727  -0.4545455), wk =   0.0360631
        k(   16) = (  -0.2727273   0.6363636  -0.3636364), wk =   0.0360631
        k(   17) = (   0.0000000   0.0000000   0.1818182), wk =   0.0090158
        k(   18) = (   0.0000000  -0.0909091   0.2727273), wk =   0.0360631
        k(   19) = (   0.0000000  -0.1818182   0.3636364), wk =   0.0360631
        k(   20) = (   0.0000000  -0.2727273   0.4545455), wk =   0.0360631
        k(   21) = (   0.0000000  -0.3636364   0.5454545), wk =   0.0360631
        k(   22) = (  -0.0909091  -0.0909091   0.3636364), wk =   0.0360631
        k(   23) = (  -0.0909091  -0.1818182   0.4545455), wk =   0.0721262
        k(   24) = (  -0.0909091  -0.2727273   0.5454545), wk =   0.0721262
        k(   25) = (  -0.0909091   0.6363636  -0.3636364), wk =   0.0360631
        k(   26) = (  -0.1818182   0.1818182   0.1818182), wk =   0.0120210
        k(   27) = (  -0.1818182  -0.1818182   0.5454545), wk =   0.0360631
        k(   28) = (  -0.1818182   0.7272727  -0.3636364), wk =   0.0721262
        k(   29) = (  -0.2727273   0.2727273   0.1818182), wk =   0.0360631
        k(   30) = (  -0.2727273   0.7272727  -0.2727273), wk =   0.0120210
        k(   31) = (  -0.3636364   0.3636364   0.1818182), wk =   0.0360631
        k(   32) = (  -0.3636364   0.2727273   0.2727273), wk =   0.0360631
        k(   33) = (   0.5454545  -0.5454545   0.1818182), wk =   0.0360631
        k(   34) = (   0.5454545  -0.6363636   0.2727273), wk =   0.0721262
        k(   35) = (   0.4545455  -0.5454545   0.2727273), wk =   0.0360631
        k(   36) = (   0.4545455  -0.6363636   0.3636364), wk =   0.0360631
        k(   37) = (   0.0000000   0.0000000   0.3636364), wk =   0.0090158
        k(   38) = (   0.0000000  -0.0909091   0.4545455), wk =   0.0360631
        k(   39) = (   0.0000000  -0.1818182   0.5454545), wk =   0.0360631
        k(   40) = (   0.0000000  -0.2727273   0.6363636), wk =   0.0360631
        k(   41) = (  -0.0909091  -0.0909091   0.5454545), wk =   0.0360631
        k(   42) = (  -0.0909091  -0.1818182   0.6363636), wk =   0.0721262
        k(   43) = (  -0.0909091   0.7272727  -0.2727273), wk =   0.0360631
        k(   44) = (  -0.1818182   0.8181818  -0.2727273), wk =   0.0360631
        k(   45) = (   0.6363636  -0.6363636   0.3636364), wk =   0.0120210
        k(   46) = (   0.5454545  -0.5454545   0.3636364), wk =   0.0360631
        k(   47) = (   0.4545455  -0.5454545   0.4545455), wk =   0.0120210
        k(   48) = (   0.0000000   0.0000000   0.5454545), wk =   0.0090158
        k(   49) = (   0.0000000  -0.0909091   0.6363636), wk =   0.0360631
        k(   50) = (   0.0000000  -0.1818182   0.7272727), wk =   0.0360631
        k(   51) = (  -0.0909091  -0.0909091   0.7272727), wk =   0.0360631
        k(   52) = (  -0.0909091   0.8181818  -0.1818182), wk =   0.0360631
        k(   53) = (   0.0000000   0.0000000   0.7272727), wk =   0.0090158
        k(   54) = (   0.0000000  -0.0909091   0.8181818), wk =   0.0360631
        k(   55) = (  -0.0909091   0.9090909  -0.0909091), wk =   0.0120210
        k(   56) = (   0.0000000   0.0000000   0.9090909), wk =   0.0090158

     Dense  grid:     2093 G-vectors     FFT dimensions: (  18,  18,  18)

     Estimated max dynamical RAM per process >       2.76 MB

     Estimated total dynamical RAM >      13.81 MB

     Check: negative/imaginary core charge=   -0.001512    0.000000

     Initial potential from superposition of free atoms
     Check: negative starting charge=   -0.000618

     starting charge    8.98437, renormalised to    9.00000

     negative rho (up, down):  6.192E-04 0.000E+00
     Starting wfcs are    8 randomized atomic wfcs +    1 random wfcs
     Checking if some PAW data can be deallocated... 

     total cpu time spent up to now is        0.9 secs

     Self-consistent Calculation

     iteration #  1     ecut=    10.00 Ry     beta= 0.70
     Davidson diagonalization with overlap
     ethr =  1.00E-02,  avg # of iterations =  6.4

     total cpu time spent up to now is        1.4 secs

     total energy              =    -108.27622440 Ry
     Harris-Foulkes estimate   =    -108.58342487 Ry
     estimated scf accuracy    <       0.37313180 Ry

     iteration #  2     ecut=    10.00 Ry     beta= 0.70
     Davidson diagonalization with overlap
     ethr =  4.15E-03,  avg # of iterations =  2.0

     total cpu time spent up to now is        1.7 secs

     total energy              =    -108.35365778 Ry
     Harris-Foulkes estimate   =    -108.35782957 Ry
     estimated scf accuracy    <       0.01107054 Ry

     iteration #  3     ecut=    10.00 Ry     beta= 0.70
     Davidson diagonalization with overlap
     ethr =  1.23E-04,  avg # of iterations =  2.8

     total cpu time spent up to now is        2.0 secs

     total energy              =    -108.35398018 Ry
     Harris-Foulkes estimate   =    -108.35415579 Ry
     estimated scf accuracy    <       0.00079041 Ry

     iteration #  4     ecut=    10.00 Ry     beta= 0.70
     Davidson diagonalization with overlap
     ethr =  8.78E-06,  avg # of iterations =  4.1

     total cpu time spent up to now is        2.4 secs

     total energy              =    -108.35400637 Ry
     Harris-Foulkes estimate   =    -108.35400785 Ry
     estimated scf accuracy    <       0.00000245 Ry

     iteration #  5     ecut=    10.00 Ry     beta= 0.70
     Davidson diagonalization with overlap
     ethr =  2.72E-08,  avg # of iterations =  2.2

     total cpu time spent up to now is        2.6 secs

     total energy              =    -108.35400687 Ry
     Harris-Foulkes estimate   =    -108.35400697 Ry
     estimated scf accuracy    <       0.00000011 Ry

     iteration #  6     ecut=    10.00 Ry     beta= 0.70
     Davidson diagonalization with overlap
     ethr =  1.26E-09,  avg # of iterations =  2.0

     total cpu time spent up to now is        2.9 secs

     End of self-consistent calculation

          k = 0.0000 0.0000 0.0000 (   249 PWs)   bands (ev):

   -34.1426 -13.1204 -13.1204 -13.1204  -0.3954   7.1058   7.1058   7.1058
     8.3363

          k = 0.0000-0.0909 0.0909 (   243 PWs)   bands (ev):

   -34.1245 -13.0897 -12.9824 -12.8620  -0.2802   6.8784   6.9111   7.2601
     8.0326

          k = 0.0000-0.1818 0.1818 (   259 PWs)   bands (ev):

   -34.1684 -13.6221 -13.2585 -13.2444   0.0512   6.0128   6.4971   7.4502
     8.0023

          k = 0.0000-0.2727 0.2727 (   257 PWs)   bands (ev):

   -34.1676 -13.4185 -13.4041 -13.2783   0.5898   5.0543   6.0650   7.9362
     7.9602

          k = 0.0000-0.3636 0.3636 (   255 PWs)   bands (ev):

   -34.1633 -13.3973 -13.3111 -13.3052   1.2904   4.0911   5.7785   7.8116
     8.0031

          k = 0.0000-0.4545 0.4545 (   263 PWs)   bands (ev):

   -34.1849 -13.5521 -13.5469 -13.5201   2.0722   3.1469   5.5874   7.5179
     8.1374

          k =-0.0909-0.0909 0.1818 (   255 PWs)   bands (ev):

   -34.1574 -13.5323 -13.1663 -13.1284  -0.0583   6.3584   6.5105   7.3519
     7.7726

          k =-0.0909-0.1818 0.2727 (   254 PWs)   bands (ev):

   -34.1573 -13.4669 -13.2524 -13.1151   0.3768   5.5225   6.0739   7.6388
     7.7518

          k =-0.0909-0.2727 0.3636 (   259 PWs)   bands (ev):

   -34.1736 -13.4796 -13.4419 -13.3621   0.9960   4.5884   5.6988   7.5343
     8.0158

          k =-0.0909-0.3636 0.4545 (   257 PWs)   bands (ev):

   -34.1684 -13.4786 -13.3832 -13.3116   1.7572   3.6577   5.4969   7.2859
     8.2666

          k =-0.0909 0.5455-0.4545 (   263 PWs)   bands (ev):

   -34.1847 -13.6912 -13.5067 -13.4200   2.4232   2.8982   5.4123   7.1277
     8.4406

          k =-0.1818-0.1818 0.3636 (   254 PWs)   bands (ev):

   -34.1592 -13.4536 -13.3043 -13.1445   0.8989   4.9906   5.4566   7.5626
     7.7757

          k =-0.1818-0.2727 0.4545 (   257 PWs)   bands (ev):

   -34.1676 -13.4741 -13.4200 -13.2668   1.5895   4.2374   5.0580   7.1820
     7.9673

          k =-0.1818 0.6364-0.4545 (   259 PWs)   bands (ev):

   -34.1735 -13.5036 -13.4859 -13.3394   2.3894   3.3578   4.8715   6.9092
     8.2405

          k =-0.2727 0.7273-0.4545 (   254 PWs)   bands (ev):

   -34.1590 -13.4796 -13.3837 -13.1049   2.3377   3.9484   4.2894   6.9033
     8.1322

          k =-0.2727 0.6364-0.3636 (   262 PWs)   bands (ev):

   -34.1799 -13.6236 -13.5399 -13.3707   3.1202   3.2382   4.0398   6.7852
     8.2911

          k = 0.0000 0.0000 0.1818 (   249 PWs)   bands (ev):

   -34.1406 -13.4370 -12.9695 -12.9695  -0.1655   6.7927   6.7927   7.3469
     8.5056

          k = 0.0000-0.0909 0.2727 (   255 PWs)   bands (ev):

   -34.1592 -13.5959 -13.1687 -13.1110   0.1597   6.0519   6.4381   7.0691
     7.5327

          k = 0.0000-0.1818 0.3636 (   258 PWs)   bands (ev):

   -34.1706 -13.5322 -13.3881 -13.2736   0.6949   5.1042   6.0736   7.0443
     7.9828

          k = 0.0000-0.2727 0.4545 (   256 PWs)   bands (ev):

   -34.1658 -13.4662 -13.3532 -13.2768   1.3920   4.1401   5.8104   6.9242
     8.4688

          k = 0.0000-0.3636 0.5455 (   261 PWs)   bands (ev):

   -34.1796 -13.5768 -13.5485 -13.3546   2.1810   3.2115   5.6520   6.7445
     8.6847

          k =-0.0909-0.0909 0.3636 (   258 PWs)   bands (ev):

   -34.1696 -13.5811 -13.3173 -13.2672   0.5876   5.4767   5.9822   6.9126
     7.8142

          k =-0.0909-0.1818 0.4545 (   258 PWs)   bands (ev):

   -34.1701 -13.5076 -13.4207 -13.2872   1.2005   4.6743   5.5804   6.9345
     7.9280

          k =-0.0909-0.2727 0.5455 (   256 PWs)   bands (ev):

   -34.1656 -13.4863 -13.3383 -13.2915   1.9562   3.7891   5.3494   6.7738
     8.1135

          k =-0.0909 0.6364-0.3636 (   263 PWs)   bands (ev):

   -34.1846 -13.6286 -13.6000 -13.4016   2.6590   3.0036   5.2484   6.6448
     8.4374

          k =-0.1818 0.1818 0.1818 (   255 PWs)   bands (ev):

   -34.1602 -13.4319 -13.2340 -13.2340   0.2707   5.8641   5.8641   7.5287
     8.2356

          k =-0.1818-0.1818 0.5455 (   258 PWs)   bands (ev):

   -34.1708 -13.5669 -13.4497 -13.2370   1.8679   4.2537   4.8352   7.2173
     7.4972

          k =-0.1818 0.7273-0.3636 (   258 PWs)   bands (ev):

   -34.1704 -13.5349 -13.4284 -13.3071   2.6728   3.5573   4.4465   7.1319
     7.8198

          k =-0.2727 0.2727 0.1818 (   259 PWs)   bands (ev):

   -34.1738 -13.5018 -13.4503 -13.3093   0.7933   5.0613   5.4716   7.3599
     8.3697

          k =-0.2727 0.7273-0.2727 (   255 PWs)   bands (ev):

   -34.1616 -13.5321 -13.2647 -13.2647   3.4641   3.4641   3.6267   7.6318
     7.7777

          k =-0.3636 0.3636 0.1818 (   253 PWs)   bands (ev):

   -34.1576 -13.4039 -13.3320 -13.1387   1.4957   4.2096   5.2122   7.0248
     8.6324

          k =-0.3636 0.2727 0.2727 (   258 PWs)   bands (ev):

   -34.1704 -13.5026 -13.3915 -13.3197   1.3973   4.6118   4.9023   6.7873
     8.4892

          k = 0.5455-0.5455 0.1818 (   259 PWs)   bands (ev):

   -34.1741 -13.5333 -13.3983 -13.3952   2.2893   3.2898   5.0873   6.7219
     8.8258

          k = 0.5455-0.6364 0.2727 (   258 PWs)   bands (ev):

   -34.1698 -13.4873 -13.4519 -13.2944   2.1536   3.9123   4.6153   6.3021
     8.6718

          k = 0.4545-0.5455 0.2727 (   257 PWs)   bands (ev):

   -34.1670 -13.5346 -13.3960 -13.2408   2.9029   3.1406   4.5477   6.1371
     8.8713

          k = 0.4545-0.6364 0.3636 (   255 PWs)   bands (ev):

   -34.1613 -13.4286 -13.3770 -13.2307   2.9595   3.7180   3.9175   5.9434
     8.8349

          k = 0.0000 0.0000 0.3636 (   257 PWs)   bands (ev):

   -34.1684 -13.6642 -13.2218 -13.2218   0.4806   6.0331   6.2441   6.2441
     7.7458

          k = 0.0000-0.0909 0.4545 (   256 PWs)   bands (ev):

   -34.1660 -13.5472 -13.3125 -13.2232   1.0032   5.1912   6.0277   6.2763
     8.0719

          k = 0.0000-0.1818 0.5455 (   257 PWs)   bands (ev):

   -34.1703 -13.4899 -13.4577 -13.2650   1.6887   4.3040   5.8533   6.1164
     7.8035

          k = 0.0000-0.2727 0.6364 (   252 PWs)   bands (ev):

   -34.1574 -13.4345 -13.2549 -13.1944   2.4952   3.4180   5.7511   5.9235
     8.0095

          k =-0.0909-0.0909 0.5455 (   252 PWs)   bands (ev):

   -34.1569 -13.3966 -13.2732 -13.1891   1.6054   4.6928   5.5277   6.4058
     7.4351

          k =-0.0909-0.1818 0.6364 (   254 PWs)   bands (ev):

   -34.1645 -13.4859 -13.2956 -13.2704   2.3357   3.9982   5.0625   6.4438
     7.4135

          k =-0.0909 0.7273-0.2727 (   257 PWs)   bands (ev):

   -34.1736 -13.4967 -13.4286 -13.3653   3.1194   3.2026   4.9034   6.3814
     7.6613

          k =-0.1818 0.8182-0.2727 (   253 PWs)   bands (ev):

   -34.1635 -13.4957 -13.3433 -13.1847   3.0944   3.7572   4.2348   6.9245
     7.2417

          k = 0.6364-0.6364 0.3636 (   258 PWs)   bands (ev):

   -34.1678 -13.4364 -13.3810 -13.3810   2.0719   4.3686   4.3686   5.9268
     8.9986

          k = 0.5455-0.5455 0.3636 (   255 PWs)   bands (ev):

   -34.1614 -13.4224 -13.3072 -13.2946   2.8751   3.7056   4.2404   5.4127
     9.1135

          k = 0.4545-0.5455 0.4545 (   252 PWs)   bands (ev):

   -34.1520 -13.3995 -13.2047 -13.2047   3.6142   3.6142   3.7637   5.0281
     9.2463

          k = 0.0000 0.0000 0.5455 (   245 PWs)   bands (ev):

   -34.1381 -13.1439 -13.1081 -13.1081   1.5247   5.0194   5.9646   5.9646
     7.1387

          k = 0.0000-0.0909 0.6364 (   256 PWs)   bands (ev):

   -34.1732 -13.5984 -13.3539 -13.2942   2.1505   4.4494   5.6891   5.8350
     6.7958

          k = 0.0000-0.1818 0.7273 (   253 PWs)   bands (ev):

   -34.1666 -13.4709 -13.3079 -13.2888   2.9188   3.7232   5.3491   5.7591
     7.1458

          k =-0.0909-0.0909 0.7273 (   253 PWs)   bands (ev):

   -34.1679 -13.5248 -13.3658 -13.1964   2.8318   4.1077   5.0101   6.1725
     6.6300

          k =-0.0909 0.8182-0.1818 (   248 PWs)   bands (ev):

   -34.1551 -13.3546 -13.2147 -13.1815   3.4962   3.6389   4.6946   6.2508
     6.8276

          k = 0.0000 0.0000 0.7273 (   249 PWs)   bands (ev):

   -34.1586 -13.5774 -13.1279 -13.1279   2.7453   4.3288   5.8285   5.8286
     5.9159

          k = 0.0000-0.0909 0.8182 (   249 PWs)   bands (ev):

   -34.1604 -13.3160 -13.2780 -13.2710   3.3916   3.9839   5.2721   5.7776
     6.3036

          k =-0.0909 0.9091-0.0909 (   245 PWs)   bands (ev):

   -34.1503 -13.3220 -13.1385 -13.1385   3.8154   3.8154   5.0563   6.1074
     6.1074

          k = 0.0000 0.0000 0.9091 (   245 PWs)   bands (ev):

   -34.1505 -13.3395 -13.1352 -13.1352   3.7939   3.9821   5.6514   5.8010
     5.8010

     the Fermi energy is     1.9975 ev

!    total energy              =    -108.35400688 Ry
     Harris-Foulkes estimate   =    -108.35400689 Ry
     estimated scf accuracy    <          1.3E-09 Ry

     total all-electron energy =     -1199.679007 Ry

     The total energy is the sum of the following terms:

     one-electron contribution =     -32.72876240 Ry
     hartree contribution      =      16.94267244 Ry
     xc contribution           =     -10.65947092 Ry
     ewald contribution        =     -29.89633971 Ry
     one-center paw contrib.   =     -52.01170579 Ry
     smearing contrib. (-TS)   =      -0.00040051 Ry

     convergence has been achieved in   6 iterations

     Forces acting on atoms (cartesian axes, Ry/au):

     atom    1 type  1   force =     0.00000000    0.00000000    0.00000000

     Total force =     0.000000     Total SCF correction =     0.000000


     Computing stress (Cartesian axis) and pressure

          total   stress  (Ry/bohr**3)                   (kbar)     P= -821.07
  -0.00558152  -0.00000000   0.00000000       -821.07     -0.00      0.00
  -0.00000000  -0.00558152  -0.00000000         -0.00   -821.07     -0.00
   0.00000000  -0.00000000  -0.00558152          0.00     -0.00   -821.07


     Writing output data file K.save/

     init_run     :      0.16s CPU      0.17s WALL (       1 calls)
     electrons    :      1.80s CPU      1.97s WALL (       1 calls)
     forces       :      0.02s CPU      0.02s WALL (       1 calls)
     stress       :      0.06s CPU      0.06s WALL (       1 calls)

     Called by init_run:
     wfcinit      :      0.05s CPU      0.06s WALL (       1 calls)
     potinit      :      0.04s CPU      0.04s WALL (       1 calls)
     hinit0       :      0.06s CPU      0.06s WALL (       1 calls)

     Called by electrons:
     c_bands      :      1.36s CPU      1.50s WALL (       6 calls)
     sum_band     :      0.18s CPU      0.19s WALL (       6 calls)
     v_of_rho     :      0.00s CPU      0.00s WALL (       7 calls)
     newd         :      0.02s CPU      0.02s WALL (       7 calls)
     PAW_pot      :      0.28s CPU      0.28s WALL (       7 calls)
     mix_rho      :      0.00s CPU      0.00s WALL (       6 calls)

     Called by c_bands:
     init_us_2    :      0.03s CPU      0.04s WALL (     840 calls)
     cegterg      :      1.31s CPU      1.45s WALL (     336 calls)

     Called by sum_band:
     sum_band:bec :      0.00s CPU      0.00s WALL (     336 calls)
     addusdens    :      0.01s CPU      0.01s WALL (       6 calls)

     Called by *egterg:
     h_psi        :      0.88s CPU      0.97s WALL (    1487 calls)
     s_psi        :      0.02s CPU      0.03s WALL (    1487 calls)
     g_psi        :      0.00s CPU      0.00s WALL (    1095 calls)
     cdiaghg      :      0.28s CPU      0.30s WALL (    1431 calls)

     Called by h_psi:
     h_psi:pot    :      0.87s CPU      0.96s WALL (    1487 calls)
     h_psi:calbec :      0.05s CPU      0.06s WALL (    1487 calls)
     vloc_psi     :      0.78s CPU      0.86s WALL (    1487 calls)
     add_vuspsi   :      0.02s CPU      0.03s WALL (    1487 calls)

     General routines
     calbec       :      0.08s CPU      0.09s WALL (    2103 calls)
     fft          :      0.00s CPU      0.00s WALL (      37 calls)
     ffts         :      0.00s CPU      0.00s WALL (       6 calls)
     fftw         :      0.84s CPU      0.93s WALL (   20574 calls)

     Parallel routines
     fft_scatt_xy :      0.07s CPU      0.08s WALL (   20617 calls)
     fft_scatt_yz :      0.33s CPU      0.36s WALL (   20617 calls)

     PWSCF        :     2.85s CPU         3.12s WALL


   This run was terminated on:   0:10:57   8Apr2024            

=------------------------------------------------------------------------------=
   JOB DONE.
=------------------------------------------------------------------------------=
