
     Program PWSCF v.6.3MaX starts on  8Apr2024 at  0:16:18 

     This program is part of the open-source Quantum ESPRESSO suite
     for quantum simulation of materials; please cite
         "P. Giannozzi et al., J. Phys.:Condens. Matter 21 395502 (2009);
         "P. Giannozzi et al., J. Phys.:Condens. Matter 29 465901 (2017);
          URL http://www.quantum-espresso.org", 
     in publications or presentations arising from this work. More details at
     http://www.quantum-espresso.org/quote

     Parallel version (MPI), running on     5 processors

     MPI processes distributed on     1 nodes
     R & G space division:  proc/nbgrp/npool/nimage =       5
     Waiting for input...
     Reading input from standard input

     Current dimensions of program PWSCF are:
     Max number of different atomic species (ntypx) = 10
     Max number of k-points (npk) =  40000
     Max angular momentum in pseudopotentials (lmaxx) =  3
               file K.pz-spn-kjpaw_psl.1.0.0.UPF: wavefunction(s)  3S renormalized

     Subspace diagonalization in iterative solution of the eigenvalue problem:
     a serial algorithm will be used


     Parallelization info
     --------------------
     sticks:   dense  smooth     PW     G-vecs:    dense   smooth      PW
     Min          87      87     27                 1155     1155     210
     Max          88      88     28                 1155     1155     212
     Sum         437     437    137                 5775     5775    1055



     bravais-lattice index     =            3
     lattice parameter (alat)  =       9.8600  a.u.
     unit-cell volume          =     479.2926 (a.u.)^3
     number of atoms/cell      =            1
     number of atomic types    =            1
     number of electrons       =         9.00
     number of Kohn-Sham states=            9
     kinetic-energy cutoff     =      20.0000  Ry
     charge density cutoff     =      80.0000  Ry
     convergence threshold     =      1.0E-08
     mixing beta               =       0.7000
     number of iterations used =            8  plain     mixing
     Exchange-correlation      = SLA PZ NOGX NOGC ( 1  1  0  0 0 0)

     celldm(1)=   9.860000  celldm(2)=   0.000000  celldm(3)=   0.000000
     celldm(4)=   0.000000  celldm(5)=   0.000000  celldm(6)=   0.000000

     crystal axes: (cart. coord. in units of alat)
               a(1) = (   0.500000   0.500000   0.500000 )  
               a(2) = (  -0.500000   0.500000   0.500000 )  
               a(3) = (  -0.500000  -0.500000   0.500000 )  

     reciprocal axes: (cart. coord. in units 2 pi/alat)
               b(1) = (  1.000000  0.000000  1.000000 )  
               b(2) = ( -1.000000  1.000000  0.000000 )  
               b(3) = (  0.000000 -1.000000  1.000000 )  


     PseudoPot. # 1 for K  read from file:
     /home/lorenzo/pseudos/K/K.pz-spn-kjpaw_psl.1.0.0.UPF
     MD5 check sum: 59b94f4c1a6681f21e103574f2c5fc67
     Pseudo is Projector augmented-wave + core cor, Zval =  9.0
     Generated using "atomic" code by A. Dal Corso v.6.2.2
     Shape of augmentation charge: PSQ
     Using radial grid of 1165 points,  6 beta functions with: 
                l(1) =   0
                l(2) =   0
                l(3) =   1
                l(4) =   1
                l(5) =   2
                l(6) =   2
     Q(r) pseudized with 0 coefficients 


     atomic species   valence    mass     pseudopotential
        K              9.00    39.09830     K ( 1.00)

     48 Sym. Ops., with inversion, found



   Cartesian axes

     site n.     atom                  positions (alat units)
         1           K   tau(   1) = (   0.0000000   0.0000000   0.0000000  )

     number of k points=    35  gaussian smearing, width (Ry)=  0.0100
                       cart. coord. in units 2pi/alat
        k(    1) = (   0.0000000   0.0000000   0.0000000), wk =   0.0027435
        k(    2) = (   0.0000000  -0.1111111   0.1111111), wk =   0.0329218
        k(    3) = (   0.0000000  -0.2222222   0.2222222), wk =   0.0329218
        k(    4) = (   0.0000000  -0.3333333   0.3333333), wk =   0.0329218
        k(    5) = (   0.0000000  -0.4444444   0.4444444), wk =   0.0329218
        k(    6) = (  -0.1111111  -0.1111111   0.2222222), wk =   0.0658436
        k(    7) = (  -0.1111111  -0.2222222   0.3333333), wk =   0.1316872
        k(    8) = (  -0.1111111  -0.3333333   0.4444444), wk =   0.1316872
        k(    9) = (  -0.1111111   0.5555556  -0.4444444), wk =   0.0658436
        k(   10) = (  -0.2222222  -0.2222222   0.4444444), wk =   0.0658436
        k(   11) = (  -0.2222222   0.6666667  -0.4444444), wk =   0.1316872
        k(   12) = (  -0.3333333   0.6666667  -0.3333333), wk =   0.0219479
        k(   13) = (   0.0000000   0.0000000   0.2222222), wk =   0.0164609
        k(   14) = (   0.0000000  -0.1111111   0.3333333), wk =   0.0658436
        k(   15) = (   0.0000000  -0.2222222   0.4444444), wk =   0.0658436
        k(   16) = (   0.0000000  -0.3333333   0.5555556), wk =   0.0658436
        k(   17) = (  -0.1111111  -0.1111111   0.4444444), wk =   0.0658436
        k(   18) = (  -0.1111111  -0.2222222   0.5555556), wk =   0.1316872
        k(   19) = (  -0.1111111   0.6666667  -0.3333333), wk =   0.0658436
        k(   20) = (  -0.2222222   0.2222222   0.2222222), wk =   0.0219479
        k(   21) = (  -0.2222222   0.7777778  -0.3333333), wk =   0.0658436
        k(   22) = (  -0.3333333   0.3333333   0.2222222), wk =   0.0658436
        k(   23) = (   0.5555556  -0.5555556   0.2222222), wk =   0.0658436
        k(   24) = (   0.5555556  -0.6666667   0.3333333), wk =   0.0658436
        k(   25) = (   0.4444444  -0.5555556   0.3333333), wk =   0.0658436
        k(   26) = (   0.0000000   0.0000000   0.4444444), wk =   0.0164609
        k(   27) = (   0.0000000  -0.1111111   0.5555556), wk =   0.0658436
        k(   28) = (   0.0000000  -0.2222222   0.6666667), wk =   0.0658436
        k(   29) = (  -0.1111111  -0.1111111   0.6666667), wk =   0.0658436
        k(   30) = (  -0.1111111   0.7777778  -0.2222222), wk =   0.0658436
        k(   31) = (   0.5555556  -0.5555556   0.4444444), wk =   0.0219479
        k(   32) = (   0.0000000   0.0000000   0.6666667), wk =   0.0164609
        k(   33) = (   0.0000000  -0.1111111   0.7777778), wk =   0.0658436
        k(   34) = (  -0.1111111   0.8888889  -0.1111111), wk =   0.0219479
        k(   35) = (   0.0000000   0.0000000   0.8888889), wk =   0.0164609

     Dense  grid:     5775 G-vectors     FFT dimensions: (  25,  25,  25)

     Estimated max dynamical RAM per process >       6.12 MB

     Estimated total dynamical RAM >      30.58 MB

     Check: negative/imaginary core charge=   -0.000042    0.000000

     Initial potential from superposition of free atoms

     starting charge    8.98437, renormalised to    9.00000
     Starting wfcs are    8 randomized atomic wfcs +    1 random wfcs
     Checking if some PAW data can be deallocated... 

     total cpu time spent up to now is        1.2 secs

     Self-consistent Calculation

     iteration #  1     ecut=    20.00 Ry     beta= 0.70
     Davidson diagonalization with overlap
     ethr =  1.00E-02,  avg # of iterations =  7.0

     Threshold (ethr) on eigenvalues was too large:
     Diagonalizing with lowered threshold

     Davidson diagonalization with overlap
     ethr =  6.32E-05,  avg # of iterations =  5.2

     total cpu time spent up to now is        2.9 secs

     total energy              =    -109.77862153 Ry
     Harris-Foulkes estimate   =    -109.78332845 Ry
     estimated scf accuracy    <       0.00589739 Ry

     iteration #  2     ecut=    20.00 Ry     beta= 0.70
     Davidson diagonalization with overlap
     ethr =  6.55E-05,  avg # of iterations =  2.1

     total cpu time spent up to now is        3.5 secs

     total energy              =    -109.78021876 Ry
     Harris-Foulkes estimate   =    -109.78042613 Ry
     estimated scf accuracy    <       0.00058591 Ry

     iteration #  3     ecut=    20.00 Ry     beta= 0.70
     Davidson diagonalization with overlap
     ethr =  6.51E-06,  avg # of iterations =  2.5

     total cpu time spent up to now is        3.9 secs

     total energy              =    -109.78028090 Ry
     Harris-Foulkes estimate   =    -109.78028176 Ry
     estimated scf accuracy    <       0.00003051 Ry

     iteration #  4     ecut=    20.00 Ry     beta= 0.70
     Davidson diagonalization with overlap
     ethr =  3.39E-07,  avg # of iterations =  2.0

     total cpu time spent up to now is        4.2 secs

     total energy              =    -109.78028176 Ry
     Harris-Foulkes estimate   =    -109.78028176 Ry
     estimated scf accuracy    <       0.00000003 Ry

     iteration #  5     ecut=    20.00 Ry     beta= 0.70
     Davidson diagonalization with overlap
     ethr =  2.91E-10,  avg # of iterations =  3.2

     total cpu time spent up to now is        4.6 secs

     End of self-consistent calculation

          k = 0.0000 0.0000 0.0000 (   683 PWs)   bands (ev):

   -30.3396 -13.6793 -13.6793 -13.6793  -0.4850   6.1658   6.1658   6.1658
     7.1489

          k = 0.0000-0.1111 0.1111 (   706 PWs)   bands (ev):

   -30.3390 -13.7331 -13.7026 -13.6978  -0.3259   5.8827   5.9564   6.2575
     6.9044

          k = 0.0000-0.2222 0.2222 (   708 PWs)   bands (ev):

   -30.3375 -13.7505 -13.7143 -13.7041   0.1385   5.0098   5.5465   6.6266
     6.9035

          k = 0.0000-0.3333 0.3333 (   714 PWs)   bands (ev):

   -30.3358 -13.7925 -13.7245 -13.7049   0.8661   3.9561   5.1939   6.9325
     7.2169

          k = 0.0000-0.4444 0.4444 (   724 PWs)   bands (ev):

   -30.3348 -13.8212 -13.7444 -13.7169   1.7826   2.8911   4.9928   6.7549
     7.4660

          k =-0.1111-0.1111 0.2222 (   717 PWs)   bands (ev):

   -30.3380 -13.7517 -13.7321 -13.7095  -0.0141   5.3729   5.5580   6.4790
     6.7017

          k =-0.1111-0.2222 0.3333 (   720 PWs)   bands (ev):

   -30.3364 -13.7795 -13.7370 -13.7175   0.5834   4.4926   5.1218   6.7185
     6.8675

          k =-0.1111-0.3333 0.4444 (   727 PWs)   bands (ev):

   -30.3350 -13.8162 -13.7484 -13.7241   1.4126   3.4785   4.8433   6.6047
     7.2784

          k =-0.1111 0.5556-0.4444 (   726 PWs)   bands (ev):

   -30.3345 -13.8278 -13.7490 -13.7223   2.2794   2.5527   4.7491   6.4681
     7.7158

          k =-0.2222-0.2222 0.4444 (   728 PWs)   bands (ev):

   -30.3351 -13.8075 -13.7558 -13.7288   1.2863   3.9672   4.4751   6.7059
     6.8345

          k =-0.2222 0.6667-0.4444 (   731 PWs)   bands (ev):

   -30.3343 -13.8118 -13.7701 -13.7425   2.1840   3.1659   4.1115   6.3825
     7.1250

          k =-0.3333 0.6667-0.3333 (   727 PWs)   bands (ev):

   -30.3340 -13.7896 -13.7896 -13.7405   3.0054   3.0054   3.3251   6.3206
     7.2480

          k = 0.0000 0.0000 0.2222 (   711 PWs)   bands (ev):

   -30.3384 -13.7340 -13.7147 -13.7147  -0.1686   5.8286   5.8286   6.2595
     6.3255

          k = 0.0000-0.1111 0.3333 (   716 PWs)   bands (ev):

   -30.3370 -13.7544 -13.7282 -13.7263   0.2897   5.0605   5.5142   6.0902
     6.6516

          k = 0.0000-0.2222 0.4444 (   722 PWs)   bands (ev):

   -30.3354 -13.8016 -13.7343 -13.7272   1.0084   4.0256   5.2093   6.1232
     7.2303

          k = 0.0000-0.3333 0.5556 (   723 PWs)   bands (ev):

   -30.3343 -13.8218 -13.7452 -13.7240   1.9194   2.9850   5.0342   6.0107
     7.3861

          k =-0.1111-0.1111 0.4444 (   722 PWs)   bands (ev):

   -30.3355 -13.7843 -13.7475 -13.7307   0.8713   4.4697   5.0677   6.0300
     6.9557

          k =-0.1111-0.2222 0.5556 (   724 PWs)   bands (ev):

   -30.3342 -13.8023 -13.7574 -13.7361   1.6818   3.6293   4.6684   6.0865
     6.9572

          k =-0.1111 0.6667-0.3333 (   730 PWs)   bands (ev):

   -30.3337 -13.8157 -13.7681 -13.7470   2.5944   2.6913   4.5294   6.0083
     7.1524

          k =-0.2222 0.2222 0.2222 (   712 PWs)   bands (ev):

   -30.3368 -13.7722 -13.7136 -13.7136   0.4378   4.8901   4.8901   6.6705
     7.1829

          k =-0.2222 0.7778-0.3333 (   733 PWs)   bands (ev):

   -30.3334 -13.8022 -13.7919 -13.7513   2.5347   3.3033   3.8097   6.4892
     6.7250

          k =-0.3333 0.3333 0.2222 (   724 PWs)   bands (ev):

   -30.3355 -13.8082 -13.7429 -13.7198   1.1502   4.0328   4.5445   6.5158
     7.3025

          k = 0.5556-0.5556 0.2222 (   724 PWs)   bands (ev):

   -30.3346 -13.8099 -13.7634 -13.7185   2.0573   3.0765   4.3716   6.1457
     7.5095

          k = 0.5556-0.6667 0.3333 (   723 PWs)   bands (ev):

   -30.3347 -13.8017 -13.7541 -13.7311   1.9454   3.6386   3.9561   5.8413
     7.4469

          k = 0.4444-0.5556 0.3333 (   729 PWs)   bands (ev):

   -30.3344 -13.8032 -13.7746 -13.7404   2.8544   2.8760   3.7569   5.5406
     7.5498

          k = 0.0000 0.0000 0.4444 (   719 PWs)   bands (ev):

   -30.3357 -13.7709 -13.7392 -13.7392   0.7299   4.9762   5.3980   5.3980
     6.8626

          k = 0.0000-0.1111 0.5556 (   730 PWs)   bands (ev):

   -30.3341 -13.8022 -13.7590 -13.7574   1.4202   4.1686   5.2338   5.3874
     6.7000

          k = 0.0000-0.2222 0.6667 (   730 PWs)   bands (ev):

   -30.3331 -13.8089 -13.7683 -13.7602   2.2941   3.2540   5.1232   5.1916
     6.7501

          k =-0.1111-0.1111 0.6667 (   730 PWs)   bands (ev):

   -30.3329 -13.8070 -13.7739 -13.7595   2.1747   3.7248   4.5881   5.6829
     6.3193

          k =-0.1111 0.7778-0.2222 (   730 PWs)   bands (ev):

   -30.3324 -13.7995 -13.7842 -13.7671   2.9628   3.1045   4.2450   5.7908
     6.4111

          k = 0.5556-0.5556 0.4444 (   712 PWs)   bands (ev):

   -30.3344 -13.7725 -13.7414 -13.7414   2.7604   3.4823   3.4823   4.9710
     7.7270

          k = 0.0000 0.0000 0.6667 (   735 PWs)   bands (ev):

   -30.3327 -13.8216 -13.7712 -13.7712   2.0482   4.0234   5.2319   5.2319
     5.8320

          k = 0.0000-0.1111 0.7778 (   724 PWs)   bands (ev):

   -30.3318 -13.7943 -13.7740 -13.7722   2.8006   3.5437   4.8847   5.2231
     5.9265

          k =-0.1111 0.8889-0.1111 (   718 PWs)   bands (ev):

   -30.3314 -13.7762 -13.7762 -13.7752   3.3227   3.3227   4.5469   5.6543
     5.6543

          k = 0.0000 0.0000 0.8889 (   711 PWs)   bands (ev):

   -30.3309 -13.7706 -13.7706 -13.7685   3.2823   3.5358   5.2573   5.2832
     5.2832

     the Fermi energy is     1.7547 ev

!    total energy              =    -109.78028184 Ry
     Harris-Foulkes estimate   =    -109.78028184 Ry
     estimated scf accuracy    <          9.1E-10 Ry

     total all-electron energy =     -1201.105282 Ry

     The total energy is the sum of the following terms:

     one-electron contribution =     -35.27452564 Ry
     hartree contribution      =      18.74066755 Ry
     xc contribution           =     -10.99254192 Ry
     ewald contribution        =     -29.89633972 Ry
     one-center paw contrib.   =     -52.35710249 Ry
     smearing contrib. (-TS)   =      -0.00043961 Ry

     convergence has been achieved in   5 iterations

     Forces acting on atoms (cartesian axes, Ry/au):

     atom    1 type  1   force =     0.00000000    0.00000000    0.00000000

     Total force =     0.000000     Total SCF correction =     0.000000


     Computing stress (Cartesian axis) and pressure

          total   stress  (Ry/bohr**3)                   (kbar)     P= -121.48
  -0.00082577   0.00000000   0.00000000       -121.48      0.00      0.00
   0.00000000  -0.00082577   0.00000000          0.00   -121.48      0.00
   0.00000000   0.00000000  -0.00082577          0.00      0.00   -121.48


     Writing output data file K.save/

     init_run     :      0.47s CPU      0.49s WALL (       1 calls)
     electrons    :      3.28s CPU      3.40s WALL (       1 calls)
     forces       :      0.04s CPU      0.04s WALL (       1 calls)
     stress       :      0.12s CPU      0.12s WALL (       1 calls)

     Called by init_run:
     wfcinit      :      0.17s CPU      0.17s WALL (       1 calls)
     potinit      :      0.10s CPU      0.10s WALL (       1 calls)
     hinit0       :      0.19s CPU      0.20s WALL (       1 calls)

     Called by electrons:
     c_bands      :      2.64s CPU      2.74s WALL (       6 calls)
     sum_band     :      0.35s CPU      0.37s WALL (       6 calls)
     v_of_rho     :      0.00s CPU      0.00s WALL (       6 calls)
     newd         :      0.05s CPU      0.05s WALL (       6 calls)
     PAW_pot      :      0.32s CPU      0.33s WALL (       6 calls)
     mix_rho      :      0.00s CPU      0.00s WALL (       6 calls)

     Called by c_bands:
     init_us_2    :      0.06s CPU      0.06s WALL (     525 calls)
     cegterg      :      2.54s CPU      2.63s WALL (     210 calls)

     Called by sum_band:
     sum_band:bec :      0.00s CPU      0.00s WALL (     210 calls)
     addusdens    :      0.04s CPU      0.04s WALL (       6 calls)

     Called by *egterg:
     h_psi        :      1.90s CPU      1.97s WALL (    1012 calls)
     s_psi        :      0.04s CPU      0.04s WALL (    1012 calls)
     g_psi        :      0.00s CPU      0.01s WALL (     767 calls)
     cdiaghg      :      0.31s CPU      0.32s WALL (     942 calls)

     Called by h_psi:
     h_psi:pot    :      1.89s CPU      1.96s WALL (    1012 calls)
     h_psi:calbec :      0.14s CPU      0.14s WALL (    1012 calls)
     vloc_psi     :      1.70s CPU      1.76s WALL (    1012 calls)
     add_vuspsi   :      0.04s CPU      0.04s WALL (    1012 calls)

     General routines
     calbec       :      0.19s CPU      0.20s WALL (    1397 calls)
     fft          :      0.02s CPU      0.02s WALL (      34 calls)
     ffts         :      0.00s CPU      0.00s WALL (       6 calls)
     fftw         :      1.85s CPU      1.93s WALL (   13098 calls)

     Parallel routines
     fft_scatt_xy :      0.09s CPU      0.10s WALL (   13138 calls)
     fft_scatt_yz :      1.02s CPU      1.05s WALL (   13138 calls)

     PWSCF        :     4.66s CPU         4.86s WALL


   This run was terminated on:   0:16:23   8Apr2024            

=------------------------------------------------------------------------------=
   JOB DONE.
=------------------------------------------------------------------------------=
