
     Program PWSCF v.6.3MaX starts on  8Apr2024 at  0:27:45 

     This program is part of the open-source Quantum ESPRESSO suite
     for quantum simulation of materials; please cite
         "P. Giannozzi et al., J. Phys.:Condens. Matter 21 395502 (2009);
         "P. Giannozzi et al., J. Phys.:Condens. Matter 29 465901 (2017);
          URL http://www.quantum-espresso.org", 
     in publications or presentations arising from this work. More details at
     http://www.quantum-espresso.org/quote

     Parallel version (MPI), running on     5 processors

     MPI processes distributed on     1 nodes
     R & G space division:  proc/nbgrp/npool/nimage =       5
     Waiting for input...
     Reading input from standard input

     Current dimensions of program PWSCF are:
     Max number of different atomic species (ntypx) = 10
     Max number of k-points (npk) =  40000
     Max angular momentum in pseudopotentials (lmaxx) =  3
               file K.pz-spn-kjpaw_psl.1.0.0.UPF: wavefunction(s)  3S renormalized

     Subspace diagonalization in iterative solution of the eigenvalue problem:
     a serial algorithm will be used


     Parallelization info
     --------------------
     sticks:   dense  smooth     PW     G-vecs:    dense   smooth      PW
     Min         175     175     53                 3283     3283     546
     Max         175     175     53                 3283     3283     547
     Sum         875     875    265                16415    16415    2731



     bravais-lattice index     =            3
     lattice parameter (alat)  =       9.8600  a.u.
     unit-cell volume          =     479.2926 (a.u.)^3
     number of atoms/cell      =            1
     number of atomic types    =            1
     number of electrons       =         9.00
     number of Kohn-Sham states=            9
     kinetic-energy cutoff     =      40.0000  Ry
     charge density cutoff     =     160.0000  Ry
     convergence threshold     =      1.0E-08
     mixing beta               =       0.7000
     number of iterations used =            8  plain     mixing
     Exchange-correlation      = SLA PZ NOGX NOGC ( 1  1  0  0 0 0)

     celldm(1)=   9.860000  celldm(2)=   0.000000  celldm(3)=   0.000000
     celldm(4)=   0.000000  celldm(5)=   0.000000  celldm(6)=   0.000000

     crystal axes: (cart. coord. in units of alat)
               a(1) = (   0.500000   0.500000   0.500000 )  
               a(2) = (  -0.500000   0.500000   0.500000 )  
               a(3) = (  -0.500000  -0.500000   0.500000 )  

     reciprocal axes: (cart. coord. in units 2 pi/alat)
               b(1) = (  1.000000  0.000000  1.000000 )  
               b(2) = ( -1.000000  1.000000  0.000000 )  
               b(3) = (  0.000000 -1.000000  1.000000 )  


     PseudoPot. # 1 for K  read from file:
     /home/lorenzo/pseudos/K/K.pz-spn-kjpaw_psl.1.0.0.UPF
     MD5 check sum: 59b94f4c1a6681f21e103574f2c5fc67
     Pseudo is Projector augmented-wave + core cor, Zval =  9.0
     Generated using "atomic" code by A. Dal Corso v.6.2.2
     Shape of augmentation charge: PSQ
     Using radial grid of 1165 points,  6 beta functions with: 
                l(1) =   0
                l(2) =   0
                l(3) =   1
                l(4) =   1
                l(5) =   2
                l(6) =   2
     Q(r) pseudized with 0 coefficients 


     atomic species   valence    mass     pseudopotential
        K              9.00    39.09830     K ( 1.00)

     48 Sym. Ops., with inversion, found



   Cartesian axes

     site n.     atom                  positions (alat units)
         1           K   tau(   1) = (   0.0000000   0.0000000   0.0000000  )

     number of k points=    29  gaussian smearing, width (Ry)=  0.0100
                       cart. coord. in units 2pi/alat
        k(    1) = (   0.0000000   0.0000000   0.0000000), wk =   0.0039062
        k(    2) = (   0.0000000  -0.1250000   0.1250000), wk =   0.0468750
        k(    3) = (   0.0000000  -0.2500000   0.2500000), wk =   0.0468750
        k(    4) = (   0.0000000  -0.3750000   0.3750000), wk =   0.0468750
        k(    5) = (   0.0000000   0.5000000  -0.5000000), wk =   0.0234375
        k(    6) = (  -0.1250000  -0.1250000   0.2500000), wk =   0.0937500
        k(    7) = (  -0.1250000  -0.2500000   0.3750000), wk =   0.1875000
        k(    8) = (  -0.1250000   0.6250000  -0.5000000), wk =   0.1875000
        k(    9) = (  -0.2500000   0.7500000  -0.5000000), wk =   0.0937500
        k(   10) = (  -0.2500000   0.6250000  -0.3750000), wk =   0.0937500
        k(   11) = (   0.0000000   0.0000000   0.2500000), wk =   0.0234375
        k(   12) = (   0.0000000  -0.1250000   0.3750000), wk =   0.0937500
        k(   13) = (   0.0000000  -0.2500000   0.5000000), wk =   0.0937500
        k(   14) = (   0.0000000   0.6250000  -0.3750000), wk =   0.0468750
        k(   15) = (  -0.1250000  -0.1250000   0.5000000), wk =   0.0937500
        k(   16) = (  -0.1250000   0.7500000  -0.3750000), wk =   0.1875000
        k(   17) = (  -0.2500000   0.2500000   0.2500000), wk =   0.0312500
        k(   18) = (  -0.2500000   0.7500000  -0.2500000), wk =   0.0312500
        k(   19) = (   0.6250000  -0.6250000   0.2500000), wk =   0.0937500
        k(   20) = (   0.5000000  -0.5000000   0.2500000), wk =   0.0468750
        k(   21) = (   0.5000000  -0.6250000   0.3750000), wk =   0.0937500
        k(   22) = (   0.0000000   0.0000000   0.5000000), wk =   0.0234375
        k(   23) = (   0.0000000  -0.1250000   0.6250000), wk =   0.0937500
        k(   24) = (   0.0000000   0.7500000  -0.2500000), wk =   0.0468750
        k(   25) = (  -0.1250000   0.8750000  -0.2500000), wk =   0.0937500
        k(   26) = (   0.5000000  -0.5000000   0.5000000), wk =   0.0078125
        k(   27) = (   0.0000000   0.0000000   0.7500000), wk =   0.0234375
        k(   28) = (   0.0000000   0.8750000  -0.1250000), wk =   0.0468750
        k(   29) = (   0.0000000   0.0000000  -1.0000000), wk =   0.0039062

     Dense  grid:    16415 G-vectors     FFT dimensions: (  36,  36,  36)

     Estimated max dynamical RAM per process >      15.54 MB

     Estimated total dynamical RAM >      77.68 MB

     Check: negative/imaginary core charge=   -0.000011    0.000000

     Initial potential from superposition of free atoms

     starting charge    8.98437, renormalised to    9.00000
     Starting wfcs are    8 randomized atomic wfcs +    1 random wfcs
     Checking if some PAW data can be deallocated... 

     total cpu time spent up to now is        1.1 secs

     Self-consistent Calculation

     iteration #  1     ecut=    40.00 Ry     beta= 0.70
     Davidson diagonalization with overlap
     ethr =  1.00E-02,  avg # of iterations =  6.4

     Threshold (ethr) on eigenvalues was too large:
     Diagonalizing with lowered threshold

     Davidson diagonalization with overlap
     ethr =  1.24E-05,  avg # of iterations =  6.0

     total cpu time spent up to now is        2.6 secs

     total energy              =    -109.86983854 Ry
     Harris-Foulkes estimate   =    -109.87038573 Ry
     estimated scf accuracy    <       0.00111277 Ry

     iteration #  2     ecut=    40.00 Ry     beta= 0.70
     Davidson diagonalization with overlap
     ethr =  1.24E-05,  avg # of iterations =  2.1

     total cpu time spent up to now is        3.2 secs

     total energy              =    -109.87001912 Ry
     Harris-Foulkes estimate   =    -109.87004323 Ry
     estimated scf accuracy    <       0.00008648 Ry

     iteration #  3     ecut=    40.00 Ry     beta= 0.70
     Davidson diagonalization with overlap
     ethr =  9.61E-07,  avg # of iterations =  2.7

     total cpu time spent up to now is        3.8 secs

     total energy              =    -109.87003044 Ry
     Harris-Foulkes estimate   =    -109.87003017 Ry
     estimated scf accuracy    <       0.00000584 Ry

     iteration #  4     ecut=    40.00 Ry     beta= 0.70
     Davidson diagonalization with overlap
     ethr =  6.49E-08,  avg # of iterations =  1.3

     total cpu time spent up to now is        4.2 secs

     total energy              =    -109.87003111 Ry
     Harris-Foulkes estimate   =    -109.87003110 Ry
     estimated scf accuracy    <       0.00000004 Ry

     iteration #  5     ecut=    40.00 Ry     beta= 0.70
     Davidson diagonalization with overlap
     ethr =  4.86E-10,  avg # of iterations =  2.6

     total cpu time spent up to now is        4.8 secs

     End of self-consistent calculation

          k = 0.0000 0.0000 0.0000 (  2093 PWs)   bands (ev):

   -30.0961 -13.7343 -13.7343 -13.7343  -0.4764   5.9295   5.9295   5.9295
     6.8759

          k = 0.0000-0.1250 0.1250 (  2044 PWs)   bands (ev):

   -30.0951 -13.7461 -13.7381 -13.7342  -0.2763   5.6296   5.7072   6.0898
     6.6505

          k = 0.0000-0.2500 0.2500 (  2046 PWs)   bands (ev):

   -30.0933 -13.7745 -13.7476 -13.7342   0.3025   4.6615   5.2849   6.5591
     6.6853

          k = 0.0000-0.3750 0.3750 (  2044 PWs)   bands (ev):

   -30.0915 -13.8025 -13.7571 -13.7341   1.1939   3.5138   4.9549   6.6650
     7.0606

          k = 0.0000 0.5000-0.5000 (  2058 PWs)   bands (ev):

   -30.0908 -13.8140 -13.7610 -13.7342   2.1434   2.4887   4.8356   6.5330
     7.8350

          k =-0.1250-0.1250 0.2500 (  2049 PWs)   bands (ev):

   -30.0939 -13.7656 -13.7426 -13.7370   0.1136   5.0793   5.2822   6.3697
     6.4920

          k =-0.1250-0.2500 0.3750 (  2055 PWs)   bands (ev):

   -30.0921 -13.7907 -13.7541 -13.7381   0.8520   4.1240   4.8469   6.5269
     6.8140

          k =-0.1250 0.6250-0.5000 (  2053 PWs)   bands (ev):

   -30.0907 -13.8077 -13.7633 -13.7384   1.8492   3.0169   4.6152   6.3555
     7.2001

          k =-0.2500 0.7500-0.5000 (  2065 PWs)   bands (ev):

   -30.0908 -13.7994 -13.7676 -13.7425   1.7062   3.6275   4.1188   6.4598
     6.7135

          k =-0.2500 0.6250-0.3750 (  2043 PWs)   bands (ev):

   -30.0902 -13.7990 -13.7778 -13.7435   2.7312   2.7580   3.8113   6.2439
     7.0011

          k = 0.0000 0.0000 0.2500 (  2042 PWs)   bands (ev):

   -30.0944 -13.7490 -13.7422 -13.7422  -0.0793   5.6107   5.6107   5.9354
     6.1598

          k = 0.0000-0.1250 0.3750 (  2050 PWs)   bands (ev):

   -30.0927 -13.7736 -13.7519 -13.7436   0.4904   4.7255   5.2911   5.8523
     6.5742

          k = 0.0000-0.2500 0.5000 (  2047 PWs)   bands (ev):

   -30.0909 -13.7999 -13.7616 -13.7430   1.3688   3.6136   5.0064   5.8603
     7.0827

          k = 0.0000 0.6250-0.3750 (  2042 PWs)   bands (ev):

   -30.0901 -13.8107 -13.7655 -13.7427   2.3480   2.5718   4.9002   5.7555
     7.1338

          k =-0.1250-0.1250 0.5000 (  2043 PWs)   bands (ev):

   -30.0909 -13.7902 -13.7637 -13.7486   1.2039   4.1237   4.7922   5.8678
     6.7629

          k =-0.1250 0.7500-0.3750 (  2056 PWs)   bands (ev):

   -30.0897 -13.8025 -13.7744 -13.7490   2.1694   3.2332   4.3707   5.9256
     6.7487

          k =-0.2500 0.2500 0.2500 (  2066 PWs)   bands (ev):

   -30.0926 -13.7865 -13.7438 -13.7438   0.6741   4.5700   4.5700   6.5653
     6.9961

          k =-0.2500 0.7500-0.2500 (  2028 PWs)   bands (ev):

   -30.0891 -13.7923 -13.7923 -13.7501   3.0212   3.0212   3.5234   6.4923
     6.9771

          k = 0.6250-0.6250 0.2500 (  2051 PWs)   bands (ev):

   -30.0912 -13.7990 -13.7586 -13.7449   1.5434   3.6651   4.2563   6.2045
     7.1480

          k = 0.5000-0.5000 0.2500 (  2046 PWs)   bands (ev):

   -30.0906 -13.8018 -13.7671 -13.7453   2.5436   2.6699   4.1514   5.8939
     7.2787

          k = 0.5000-0.6250 0.3750 (  2045 PWs)   bands (ev):

   -30.0905 -13.7924 -13.7715 -13.7524   2.4750   3.3305   3.6207   5.4628
     7.2763

          k = 0.0000 0.0000 0.5000 (  2058 PWs)   bands (ev):

   -30.0911 -13.7756 -13.7621 -13.7621   1.0317   4.6032   5.2343   5.2343
     6.7671

          k = 0.0000-0.1250 0.6250 (  2044 PWs)   bands (ev):

   -30.0894 -13.7938 -13.7722 -13.7641   1.8588   3.8172   5.1153   5.1399
     6.3064

          k = 0.0000 0.7500-0.2500 (  2034 PWs)   bands (ev):

   -30.0886 -13.8029 -13.7764 -13.7632   2.8163   2.8870   4.9324   5.0582
     6.4846

          k =-0.1250 0.8750-0.2500 (  2033 PWs)   bands (ev):

   -30.0882 -13.7965 -13.7856 -13.7671   2.7016   3.4257   4.3065   5.6555
     6.0553

          k = 0.5000-0.5000 0.5000 (  2016 PWs)   bands (ev):

   -30.0903 -13.7731 -13.7731 -13.7731   3.2332   3.2332   3.2332   4.7549
     7.4355

          k = 0.0000 0.0000 0.7500 (  2030 PWs)   bands (ev):

   -30.0878 -13.7896 -13.7828 -13.7828   2.5570   3.7088   5.1949   5.1949
     5.4152

          k = 0.0000 0.8750-0.1250 (  2010 PWs)   bands (ev):

   -30.0871 -13.7949 -13.7872 -13.7834   3.1747   3.3537   4.8316   5.2177
     5.6900

          k = 0.0000 0.0000-1.0000 (  1974 PWs)   bands (ev):

   -30.0863 -13.7916 -13.7916 -13.7916   3.4015   5.2836   5.2837   5.2837
     7.2564

     the Fermi energy is     1.7672 ev

!    total energy              =    -109.87003113 Ry
     Harris-Foulkes estimate   =    -109.87003114 Ry
     estimated scf accuracy    <          3.4E-09 Ry

     total all-electron energy =     -1201.195031 Ry

     The total energy is the sum of the following terms:

     one-electron contribution =     -35.36357598 Ry
     hartree contribution      =      18.82427542 Ry
     xc contribution           =     -11.01728556 Ry
     ewald contribution        =     -29.89633978 Ry
     one-center paw contrib.   =     -52.41633499 Ry
     smearing contrib. (-TS)   =      -0.00077024 Ry

     convergence has been achieved in   5 iterations

     Forces acting on atoms (cartesian axes, Ry/au):

     atom    1 type  1   force =     0.00000000    0.00000000    0.00000000

     Total force =     0.000000     Total SCF correction =     0.000000


     Computing stress (Cartesian axis) and pressure

          total   stress  (Ry/bohr**3)                   (kbar)     P=   -4.48
  -0.00003044   0.00000000  -0.00000000         -4.48      0.00     -0.00
   0.00000000  -0.00003044   0.00000000          0.00     -4.48      0.00
  -0.00000000   0.00000000  -0.00003044         -0.00      0.00     -4.48


     Writing output data file K.save/

     init_run     :      0.39s CPU      0.41s WALL (       1 calls)
     electrons    :      3.49s CPU      3.69s WALL (       1 calls)
     forces       :      0.06s CPU      0.07s WALL (       1 calls)
     stress       :      0.28s CPU      0.28s WALL (       1 calls)

     Called by init_run:
     wfcinit      :      0.16s CPU      0.17s WALL (       1 calls)
     potinit      :      0.05s CPU      0.05s WALL (       1 calls)
     hinit0       :      0.15s CPU      0.15s WALL (       1 calls)

     Called by electrons:
     c_bands      :      2.67s CPU      2.84s WALL (       6 calls)
     sum_band     :      0.52s CPU      0.55s WALL (       6 calls)
     v_of_rho     :      0.01s CPU      0.01s WALL (       6 calls)
     newd         :      0.09s CPU      0.10s WALL (       6 calls)
     PAW_pot      :      0.24s CPU      0.24s WALL (       6 calls)
     mix_rho      :      0.00s CPU      0.00s WALL (       6 calls)

     Called by c_bands:
     init_us_2    :      0.10s CPU      0.11s WALL (     435 calls)
     cegterg      :      2.55s CPU      2.71s WALL (     174 calls)

     Called by sum_band:
     sum_band:bec :      0.00s CPU      0.00s WALL (     174 calls)
     addusdens    :      0.09s CPU      0.09s WALL (       6 calls)

     Called by *egterg:
     h_psi        :      2.07s CPU      2.23s WALL (     815 calls)
     s_psi        :      0.07s CPU      0.07s WALL (     815 calls)
     g_psi        :      0.01s CPU      0.01s WALL (     612 calls)
     cdiaghg      :      0.17s CPU      0.17s WALL (     757 calls)

     Called by h_psi:
     h_psi:pot    :      2.06s CPU      2.21s WALL (     815 calls)
     h_psi:calbec :      0.11s CPU      0.12s WALL (     815 calls)
     vloc_psi     :      1.87s CPU      2.01s WALL (     815 calls)
     add_vuspsi   :      0.07s CPU      0.08s WALL (     815 calls)

     General routines
     calbec       :      0.18s CPU      0.19s WALL (    1134 calls)
     fft          :      0.01s CPU      0.01s WALL (      34 calls)
     ffts         :      0.00s CPU      0.00s WALL (       6 calls)
     fftw         :      2.04s CPU      2.19s WALL (   10936 calls)

     Parallel routines
     fft_scatt_xy :      0.17s CPU      0.18s WALL (   10976 calls)
     fft_scatt_yz :      0.44s CPU      0.48s WALL (   10976 calls)

     PWSCF        :     4.96s CPU         5.24s WALL


   This run was terminated on:   0:27:50   8Apr2024            

=------------------------------------------------------------------------------=
   JOB DONE.
=------------------------------------------------------------------------------=
