
     Program PWSCF v.6.3MaX starts on  8Apr2024 at  1:10:23 

     This program is part of the open-source Quantum ESPRESSO suite
     for quantum simulation of materials; please cite
         "P. Giannozzi et al., J. Phys.:Condens. Matter 21 395502 (2009);
         "P. Giannozzi et al., J. Phys.:Condens. Matter 29 465901 (2017);
          URL http://www.quantum-espresso.org", 
     in publications or presentations arising from this work. More details at
     http://www.quantum-espresso.org/quote

     Parallel version (MPI), running on     5 processors

     MPI processes distributed on     1 nodes
     R & G space division:  proc/nbgrp/npool/nimage =       5
     Waiting for input...
     Reading input from standard input

     Current dimensions of program PWSCF are:
     Max number of different atomic species (ntypx) = 10
     Max number of k-points (npk) =  40000
     Max angular momentum in pseudopotentials (lmaxx) =  3
               file K.pbe-spn-kjpaw_psl.1.0.0.UPF: wavefunction(s)  3S renormalized

     Subspace diagonalization in iterative solution of the eigenvalue problem:
     a serial algorithm will be used


     Parallelization info
     --------------------
     sticks:   dense  smooth     PW     G-vecs:    dense   smooth      PW
     Min         351     351     99                 9272     9272    1421
     Max         351     351    100                 9273     9273    1422
     Sum        1755    1755    499                46361    46361    7107



     bravais-lattice index     =            3
     lattice parameter (alat)  =       9.8600  a.u.
     unit-cell volume          =     479.2926 (a.u.)^3
     number of atoms/cell      =            1
     number of atomic types    =            1
     number of electrons       =         9.00
     number of Kohn-Sham states=            9
     kinetic-energy cutoff     =      80.0000  Ry
     charge density cutoff     =     320.0000  Ry
     convergence threshold     =      1.0E-08
     mixing beta               =       0.7000
     number of iterations used =            8  plain     mixing
     Exchange-correlation      = SLA PW PBX PBC ( 1  4  3  4 0 0)

     celldm(1)=   9.860000  celldm(2)=   0.000000  celldm(3)=   0.000000
     celldm(4)=   0.000000  celldm(5)=   0.000000  celldm(6)=   0.000000

     crystal axes: (cart. coord. in units of alat)
               a(1) = (   0.500000   0.500000   0.500000 )  
               a(2) = (  -0.500000   0.500000   0.500000 )  
               a(3) = (  -0.500000  -0.500000   0.500000 )  

     reciprocal axes: (cart. coord. in units 2 pi/alat)
               b(1) = (  1.000000  0.000000  1.000000 )  
               b(2) = ( -1.000000  1.000000  0.000000 )  
               b(3) = (  0.000000 -1.000000  1.000000 )  


     PseudoPot. # 1 for K  read from file:
     /home/lorenzo/pseudos/K/K.pbe-spn-kjpaw_psl.1.0.0.UPF
     MD5 check sum: 34cc42130a09071ebe376fd42eb21491
     Pseudo is Projector augmented-wave + core cor, Zval =  9.0
     Generated using "atomic" code by A. Dal Corso v.6.2.2
     Shape of augmentation charge: PSQ
     Using radial grid of 1165 points,  6 beta functions with: 
                l(1) =   0
                l(2) =   0
                l(3) =   1
                l(4) =   1
                l(5) =   2
                l(6) =   2
     Q(r) pseudized with 0 coefficients 


     atomic species   valence    mass     pseudopotential
        K              9.00    39.09830     K ( 1.00)

     48 Sym. Ops., with inversion, found



   Cartesian axes

     site n.     atom                  positions (alat units)
         1           K   tau(   1) = (   0.0000000   0.0000000   0.0000000  )

     number of k points=     8  gaussian smearing, width (Ry)=  0.0100
                       cart. coord. in units 2pi/alat
        k(    1) = (   0.0000000   0.0000000   0.0000000), wk =   0.0312500
        k(    2) = (   0.0000000  -0.2500000   0.2500000), wk =   0.3750000
        k(    3) = (   0.0000000   0.5000000  -0.5000000), wk =   0.1875000
        k(    4) = (  -0.2500000   0.7500000  -0.5000000), wk =   0.7500000
        k(    5) = (   0.0000000   0.0000000   0.5000000), wk =   0.1875000
        k(    6) = (   0.0000000   0.7500000  -0.2500000), wk =   0.3750000
        k(    7) = (   0.5000000  -0.5000000   0.5000000), wk =   0.0625000
        k(    8) = (   0.0000000   0.0000000  -1.0000000), wk =   0.0312500

     Dense  grid:    46361 G-vectors     FFT dimensions: (  50,  50,  50)

     Estimated max dynamical RAM per process >      38.01 MB

     Estimated total dynamical RAM >     190.07 MB

     Initial potential from superposition of free atoms

     starting charge    8.98117, renormalised to    9.00000
     Starting wfcs are    8 randomized atomic wfcs +    1 random wfcs
     Checking if some PAW data can be deallocated... 

     total cpu time spent up to now is        1.5 secs

     Self-consistent Calculation

     iteration #  1     ecut=    80.00 Ry     beta= 0.70
     Davidson diagonalization with overlap
     ethr =  1.00E-02,  avg # of iterations =  7.5

     Threshold (ethr) on eigenvalues was too large:
     Diagonalizing with lowered threshold

     Davidson diagonalization with overlap
     ethr =  1.47E-05,  avg # of iterations =  5.1

     total cpu time spent up to now is        3.1 secs

     total energy              =    -113.00699094 Ry
     Harris-Foulkes estimate   =    -113.00748594 Ry
     estimated scf accuracy    <       0.00125355 Ry

     iteration #  2     ecut=    80.00 Ry     beta= 0.70
     Davidson diagonalization with overlap
     ethr =  1.39E-05,  avg # of iterations =  2.1

     total cpu time spent up to now is        3.8 secs

     total energy              =    -113.00721084 Ry
     Harris-Foulkes estimate   =    -113.00721825 Ry
     estimated scf accuracy    <       0.00010194 Ry

     iteration #  3     ecut=    80.00 Ry     beta= 0.70
     Davidson diagonalization with overlap
     ethr =  1.13E-06,  avg # of iterations =  3.9

     total cpu time spent up to now is        4.4 secs

     total energy              =    -113.00722308 Ry
     Harris-Foulkes estimate   =    -113.00722060 Ry
     estimated scf accuracy    <       0.00000692 Ry

     iteration #  4     ecut=    80.00 Ry     beta= 0.70
     Davidson diagonalization with overlap
     ethr =  7.69E-08,  avg # of iterations =  1.5

     total cpu time spent up to now is        5.0 secs

     total energy              =    -113.00722372 Ry
     Harris-Foulkes estimate   =    -113.00722373 Ry
     estimated scf accuracy    <       0.00000005 Ry

     iteration #  5     ecut=    80.00 Ry     beta= 0.70
     Davidson diagonalization with overlap
     ethr =  6.02E-10,  avg # of iterations =  2.4

     total cpu time spent up to now is        5.5 secs

     End of self-consistent calculation

          k = 0.0000 0.0000 0.0000 (  5775 PWs)   bands (ev):

   -30.1639 -13.6124 -13.6124 -13.6124  -0.2621   6.2639   6.2639   7.1820
     7.1820

          k = 0.0000-0.2500 0.2500 (  5766 PWs)   bands (ev):

   -30.1614 -13.6510 -13.6252 -13.6124   0.5127   4.9033   5.5840   6.8902
     7.0049

          k = 0.0000 0.5000-0.5000 (  5788 PWs)   bands (ev):

   -30.1590 -13.6888 -13.6380 -13.6123   2.3887   2.6478   5.1203   6.8718
     7.7030

          k =-0.2500 0.7500-0.5000 (  5816 PWs)   bands (ev):

   -30.1590 -13.6748 -13.6443 -13.6203   1.9103   3.8313   4.3654   6.7977
     7.0267

          k = 0.0000 0.0000 0.5000 (  5762 PWs)   bands (ev):

   -30.1593 -13.6520 -13.6390 -13.6390   1.2364   4.8174   5.5066   5.5066
     7.0908

          k = 0.0000 0.7500-0.2500 (  5796 PWs)   bands (ev):

   -30.1571 -13.6781 -13.6528 -13.6401   2.9886   3.1107   5.2002   5.3175
     6.7717

          k = 0.5000-0.5000 0.5000 (  5828 PWs)   bands (ev):

   -30.1588 -13.6496 -13.6496 -13.6496   3.4264   3.4264   3.4264   5.1277
     7.7848

          k = 0.0000 0.0000-1.0000 (  5858 PWs)   bands (ev):

   -30.1552 -13.6674 -13.6674 -13.6674   3.5987   5.5108   5.5108   5.5108
     7.6780

     the Fermi energy is     1.9204 ev

!    total energy              =    -113.00722373 Ry
     Harris-Foulkes estimate   =    -113.00722373 Ry
     estimated scf accuracy    <          2.0E-09 Ry

     total all-electron energy =     -1204.245934 Ry

     The total energy is the sum of the following terms:

     one-electron contribution =     -35.40022206 Ry
     hartree contribution      =      18.88127307 Ry
     xc contribution           =     -11.17024397 Ry
     ewald contribution        =     -29.89633970 Ry
     one-center paw contrib.   =     -55.41958691 Ry
     smearing contrib. (-TS)   =      -0.00210416 Ry

     convergence has been achieved in   5 iterations

     Forces acting on atoms (cartesian axes, Ry/au):

     atom    1 type  1   force =     0.00000000    0.00000000    0.00000000

     Total force =     0.000000     Total SCF correction =     0.000000


     Computing stress (Cartesian axis) and pressure

          total   stress  (Ry/bohr**3)                   (kbar)     P=    2.27
   0.00001540  -0.00000000  -0.00000000          2.27     -0.00     -0.00
  -0.00000000   0.00001540  -0.00000000         -0.00      2.27     -0.00
   0.00000000  -0.00000000   0.00001540          0.00     -0.00      2.27


     Writing output data file K.save/

     init_run     :      0.68s CPU      0.72s WALL (       1 calls)
     electrons    :      3.90s CPU      4.02s WALL (       1 calls)
     forces       :      0.14s CPU      0.14s WALL (       1 calls)
     stress       :      0.48s CPU      0.48s WALL (       1 calls)

     Called by init_run:
     wfcinit      :      0.12s CPU      0.12s WALL (       1 calls)
     potinit      :      0.14s CPU      0.16s WALL (       1 calls)
     hinit0       :      0.23s CPU      0.24s WALL (       1 calls)

     Called by electrons:
     c_bands      :      2.32s CPU      2.39s WALL (       6 calls)
     sum_band     :      0.73s CPU      0.75s WALL (       6 calls)
     v_of_rho     :      0.15s CPU      0.16s WALL (       6 calls)
     newd         :      0.26s CPU      0.28s WALL (       6 calls)
     PAW_pot      :      0.59s CPU      0.61s WALL (       6 calls)
     mix_rho      :      0.01s CPU      0.01s WALL (       6 calls)

     Called by c_bands:
     init_us_2    :      0.09s CPU      0.09s WALL (     120 calls)
     cegterg      :      2.22s CPU      2.28s WALL (      48 calls)

     Called by sum_band:
     sum_band:bec :      0.00s CPU      0.00s WALL (      48 calls)
     addusdens    :      0.26s CPU      0.27s WALL (       6 calls)

     Called by *egterg:
     h_psi        :      1.87s CPU      1.94s WALL (     236 calls)
     s_psi        :      0.05s CPU      0.05s WALL (     236 calls)
     g_psi        :      0.01s CPU      0.01s WALL (     180 calls)
     cdiaghg      :      0.06s CPU      0.06s WALL (     220 calls)

     Called by h_psi:
     h_psi:pot    :      1.86s CPU      1.93s WALL (     236 calls)
     h_psi:calbec :      0.10s CPU      0.10s WALL (     236 calls)
     vloc_psi     :      1.70s CPU      1.76s WALL (     236 calls)
     add_vuspsi   :      0.06s CPU      0.06s WALL (     236 calls)

     General routines
     calbec       :      0.18s CPU      0.18s WALL (     324 calls)
     fft          :      0.10s CPU      0.11s WALL (      93 calls)
     ffts         :      0.01s CPU      0.01s WALL (       6 calls)
     fftw         :      1.89s CPU      1.96s WALL (    2952 calls)

     Parallel routines
     fft_scatt_xy :      0.14s CPU      0.14s WALL (    3051 calls)
     fft_scatt_yz :      0.60s CPU      0.63s WALL (    3051 calls)

     PWSCF        :     6.02s CPU         6.24s WALL


   This run was terminated on:   1:10:29   8Apr2024            

=------------------------------------------------------------------------------=
   JOB DONE.
=------------------------------------------------------------------------------=
