
     Program PWSCF v.6.3MaX starts on  8Apr2024 at  0:51:14 

     This program is part of the open-source Quantum ESPRESSO suite
     for quantum simulation of materials; please cite
         "P. Giannozzi et al., J. Phys.:Condens. Matter 21 395502 (2009);
         "P. Giannozzi et al., J. Phys.:Condens. Matter 29 465901 (2017);
          URL http://www.quantum-espresso.org", 
     in publications or presentations arising from this work. More details at
     http://www.quantum-espresso.org/quote

     Parallel version (MPI), running on     5 processors

     MPI processes distributed on     1 nodes
     R & G space division:  proc/nbgrp/npool/nimage =       5
     Waiting for input...
     Reading input from standard input

     Current dimensions of program PWSCF are:
     Max number of different atomic species (ntypx) = 10
     Max number of k-points (npk) =  40000
     Max angular momentum in pseudopotentials (lmaxx) =  3
               file K.pz-spn-rrkjus_psl.1.0.0.UPF: wavefunction(s)  3S renormalized

     Subspace diagonalization in iterative solution of the eigenvalue problem:
     a serial algorithm will be used


     Parallelization info
     --------------------
     sticks:   dense  smooth     PW     G-vecs:    dense   smooth      PW
     Min         282     282     82                 6766     6766    1056
     Max         283     283     83                 6768     6768    1057
     Sum        1411    1411    411                33837    33837    5281



     bravais-lattice index     =            3
     lattice parameter (alat)  =       9.8600  a.u.
     unit-cell volume          =     479.2926 (a.u.)^3
     number of atoms/cell      =            1
     number of atomic types    =            1
     number of electrons       =         9.00
     number of Kohn-Sham states=            9
     kinetic-energy cutoff     =      65.0000  Ry
     charge density cutoff     =     260.0000  Ry
     convergence threshold     =      1.0E-08
     mixing beta               =       0.7000
     number of iterations used =            8  plain     mixing
     Exchange-correlation      = LDA ( 1  1  0  0 0 0)

     celldm(1)=   9.860000  celldm(2)=   0.000000  celldm(3)=   0.000000
     celldm(4)=   0.000000  celldm(5)=   0.000000  celldm(6)=   0.000000

     crystal axes: (cart. coord. in units of alat)
               a(1) = (   0.500000   0.500000   0.500000 )  
               a(2) = (  -0.500000   0.500000   0.500000 )  
               a(3) = (  -0.500000  -0.500000   0.500000 )  

     reciprocal axes: (cart. coord. in units 2 pi/alat)
               b(1) = (  1.000000  0.000000  1.000000 )  
               b(2) = ( -1.000000  1.000000  0.000000 )  
               b(3) = (  0.000000 -1.000000  1.000000 )  


     PseudoPot. # 1 for K  read from file:
     /home/lorenzo/pseudos/K/K.pz-spn-rrkjus_psl.1.0.0.UPF
     MD5 check sum: af434a66a3b91719abff201b8f79bb09
     Pseudo is Ultrasoft + core correction, Zval =  9.0
     Generated using "atomic" code by A. Dal Corso v.6.2.2
     Using radial grid of 1165 points,  6 beta functions with: 
                l(1) =   0
                l(2) =   0
                l(3) =   1
                l(4) =   1
                l(5) =   2
                l(6) =   2
     Q(r) pseudized with 0 coefficients 


     atomic species   valence    mass     pseudopotential
        K              9.00    39.09830     K ( 1.00)

     48 Sym. Ops., with inversion, found



   Cartesian axes

     site n.     atom                  positions (alat units)
         1           K   tau(   1) = (   0.0000000   0.0000000   0.0000000  )

     number of k points=    10  gaussian smearing, width (Ry)=  0.0100
                       cart. coord. in units 2pi/alat
        k(    1) = (   0.0000000   0.0000000   0.0000000), wk =   0.0160000
        k(    2) = (   0.0000000  -0.2000000   0.2000000), wk =   0.1920000
        k(    3) = (   0.0000000  -0.4000000   0.4000000), wk =   0.1920000
        k(    4) = (  -0.2000000  -0.2000000   0.4000000), wk =   0.3840000
        k(    5) = (  -0.2000000   0.6000000  -0.4000000), wk =   0.3840000
        k(    6) = (   0.0000000   0.0000000   0.4000000), wk =   0.0960000
        k(    7) = (   0.0000000  -0.2000000   0.6000000), wk =   0.3840000
        k(    8) = (  -0.2000000   0.8000000  -0.2000000), wk =   0.1280000
        k(    9) = (   0.6000000  -0.6000000   0.4000000), wk =   0.1280000
        k(   10) = (   0.0000000   0.0000000   0.8000000), wk =   0.0960000

     Dense  grid:    33837 G-vectors     FFT dimensions: (  45,  45,  45)

     Estimated max dynamical RAM per process >      28.37 MB

     Estimated total dynamical RAM >     141.83 MB

     Check: negative/imaginary core charge=   -0.000004    0.000000

     Initial potential from superposition of free atoms

     starting charge    8.98437, renormalised to    9.00000
     Starting wfcs are    8 randomized atomic wfcs +    1 random wfcs

     total cpu time spent up to now is        1.1 secs

     Self-consistent Calculation

     iteration #  1     ecut=    65.00 Ry     beta= 0.70
     Davidson diagonalization with overlap
     ethr =  1.00E-02,  avg # of iterations =  7.7

     Threshold (ethr) on eigenvalues was too large:
     Diagonalizing with lowered threshold

     Davidson diagonalization with overlap
     ethr =  1.22E-05,  avg # of iterations =  6.8

     total cpu time spent up to now is        2.3 secs

     total energy              =     -58.74328305 Ry
     Harris-Foulkes estimate   =     -58.74384997 Ry
     estimated scf accuracy    <       0.00111713 Ry

     iteration #  2     ecut=    65.00 Ry     beta= 0.70
     Davidson diagonalization with overlap
     ethr =  1.24E-05,  avg # of iterations =  2.2

     total cpu time spent up to now is        2.8 secs

     total energy              =     -58.74348182 Ry
     Harris-Foulkes estimate   =     -58.74349943 Ry
     estimated scf accuracy    <       0.00008896 Ry

     iteration #  3     ecut=    65.00 Ry     beta= 0.70
     Davidson diagonalization with overlap
     ethr =  9.88E-07,  avg # of iterations =  1.8

     total cpu time spent up to now is        3.2 secs

     total energy              =     -58.74349071 Ry
     Harris-Foulkes estimate   =     -58.74348993 Ry
     estimated scf accuracy    <       0.00000567 Ry

     iteration #  4     ecut=    65.00 Ry     beta= 0.70
     Davidson diagonalization with overlap
     ethr =  6.30E-08,  avg # of iterations =  1.6

     total cpu time spent up to now is        3.6 secs

     total energy              =     -58.74349120 Ry
     Harris-Foulkes estimate   =     -58.74349119 Ry
     estimated scf accuracy    <       0.00000003 Ry

     iteration #  5     ecut=    65.00 Ry     beta= 0.70
     Davidson diagonalization with overlap
     ethr =  3.80E-10,  avg # of iterations =  2.0

     total cpu time spent up to now is        4.0 secs

     End of self-consistent calculation

          k = 0.0000 0.0000 0.0000 (  4213 PWs)   bands (ev):

   -30.0974 -13.7361 -13.7361 -13.7361  -0.4764   5.9293   5.9293   5.9293
     6.8749

          k = 0.0000-0.2000 0.2000 (  4220 PWs)   bands (ev):

   -30.0956 -13.7640 -13.7454 -13.7361   0.0288   5.0922   5.4543   6.3357
     6.6431

          k = 0.0000-0.4000 0.4000 (  4244 PWs)   bands (ev):

   -30.0927 -13.8084 -13.7604 -13.7360   1.3999   3.2801   4.9125   6.6284
     7.1261

          k =-0.2000-0.2000 0.4000 (  4245 PWs)   bands (ev):

   -30.0932 -13.7936 -13.7578 -13.7422   0.9741   4.1558   4.6163   6.5727
     6.6852

          k =-0.2000 0.6000-0.4000 (  4224 PWs)   bands (ev):

   -30.0918 -13.8060 -13.7732 -13.7439   2.5305   2.6595   4.1688   6.2385
     7.1370

          k = 0.0000 0.0000 0.4000 (  4229 PWs)   bands (ev):

   -30.0939 -13.7674 -13.7551 -13.7551   0.5137   5.1011   5.3499   5.3499
     6.4992

          k = 0.0000-0.2000 0.6000 (  4242 PWs)   bands (ev):

   -30.0912 -13.8017 -13.7709 -13.7566   1.8280   3.5342   5.0422   5.3165
     6.6798

          k =-0.2000 0.8000-0.2000 (  4259 PWs)   bands (ev):

   -30.0900 -13.7947 -13.7947 -13.7614   3.0930   3.0930   3.8048   6.1462
     6.1462

          k = 0.6000-0.6000 0.4000 (  4228 PWs)   bands (ev):

   -30.0921 -13.7955 -13.7620 -13.7620   2.2377   3.6312   3.6312   5.3855
     7.3529

          k = 0.0000 0.0000 0.8000 (  4272 PWs)   bands (ev):

   -30.0889 -13.7924 -13.7878 -13.7878   2.8398   3.5983   5.2173   5.2173
     5.2876

     the Fermi energy is     1.7810 ev

!    total energy              =     -58.74349120 Ry
     Harris-Foulkes estimate   =     -58.74349120 Ry
     estimated scf accuracy    <          4.9E-10 Ry

     The total energy is the sum of the following terms:

     one-electron contribution =     -36.65537458 Ry
     hartree contribution      =      18.82604326 Ry
     xc contribution           =     -11.01685866 Ry
     ewald contribution        =     -29.89633970 Ry
     smearing contrib. (-TS)   =      -0.00096152 Ry

     convergence has been achieved in   5 iterations

     Forces acting on atoms (cartesian axes, Ry/au):

     atom    1 type  1   force =     0.00000000    0.00000000    0.00000000

     Total force =     0.000000     Total SCF correction =     0.000000


     Computing stress (Cartesian axis) and pressure

          total   stress  (Ry/bohr**3)                   (kbar)     P=   -3.98
  -0.00002702  -0.00000000   0.00000000         -3.98     -0.00      0.00
  -0.00000000  -0.00002702  -0.00000000         -0.00     -3.98     -0.00
   0.00000000  -0.00000000  -0.00002702          0.00     -0.00     -3.98


     Writing output data file K.save/

     init_run     :      0.39s CPU      0.41s WALL (       1 calls)
     electrons    :      2.76s CPU      2.86s WALL (       1 calls)
     forces       :      0.12s CPU      0.12s WALL (       1 calls)
     stress       :      0.49s CPU      0.49s WALL (       1 calls)

     Called by init_run:
     wfcinit      :      0.11s CPU      0.11s WALL (       1 calls)
     potinit      :      0.02s CPU      0.02s WALL (       1 calls)
     hinit0       :      0.20s CPU      0.20s WALL (       1 calls)

     Called by electrons:
     c_bands      :      1.96s CPU      2.04s WALL (       6 calls)
     sum_band     :      0.60s CPU      0.62s WALL (       6 calls)
     v_of_rho     :      0.02s CPU      0.02s WALL (       6 calls)
     newd         :      0.19s CPU      0.20s WALL (       6 calls)
     mix_rho      :      0.01s CPU      0.01s WALL (       6 calls)

     Called by c_bands:
     init_us_2    :      0.09s CPU      0.09s WALL (     150 calls)
     cegterg      :      1.87s CPU      1.95s WALL (      60 calls)

     Called by sum_band:
     sum_band:bec :      0.00s CPU      0.00s WALL (      60 calls)
     addusdens    :      0.20s CPU      0.21s WALL (       6 calls)

     Called by *egterg:
     h_psi        :      1.55s CPU      1.62s WALL (     291 calls)
     s_psi        :      0.05s CPU      0.05s WALL (     291 calls)
     g_psi        :      0.01s CPU      0.01s WALL (     221 calls)
     cdiaghg      :      0.07s CPU      0.07s WALL (     271 calls)

     Called by h_psi:
     h_psi:pot    :      1.54s CPU      1.61s WALL (     291 calls)
     h_psi:calbec :      0.09s CPU      0.10s WALL (     291 calls)
     vloc_psi     :      1.39s CPU      1.46s WALL (     291 calls)
     add_vuspsi   :      0.06s CPU      0.06s WALL (     291 calls)

     General routines
     calbec       :      0.15s CPU      0.16s WALL (     401 calls)
     fft          :      0.04s CPU      0.04s WALL (      34 calls)
     ffts         :      0.00s CPU      0.00s WALL (       6 calls)
     fftw         :      1.56s CPU      1.64s WALL (    3710 calls)

     Parallel routines
     fft_scatt_xy :      0.12s CPU      0.13s WALL (    3750 calls)
     fft_scatt_yz :      0.41s CPU      0.43s WALL (    3750 calls)

     PWSCF        :     4.46s CPU         4.64s WALL


   This run was terminated on:   0:51:18   8Apr2024            

=------------------------------------------------------------------------------=
   JOB DONE.
=------------------------------------------------------------------------------=
