
     Program PWSCF v.6.3MaX starts on  8Apr2024 at  0:39:55 

     This program is part of the open-source Quantum ESPRESSO suite
     for quantum simulation of materials; please cite
         "P. Giannozzi et al., J. Phys.:Condens. Matter 21 395502 (2009);
         "P. Giannozzi et al., J. Phys.:Condens. Matter 29 465901 (2017);
          URL http://www.quantum-espresso.org", 
     in publications or presentations arising from this work. More details at
     http://www.quantum-espresso.org/quote

     Parallel version (MPI), running on     5 processors

     MPI processes distributed on     1 nodes
     R & G space division:  proc/nbgrp/npool/nimage =       5
     Waiting for input...
     Reading input from standard input

     Current dimensions of program PWSCF are:
     Max number of different atomic species (ntypx) = 10
     Max number of k-points (npk) =  40000
     Max angular momentum in pseudopotentials (lmaxx) =  3
               file K.pbe-spn-kjpaw_psl.1.0.0.UPF: wavefunction(s)  3S renormalized

     Subspace diagonalization in iterative solution of the eigenvalue problem:
     a serial algorithm will be used


     Parallelization info
     --------------------
     sticks:   dense  smooth     PW     G-vecs:    dense   smooth      PW
     Min         239     239     69                 5244     5244     837
     Max         240     240     69                 5246     5246     838
     Sum        1199    1199    345                26227    26227    4189



     bravais-lattice index     =            3
     lattice parameter (alat)  =       9.8600  a.u.
     unit-cell volume          =     479.2926 (a.u.)^3
     number of atoms/cell      =            1
     number of atomic types    =            1
     number of electrons       =         9.00
     number of Kohn-Sham states=            9
     kinetic-energy cutoff     =      55.0000  Ry
     charge density cutoff     =     220.0000  Ry
     convergence threshold     =      1.0E-08
     mixing beta               =       0.7000
     number of iterations used =            8  plain     mixing
     Exchange-correlation      = SLA PW PBX PBC ( 1  4  3  4 0 0)

     celldm(1)=   9.860000  celldm(2)=   0.000000  celldm(3)=   0.000000
     celldm(4)=   0.000000  celldm(5)=   0.000000  celldm(6)=   0.000000

     crystal axes: (cart. coord. in units of alat)
               a(1) = (   0.500000   0.500000   0.500000 )  
               a(2) = (  -0.500000   0.500000   0.500000 )  
               a(3) = (  -0.500000  -0.500000   0.500000 )  

     reciprocal axes: (cart. coord. in units 2 pi/alat)
               b(1) = (  1.000000  0.000000  1.000000 )  
               b(2) = ( -1.000000  1.000000  0.000000 )  
               b(3) = (  0.000000 -1.000000  1.000000 )  


     PseudoPot. # 1 for K  read from file:
     /home/lorenzo/pseudos/K/K.pbe-spn-kjpaw_psl.1.0.0.UPF
     MD5 check sum: 34cc42130a09071ebe376fd42eb21491
     Pseudo is Projector augmented-wave + core cor, Zval =  9.0
     Generated using "atomic" code by A. Dal Corso v.6.2.2
     Shape of augmentation charge: PSQ
     Using radial grid of 1165 points,  6 beta functions with: 
                l(1) =   0
                l(2) =   0
                l(3) =   1
                l(4) =   1
                l(5) =   2
                l(6) =   2
     Q(r) pseudized with 0 coefficients 


     atomic species   valence    mass     pseudopotential
        K              9.00    39.09830     K ( 1.00)

     48 Sym. Ops., with inversion, found



   Cartesian axes

     site n.     atom                  positions (alat units)
         1           K   tau(   1) = (   0.0000000   0.0000000   0.0000000  )

     number of k points=    16  gaussian smearing, width (Ry)=  0.0100
                       cart. coord. in units 2pi/alat
        k(    1) = (   0.0000000   0.0000000   0.0000000), wk =   0.0092593
        k(    2) = (   0.0000000  -0.1666667   0.1666667), wk =   0.1111111
        k(    3) = (   0.0000000  -0.3333333   0.3333333), wk =   0.1111111
        k(    4) = (   0.0000000   0.5000000  -0.5000000), wk =   0.0555556
        k(    5) = (  -0.1666667  -0.1666667   0.3333333), wk =   0.2222222
        k(    6) = (  -0.1666667   0.6666667  -0.5000000), wk =   0.4444444
        k(    7) = (  -0.3333333   0.6666667  -0.3333333), wk =   0.0740741
        k(    8) = (   0.0000000   0.0000000   0.3333333), wk =   0.0555556
        k(    9) = (   0.0000000  -0.1666667   0.5000000), wk =   0.2222222
        k(   10) = (   0.0000000   0.6666667  -0.3333333), wk =   0.1111111
        k(   11) = (  -0.1666667   0.8333333  -0.3333333), wk =   0.2222222
        k(   12) = (   0.6666667  -0.6666667   0.3333333), wk =   0.0740741
        k(   13) = (   0.5000000  -0.5000000   0.3333333), wk =   0.1111111
        k(   14) = (   0.0000000   0.0000000   0.6666667), wk =   0.0555556
        k(   15) = (   0.0000000   0.8333333  -0.1666667), wk =   0.1111111
        k(   16) = (   0.0000000   0.0000000  -1.0000000), wk =   0.0092593

     Dense  grid:    26227 G-vectors     FFT dimensions: (  45,  45,  45)

     Estimated max dynamical RAM per process >      23.11 MB

     Estimated total dynamical RAM >     115.56 MB

     Check: negative/imaginary core charge=   -0.000002    0.000000

     Initial potential from superposition of free atoms

     starting charge    8.98117, renormalised to    9.00000
     Starting wfcs are    8 randomized atomic wfcs +    1 random wfcs
     Checking if some PAW data can be deallocated... 

     total cpu time spent up to now is        1.3 secs

     Self-consistent Calculation

     iteration #  1     ecut=    55.00 Ry     beta= 0.70
     Davidson diagonalization with overlap
     ethr =  1.00E-02,  avg # of iterations =  6.7

     Threshold (ethr) on eigenvalues was too large:
     Diagonalizing with lowered threshold

     Davidson diagonalization with overlap
     ethr =  1.41E-05,  avg # of iterations =  6.0

     total cpu time spent up to now is        2.9 secs

     total energy              =    -113.00978200 Ry
     Harris-Foulkes estimate   =    -113.01029178 Ry
     estimated scf accuracy    <       0.00124998 Ry

     iteration #  2     ecut=    55.00 Ry     beta= 0.70
     Davidson diagonalization with overlap
     ethr =  1.39E-05,  avg # of iterations =  2.1

     total cpu time spent up to now is        3.6 secs

     total energy              =    -113.01000291 Ry
     Harris-Foulkes estimate   =    -113.01001214 Ry
     estimated scf accuracy    <       0.00010054 Ry

     iteration #  3     ecut=    55.00 Ry     beta= 0.70
     Davidson diagonalization with overlap
     ethr =  1.12E-06,  avg # of iterations =  1.9

     total cpu time spent up to now is        4.3 secs

     total energy              =    -113.01001497 Ry
     Harris-Foulkes estimate   =    -113.01001270 Ry
     estimated scf accuracy    <       0.00000681 Ry

     iteration #  4     ecut=    55.00 Ry     beta= 0.70
     Davidson diagonalization with overlap
     ethr =  7.57E-08,  avg # of iterations =  1.5

     total cpu time spent up to now is        4.8 secs

     total energy              =    -113.01001564 Ry
     Harris-Foulkes estimate   =    -113.01001564 Ry
     estimated scf accuracy    <       0.00000005 Ry

     iteration #  5     ecut=    55.00 Ry     beta= 0.70
     Davidson diagonalization with overlap
     ethr =  5.86E-10,  avg # of iterations =  2.8

     total cpu time spent up to now is        5.4 secs

     End of self-consistent calculation

          k = 0.0000 0.0000 0.0000 (  3319 PWs)   bands (ev):

   -30.1638 -13.6125 -13.6125 -13.6125  -0.2614   6.2639   6.2639   7.1829
     7.1829

          k = 0.0000-0.1667 0.1667 (  3297 PWs)   bands (ev):

   -30.1626 -13.6319 -13.6189 -13.6125   0.0899   5.6332   5.8818   6.5459
     6.9374

          k = 0.0000-0.3333 0.3333 (  3290 PWs)   bands (ev):

   -30.1601 -13.6701 -13.6318 -13.6124   1.0775   4.1200   5.3358   7.0346
     7.2502

          k = 0.0000 0.5000-0.5000 (  3268 PWs)   bands (ev):

   -30.1589 -13.6889 -13.6381 -13.6124   2.3893   2.6487   5.1206   6.8723
     7.9905

          k =-0.1667-0.1667 0.3333 (  3296 PWs)   bands (ev):

   -30.1608 -13.6579 -13.6269 -13.6169   0.7610   4.7939   5.1893   6.8189
     6.9393

          k =-0.1667 0.6667-0.5000 (  3300 PWs)   bands (ev):

   -30.1589 -13.6792 -13.6420 -13.6185   1.9775   3.4682   4.6897   6.6785
     7.3337

          k =-0.3333 0.6667-0.3333 (  3307 PWs)   bands (ev):

   -30.1583 -13.6651 -13.6651 -13.6221   3.1570   3.1570   3.5776   6.5952
     7.3445

          k = 0.0000 0.0000 0.3333 (  3275 PWs)   bands (ev):

   -30.1614 -13.6354 -13.6256 -13.6256   0.4311   5.6999   5.7505   5.7505
     6.6686

          k = 0.0000-0.1667 0.5000 (  3308 PWs)   bands (ev):

   -30.1591 -13.6667 -13.6389 -13.6272   1.3896   4.2597   5.3878   5.8636
     7.2780

          k = 0.0000 0.6667-0.3333 (  3322 PWs)   bands (ev):

   -30.1580 -13.6836 -13.6456 -13.6264   2.7375   2.8022   5.2193   5.7078
     7.2750

          k =-0.1667 0.8333-0.3333 (  3302 PWs)   bands (ev):

   -30.1575 -13.6741 -13.6571 -13.6322   2.5132   3.6521   4.4033   6.2368
     6.7211

          k = 0.6667-0.6667 0.3333 (  3286 PWs)   bands (ev):

   -30.1594 -13.6727 -13.6295 -13.6295   1.6963   4.2250   4.2250   6.4108
     7.5585

          k = 0.5000-0.5000 0.3333 (  3308 PWs)   bands (ev):

   -30.1587 -13.6691 -13.6468 -13.6309   2.9893   3.0444   4.0382   5.7326
     7.6669

          k = 0.0000 0.0000 0.6667 (  3308 PWs)   bands (ev):

   -30.1571 -13.6628 -13.6531 -13.6531   2.2387   4.1501   5.4270   5.4270
     6.0576

          k = 0.0000 0.8333-0.1667 (  3326 PWs)   bands (ev):

   -30.1561 -13.6729 -13.6602 -13.6539   3.2335   3.4577   5.0193   5.4154
     6.2008

          k = 0.0000 0.0000-1.0000 (  3300 PWs)   bands (ev):

   -30.1551 -13.6675 -13.6675 -13.6675   3.6000   3.6000   5.5110   5.5110
     5.5110

     the Fermi energy is     1.9624 ev

!    total energy              =    -113.01001566 Ry
     Harris-Foulkes estimate   =    -113.01001566 Ry
     estimated scf accuracy    <          2.5E-09 Ry

     total all-electron energy =     -1204.248726 Ry

     The total energy is the sum of the following terms:

     one-electron contribution =     -35.40335502 Ry
     hartree contribution      =      18.88085627 Ry
     xc contribution           =     -11.17010258 Ry
     ewald contribution        =     -29.89633976 Ry
     one-center paw contrib.   =     -55.41982902 Ry
     smearing contrib. (-TS)   =      -0.00124554 Ry

     convergence has been achieved in   5 iterations

     Forces acting on atoms (cartesian axes, Ry/au):

     atom    1 type  1   force =     0.00000000    0.00000000    0.00000000

     Total force =     0.000000     Total SCF correction =     0.000000


     Computing stress (Cartesian axis) and pressure

          total   stress  (Ry/bohr**3)                   (kbar)     P=    1.42
   0.00000965   0.00000000  -0.00000000          1.42      0.00     -0.00
   0.00000000   0.00000965   0.00000000          0.00      1.42      0.00
  -0.00000000   0.00000000   0.00000965         -0.00      0.00      1.42


     Writing output data file K.save/

     init_run     :      0.51s CPU      0.54s WALL (       1 calls)
     electrons    :      4.03s CPU      4.19s WALL (       1 calls)
     forces       :      0.09s CPU      0.09s WALL (       1 calls)
     stress       :      0.33s CPU      0.33s WALL (       1 calls)

     Called by init_run:
     wfcinit      :      0.15s CPU      0.15s WALL (       1 calls)
     potinit      :      0.13s CPU      0.14s WALL (       1 calls)
     hinit0       :      0.18s CPU      0.18s WALL (       1 calls)

     Called by electrons:
     c_bands      :      2.73s CPU      2.84s WALL (       6 calls)
     sum_band     :      0.63s CPU      0.66s WALL (       6 calls)
     v_of_rho     :      0.11s CPU      0.11s WALL (       6 calls)
     newd         :      0.15s CPU      0.15s WALL (       6 calls)
     PAW_pot      :      0.54s CPU      0.55s WALL (       6 calls)
     mix_rho      :      0.01s CPU      0.01s WALL (       6 calls)

     Called by c_bands:
     init_us_2    :      0.10s CPU      0.10s WALL (     240 calls)
     cegterg      :      2.61s CPU      2.73s WALL (      96 calls)

     Called by sum_band:
     sum_band:bec :      0.00s CPU      0.00s WALL (      96 calls)
     addusdens    :      0.15s CPU      0.15s WALL (       6 calls)

     Called by *egterg:
     h_psi        :      2.23s CPU      2.34s WALL (     448 calls)
     s_psi        :      0.06s CPU      0.06s WALL (     448 calls)
     g_psi        :      0.01s CPU      0.01s WALL (     336 calls)
     cdiaghg      :      0.10s CPU      0.10s WALL (     416 calls)

     Called by h_psi:
     h_psi:pot    :      2.22s CPU      2.33s WALL (     448 calls)
     h_psi:calbec :      0.11s CPU      0.12s WALL (     448 calls)
     vloc_psi     :      2.04s CPU      2.14s WALL (     448 calls)
     add_vuspsi   :      0.07s CPU      0.07s WALL (     448 calls)

     General routines
     calbec       :      0.17s CPU      0.17s WALL (     624 calls)
     fft          :      0.07s CPU      0.07s WALL (      93 calls)
     ffts         :      0.00s CPU      0.00s WALL (       6 calls)
     fftw         :      2.25s CPU      2.37s WALL (    5930 calls)

     Parallel routines
     fft_scatt_xy :      0.17s CPU      0.18s WALL (    6029 calls)
     fft_scatt_yz :      0.57s CPU      0.60s WALL (    6029 calls)

     PWSCF        :     5.70s CPU         5.93s WALL


   This run was terminated on:   0:40: 1   8Apr2024            

=------------------------------------------------------------------------------=
   JOB DONE.
=------------------------------------------------------------------------------=
