
     Program PWSCF v.6.3MaX starts on  8Apr2024 at  0:39:29 

     This program is part of the open-source Quantum ESPRESSO suite
     for quantum simulation of materials; please cite
         "P. Giannozzi et al., J. Phys.:Condens. Matter 21 395502 (2009);
         "P. Giannozzi et al., J. Phys.:Condens. Matter 29 465901 (2017);
          URL http://www.quantum-espresso.org", 
     in publications or presentations arising from this work. More details at
     http://www.quantum-espresso.org/quote

     Parallel version (MPI), running on     5 processors

     MPI processes distributed on     1 nodes
     R & G space division:  proc/nbgrp/npool/nimage =       5
     Waiting for input...
     Reading input from standard input

     Current dimensions of program PWSCF are:
     Max number of different atomic species (ntypx) = 10
     Max number of k-points (npk) =  40000
     Max angular momentum in pseudopotentials (lmaxx) =  3
               file K.pz-spn-kjpaw_psl.1.0.0.UPF: wavefunction(s)  3S renormalized

     Subspace diagonalization in iterative solution of the eigenvalue problem:
     a serial algorithm will be used


     Parallelization info
     --------------------
     sticks:   dense  smooth     PW     G-vecs:    dense   smooth      PW
     Min         239     239     69                 5244     5244     837
     Max         240     240     69                 5246     5246     838
     Sum        1199    1199    345                26227    26227    4189



     bravais-lattice index     =            3
     lattice parameter (alat)  =       9.8600  a.u.
     unit-cell volume          =     479.2926 (a.u.)^3
     number of atoms/cell      =            1
     number of atomic types    =            1
     number of electrons       =         9.00
     number of Kohn-Sham states=            9
     kinetic-energy cutoff     =      55.0000  Ry
     charge density cutoff     =     220.0000  Ry
     convergence threshold     =      1.0E-08
     mixing beta               =       0.7000
     number of iterations used =            8  plain     mixing
     Exchange-correlation      = SLA PZ NOGX NOGC ( 1  1  0  0 0 0)

     celldm(1)=   9.860000  celldm(2)=   0.000000  celldm(3)=   0.000000
     celldm(4)=   0.000000  celldm(5)=   0.000000  celldm(6)=   0.000000

     crystal axes: (cart. coord. in units of alat)
               a(1) = (   0.500000   0.500000   0.500000 )  
               a(2) = (  -0.500000   0.500000   0.500000 )  
               a(3) = (  -0.500000  -0.500000   0.500000 )  

     reciprocal axes: (cart. coord. in units 2 pi/alat)
               b(1) = (  1.000000  0.000000  1.000000 )  
               b(2) = ( -1.000000  1.000000  0.000000 )  
               b(3) = (  0.000000 -1.000000  1.000000 )  


     PseudoPot. # 1 for K  read from file:
     /home/lorenzo/pseudos/K/K.pz-spn-kjpaw_psl.1.0.0.UPF
     MD5 check sum: 59b94f4c1a6681f21e103574f2c5fc67
     Pseudo is Projector augmented-wave + core cor, Zval =  9.0
     Generated using "atomic" code by A. Dal Corso v.6.2.2
     Shape of augmentation charge: PSQ
     Using radial grid of 1165 points,  6 beta functions with: 
                l(1) =   0
                l(2) =   0
                l(3) =   1
                l(4) =   1
                l(5) =   2
                l(6) =   2
     Q(r) pseudized with 0 coefficients 


     atomic species   valence    mass     pseudopotential
        K              9.00    39.09830     K ( 1.00)

     48 Sym. Ops., with inversion, found



   Cartesian axes

     site n.     atom                  positions (alat units)
         1           K   tau(   1) = (   0.0000000   0.0000000   0.0000000  )

     number of k points=     8  gaussian smearing, width (Ry)=  0.0100
                       cart. coord. in units 2pi/alat
        k(    1) = (   0.0000000   0.0000000   0.0000000), wk =   0.0312500
        k(    2) = (   0.0000000  -0.2500000   0.2500000), wk =   0.3750000
        k(    3) = (   0.0000000   0.5000000  -0.5000000), wk =   0.1875000
        k(    4) = (  -0.2500000   0.7500000  -0.5000000), wk =   0.7500000
        k(    5) = (   0.0000000   0.0000000   0.5000000), wk =   0.1875000
        k(    6) = (   0.0000000   0.7500000  -0.2500000), wk =   0.3750000
        k(    7) = (   0.5000000  -0.5000000   0.5000000), wk =   0.0625000
        k(    8) = (   0.0000000   0.0000000  -1.0000000), wk =   0.0312500

     Dense  grid:    26227 G-vectors     FFT dimensions: (  45,  45,  45)

     Estimated max dynamical RAM per process >      22.39 MB

     Estimated total dynamical RAM >     111.93 MB

     Check: negative/imaginary core charge=   -0.000002    0.000000

     Initial potential from superposition of free atoms

     starting charge    8.98437, renormalised to    9.00000
     Starting wfcs are    8 randomized atomic wfcs +    1 random wfcs
     Checking if some PAW data can be deallocated... 

     total cpu time spent up to now is        1.2 secs

     Self-consistent Calculation

     iteration #  1     ecut=    55.00 Ry     beta= 0.70
     Davidson diagonalization with overlap
     ethr =  1.00E-02,  avg # of iterations =  7.2

     Threshold (ethr) on eigenvalues was too large:
     Diagonalizing with lowered threshold

     Davidson diagonalization with overlap
     ethr =  1.26E-05,  avg # of iterations =  6.2

     total cpu time spent up to now is        2.2 secs

     total energy              =    -109.86737637 Ry
     Harris-Foulkes estimate   =    -109.86790841 Ry
     estimated scf accuracy    <       0.00110002 Ry

     iteration #  2     ecut=    55.00 Ry     beta= 0.70
     Davidson diagonalization with overlap
     ethr =  1.22E-05,  avg # of iterations =  2.1

     total cpu time spent up to now is        2.6 secs

     total energy              =    -109.86755813 Ry
     Harris-Foulkes estimate   =    -109.86758113 Ry
     estimated scf accuracy    <       0.00008922 Ry

     iteration #  3     ecut=    55.00 Ry     beta= 0.70
     Davidson diagonalization with overlap
     ethr =  9.91E-07,  avg # of iterations =  2.0

     total cpu time spent up to now is        2.9 secs

     total energy              =    -109.86756926 Ry
     Harris-Foulkes estimate   =    -109.86756892 Ry
     estimated scf accuracy    <       0.00000599 Ry

     iteration #  4     ecut=    55.00 Ry     beta= 0.70
     Davidson diagonalization with overlap
     ethr =  6.65E-08,  avg # of iterations =  1.2

     total cpu time spent up to now is        3.2 secs

     total energy              =    -109.86757009 Ry
     Harris-Foulkes estimate   =    -109.86757009 Ry
     estimated scf accuracy    <       0.00000004 Ry

     iteration #  5     ecut=    55.00 Ry     beta= 0.70
     Davidson diagonalization with overlap
     ethr =  4.82E-10,  avg # of iterations =  2.4

     total cpu time spent up to now is        3.6 secs

     End of self-consistent calculation

          k = 0.0000 0.0000 0.0000 (  3319 PWs)   bands (ev):

   -30.0963 -13.7350 -13.7350 -13.7350  -0.4769   5.9299   5.9299   6.8755
     6.8757

          k = 0.0000-0.2500 0.2500 (  3298 PWs)   bands (ev):

   -30.0937 -13.7753 -13.7484 -13.7349   0.3021   4.6613   5.2851   6.5595
     6.6853

          k = 0.0000 0.5000-0.5000 (  3268 PWs)   bands (ev):

   -30.0911 -13.8147 -13.7618 -13.7348   2.1432   2.4880   4.8357   6.5331
     7.3591

          k =-0.2500 0.7500-0.5000 (  3304 PWs)   bands (ev):

   -30.0911 -13.8001 -13.7684 -13.7432   1.7058   3.6271   4.1187   6.4600
     6.7136

          k = 0.0000 0.0000 0.5000 (  3284 PWs)   bands (ev):

   -30.0914 -13.7763 -13.7628 -13.7628   1.0312   4.6026   5.2343   5.2343
     6.7671

          k = 0.0000 0.7500-0.2500 (  3326 PWs)   bands (ev):

   -30.0891 -13.8037 -13.7772 -13.7639   2.8156   2.8866   4.9322   5.0582
     6.4846

          k = 0.5000-0.5000 0.5000 (  3352 PWs)   bands (ev):

   -30.0909 -13.7739 -13.7739 -13.7739   3.2327   3.2327   3.2327   4.7554
     7.4357

          k = 0.0000 0.0000-1.0000 (  3300 PWs)   bands (ev):

   -30.0871 -13.7925 -13.7925 -13.7925   3.4008   5.2835   5.2836   5.2836
     7.2565

     the Fermi energy is     1.7158 ev

!    total energy              =    -109.86757011 Ry
     Harris-Foulkes estimate   =    -109.86757011 Ry
     estimated scf accuracy    <          3.6E-09 Ry

     total all-electron energy =     -1201.192570 Ry

     The total energy is the sum of the following terms:

     one-electron contribution =     -35.36438776 Ry
     hartree contribution      =      18.82656267 Ry
     xc contribution           =     -11.01732366 Ry
     ewald contribution        =     -29.89633976 Ry
     one-center paw contrib.   =     -52.41397741 Ry
     smearing contrib. (-TS)   =      -0.00210419 Ry

     convergence has been achieved in   5 iterations

     Forces acting on atoms (cartesian axes, Ry/au):

     atom    1 type  1   force =     0.00000000    0.00000000    0.00000000

     Total force =     0.000000     Total SCF correction =     0.000000


     Computing stress (Cartesian axis) and pressure

          total   stress  (Ry/bohr**3)                   (kbar)     P=   -3.22
  -0.00002192  -0.00000000   0.00000000         -3.22     -0.00      0.00
  -0.00000000  -0.00002192  -0.00000000         -0.00     -3.22     -0.00
   0.00000000  -0.00000000  -0.00002192          0.00     -0.00     -3.22


     Writing output data file K.save/

     init_run     :      0.40s CPU      0.42s WALL (       1 calls)
     electrons    :      2.29s CPU      2.36s WALL (       1 calls)
     forces       :      0.08s CPU      0.08s WALL (       1 calls)
     stress       :      0.24s CPU      0.24s WALL (       1 calls)

     Called by init_run:
     wfcinit      :      0.10s CPU      0.10s WALL (       1 calls)
     potinit      :      0.06s CPU      0.06s WALL (       1 calls)
     hinit0       :      0.18s CPU      0.19s WALL (       1 calls)

     Called by electrons:
     c_bands      :      1.52s CPU      1.57s WALL (       6 calls)
     sum_band     :      0.41s CPU      0.42s WALL (       6 calls)
     v_of_rho     :      0.02s CPU      0.02s WALL (       6 calls)
     newd         :      0.15s CPU      0.16s WALL (       6 calls)
     PAW_pot      :      0.25s CPU      0.26s WALL (       6 calls)
     mix_rho      :      0.01s CPU      0.01s WALL (       6 calls)

     Called by c_bands:
     init_us_2    :      0.06s CPU      0.06s WALL (     120 calls)
     cegterg      :      1.45s CPU      1.51s WALL (      48 calls)

     Called by sum_band:
     sum_band:bec :      0.00s CPU      0.00s WALL (      48 calls)
     addusdens    :      0.15s CPU      0.16s WALL (       6 calls)

     Called by *egterg:
     h_psi        :      1.25s CPU      1.30s WALL (     226 calls)
     s_psi        :      0.03s CPU      0.03s WALL (     226 calls)
     g_psi        :      0.00s CPU      0.00s WALL (     170 calls)
     cdiaghg      :      0.05s CPU      0.05s WALL (     210 calls)

     Called by h_psi:
     h_psi:pot    :      1.24s CPU      1.29s WALL (     226 calls)
     h_psi:calbec :      0.07s CPU      0.07s WALL (     226 calls)
     vloc_psi     :      1.13s CPU      1.18s WALL (     226 calls)
     add_vuspsi   :      0.05s CPU      0.05s WALL (     226 calls)

     General routines
     calbec       :      0.10s CPU      0.10s WALL (     314 calls)
     fft          :      0.03s CPU      0.03s WALL (      34 calls)
     ffts         :      0.00s CPU      0.00s WALL (       6 calls)
     fftw         :      1.22s CPU      1.27s WALL (    2964 calls)

     Parallel routines
     fft_scatt_xy :      0.09s CPU      0.10s WALL (    3004 calls)
     fft_scatt_yz :      0.33s CPU      0.35s WALL (    3004 calls)

     PWSCF        :     3.80s CPU         3.93s WALL


   This run was terminated on:   0:39:33   8Apr2024            

=------------------------------------------------------------------------------=
   JOB DONE.
=------------------------------------------------------------------------------=
