
     Program PWSCF v.6.3MaX starts on  8Apr2024 at  0: 0:45 

     This program is part of the open-source Quantum ESPRESSO suite
     for quantum simulation of materials; please cite
         "P. Giannozzi et al., J. Phys.:Condens. Matter 21 395502 (2009);
         "P. Giannozzi et al., J. Phys.:Condens. Matter 29 465901 (2017);
          URL http://www.quantum-espresso.org", 
     in publications or presentations arising from this work. More details at
     http://www.quantum-espresso.org/quote

     Parallel version (MPI), running on     5 processors

     MPI processes distributed on     1 nodes
     R & G space division:  proc/nbgrp/npool/nimage =       5
     Waiting for input...
     Reading input from standard input

     Current dimensions of program PWSCF are:
     Max number of different atomic species (ntypx) = 10
     Max number of k-points (npk) =  40000
     Max angular momentum in pseudopotentials (lmaxx) =  3
               file K.pz-spn-rrkjus_psl.1.0.0.UPF: wavefunction(s)  3S renormalized

     Subspace diagonalization in iterative solution of the eigenvalue problem:
     a serial algorithm will be used


     Parallelization info
     --------------------
     sticks:   dense  smooth     PW     G-vecs:    dense   smooth      PW
     Min         438     438    124                12915    12915    1972
     Max         439     439    126                12916    12916    1973
     Sum        2191    2191    623                64579    64579    9861



     bravais-lattice index     =            3
     lattice parameter (alat)  =       9.8600  a.u.
     unit-cell volume          =     479.2926 (a.u.)^3
     number of atoms/cell      =            1
     number of atomic types    =            1
     number of electrons       =         9.00
     number of Kohn-Sham states=            9
     kinetic-energy cutoff     =     100.0000  Ry
     charge density cutoff     =     400.0000  Ry
     convergence threshold     =      1.0E-08
     mixing beta               =       0.7000
     number of iterations used =            8  plain     mixing
     Exchange-correlation      = LDA ( 1  1  0  0 0 0)

     celldm(1)=   9.860000  celldm(2)=   0.000000  celldm(3)=   0.000000
     celldm(4)=   0.000000  celldm(5)=   0.000000  celldm(6)=   0.000000

     crystal axes: (cart. coord. in units of alat)
               a(1) = (   0.500000   0.500000   0.500000 )  
               a(2) = (  -0.500000   0.500000   0.500000 )  
               a(3) = (  -0.500000  -0.500000   0.500000 )  

     reciprocal axes: (cart. coord. in units 2 pi/alat)
               b(1) = (  1.000000  0.000000  1.000000 )  
               b(2) = ( -1.000000  1.000000  0.000000 )  
               b(3) = (  0.000000 -1.000000  1.000000 )  


     PseudoPot. # 1 for K  read from file:
     /home/lorenzo/pseudos/K/K.pz-spn-rrkjus_psl.1.0.0.UPF
     MD5 check sum: af434a66a3b91719abff201b8f79bb09
     Pseudo is Ultrasoft + core correction, Zval =  9.0
     Generated using "atomic" code by A. Dal Corso v.6.2.2
     Using radial grid of 1165 points,  6 beta functions with: 
                l(1) =   0
                l(2) =   0
                l(3) =   1
                l(4) =   1
                l(5) =   2
                l(6) =   2
     Q(r) pseudized with 0 coefficients 


     atomic species   valence    mass     pseudopotential
        K              9.00    39.09830     K ( 1.00)

     48 Sym. Ops., with inversion, found



   Cartesian axes

     site n.     atom                  positions (alat units)
         1           K   tau(   1) = (   0.0000000   0.0000000   0.0000000  )

     number of k points=    47  gaussian smearing, width (Ry)=  0.0100
                       cart. coord. in units 2pi/alat
        k(    1) = (   0.0000000   0.0000000   0.0000000), wk =   0.0020000
        k(    2) = (   0.0000000  -0.1000000   0.1000000), wk =   0.0240000
        k(    3) = (   0.0000000  -0.2000000   0.2000000), wk =   0.0240000
        k(    4) = (   0.0000000  -0.3000000   0.3000000), wk =   0.0240000
        k(    5) = (   0.0000000  -0.4000000   0.4000000), wk =   0.0240000
        k(    6) = (   0.0000000   0.5000000  -0.5000000), wk =   0.0120000
        k(    7) = (  -0.1000000  -0.1000000   0.2000000), wk =   0.0480000
        k(    8) = (  -0.1000000  -0.2000000   0.3000000), wk =   0.0960000
        k(    9) = (  -0.1000000  -0.3000000   0.4000000), wk =   0.0960000
        k(   10) = (  -0.1000000   0.6000000  -0.5000000), wk =   0.0960000
        k(   11) = (  -0.2000000  -0.2000000   0.4000000), wk =   0.0480000
        k(   12) = (  -0.2000000   0.7000000  -0.5000000), wk =   0.0960000
        k(   13) = (  -0.2000000   0.6000000  -0.4000000), wk =   0.0480000
        k(   14) = (  -0.3000000   0.7000000  -0.4000000), wk =   0.0480000
        k(   15) = (   0.0000000   0.0000000   0.2000000), wk =   0.0120000
        k(   16) = (   0.0000000  -0.1000000   0.3000000), wk =   0.0480000
        k(   17) = (   0.0000000  -0.2000000   0.4000000), wk =   0.0480000
        k(   18) = (   0.0000000  -0.3000000   0.5000000), wk =   0.0480000
        k(   19) = (   0.0000000   0.6000000  -0.4000000), wk =   0.0240000
        k(   20) = (  -0.1000000  -0.1000000   0.4000000), wk =   0.0480000
        k(   21) = (  -0.1000000  -0.2000000   0.5000000), wk =   0.0960000
        k(   22) = (  -0.1000000   0.7000000  -0.4000000), wk =   0.0960000
        k(   23) = (  -0.2000000   0.2000000   0.2000000), wk =   0.0160000
        k(   24) = (  -0.2000000   0.8000000  -0.4000000), wk =   0.0480000
        k(   25) = (  -0.2000000   0.7000000  -0.3000000), wk =   0.0480000
        k(   26) = (  -0.3000000   0.3000000   0.2000000), wk =   0.0480000
        k(   27) = (   0.6000000  -0.6000000   0.2000000), wk =   0.0480000
        k(   28) = (   0.6000000  -0.7000000   0.3000000), wk =   0.0480000
        k(   29) = (   0.5000000  -0.5000000   0.2000000), wk =   0.0240000
        k(   30) = (   0.5000000  -0.6000000   0.3000000), wk =   0.0960000
        k(   31) = (   0.4000000  -0.6000000   0.4000000), wk =   0.0160000
        k(   32) = (   0.0000000   0.0000000   0.4000000), wk =   0.0120000
        k(   33) = (   0.0000000  -0.1000000   0.5000000), wk =   0.0480000
        k(   34) = (   0.0000000  -0.2000000   0.6000000), wk =   0.0480000
        k(   35) = (   0.0000000   0.7000000  -0.3000000), wk =   0.0240000
        k(   36) = (  -0.1000000  -0.1000000   0.6000000), wk =   0.0480000
        k(   37) = (  -0.1000000   0.8000000  -0.3000000), wk =   0.0960000
        k(   38) = (  -0.2000000   0.8000000  -0.2000000), wk =   0.0160000
        k(   39) = (   0.6000000  -0.6000000   0.4000000), wk =   0.0160000
        k(   40) = (   0.5000000  -0.5000000   0.4000000), wk =   0.0240000
        k(   41) = (   0.0000000   0.0000000   0.6000000), wk =   0.0120000
        k(   42) = (   0.0000000  -0.1000000   0.7000000), wk =   0.0480000
        k(   43) = (   0.0000000   0.8000000  -0.2000000), wk =   0.0240000
        k(   44) = (  -0.1000000   0.9000000  -0.2000000), wk =   0.0480000
        k(   45) = (   0.0000000   0.0000000   0.8000000), wk =   0.0120000
        k(   46) = (   0.0000000   0.9000000  -0.1000000), wk =   0.0240000
        k(   47) = (   0.0000000   0.0000000  -1.0000000), wk =   0.0020000

     Dense  grid:    64579 G-vectors     FFT dimensions: (  60,  60,  60)

     Estimated max dynamical RAM per process >      61.58 MB

     Estimated total dynamical RAM >     307.89 MB

     Check: negative/imaginary core charge=   -0.000001    0.000000

     Initial potential from superposition of free atoms

     starting charge    8.98437, renormalised to    9.00000
     Starting wfcs are    8 randomized atomic wfcs +    1 random wfcs

     total cpu time spent up to now is        2.4 secs

     Self-consistent Calculation

     iteration #  1     ecut=   100.00 Ry     beta= 0.70
     Davidson diagonalization with overlap
     ethr =  1.00E-02,  avg # of iterations =  6.7

     Threshold (ethr) on eigenvalues was too large:
     Diagonalizing with lowered threshold

     Davidson diagonalization with overlap
     ethr =  1.25E-05,  avg # of iterations =  6.7

     total cpu time spent up to now is       14.1 secs

     total energy              =     -58.74307290 Ry
     Harris-Foulkes estimate   =     -58.74364175 Ry
     estimated scf accuracy    <       0.00112423 Ry

     iteration #  2     ecut=   100.00 Ry     beta= 0.70
     Davidson diagonalization with overlap
     ethr =  1.25E-05,  avg # of iterations =  2.1

     total cpu time spent up to now is       17.9 secs

     total energy              =     -58.74327207 Ry
     Harris-Foulkes estimate   =     -58.74328938 Ry
     estimated scf accuracy    <       0.00008995 Ry

     iteration #  3     ecut=   100.00 Ry     beta= 0.70
     Davidson diagonalization with overlap
     ethr =  9.99E-07,  avg # of iterations =  2.0

     total cpu time spent up to now is       21.2 secs

     total energy              =     -58.74328098 Ry
     Harris-Foulkes estimate   =     -58.74328019 Ry
     estimated scf accuracy    <       0.00000568 Ry

     iteration #  4     ecut=   100.00 Ry     beta= 0.70
     Davidson diagonalization with overlap
     ethr =  6.31E-08,  avg # of iterations =  1.6

     total cpu time spent up to now is       24.7 secs

     total energy              =     -58.74328152 Ry
     Harris-Foulkes estimate   =     -58.74328152 Ry
     estimated scf accuracy    <       0.00000003 Ry

     iteration #  5     ecut=   100.00 Ry     beta= 0.70
     Davidson diagonalization with overlap
     ethr =  3.89E-10,  avg # of iterations =  2.2

     total cpu time spent up to now is       28.3 secs

     End of self-consistent calculation

          k = 0.0000 0.0000 0.0000 (  8151 PWs)   bands (ev):

   -30.0989 -13.7370 -13.7370 -13.7370  -0.4767   5.9287   5.9287   5.9287
     6.8745

          k = 0.0000-0.1000 0.1000 (  8112 PWs)   bands (ev):

   -30.0984 -13.7448 -13.7396 -13.7370  -0.3482   5.7516   5.7795   6.0315
     6.6898

          k = 0.0000-0.2000 0.2000 (  8116 PWs)   bands (ev):

   -30.0972 -13.7650 -13.7463 -13.7370   0.0285   5.0917   5.4538   6.3351
     6.6426

          k = 0.0000-0.3000 0.3000 (  8108 PWs)   bands (ev):

   -30.0956 -13.7896 -13.7546 -13.7370   0.6266   4.2092   5.1317   6.7116
     6.8258

          k = 0.0000-0.4000 0.4000 (  8074 PWs)   bands (ev):

   -30.0943 -13.8093 -13.7613 -13.7370   1.3995   3.2797   4.9119   6.6280
     7.1257

          k = 0.0000 0.5000-0.5000 (  8050 PWs)   bands (ev):

   -30.0938 -13.8168 -13.7639 -13.7370   2.1431   2.4884   4.8350   6.5319
     7.3574

          k =-0.1000-0.1000 0.2000 (  8111 PWs)   bands (ev):

   -30.0976 -13.7587 -13.7424 -13.7389  -0.0955   5.3779   5.4866   6.2225
     6.5184

          k =-0.1000-0.2000 0.3000 (  8113 PWs)   bands (ev):

   -30.0961 -13.7798 -13.7505 -13.7397   0.3927   4.6514   5.1204   6.5167
     6.5768

          k =-0.1000-0.3000 0.4000 (  8110 PWs)   bands (ev):

   -30.0947 -13.8002 -13.7595 -13.7398   1.0816   3.7821   4.8448   6.5259
     7.0024

          k =-0.1000 0.6000-0.5000 (  8093 PWs)   bands (ev):

   -30.0938 -13.8125 -13.7652 -13.7399   1.9092   2.8737   4.6979   6.3844
     7.2689

          k =-0.2000-0.2000 0.4000 (  8116 PWs)   bands (ev):

   -30.0948 -13.7946 -13.7587 -13.7432   0.9738   4.1553   4.6158   6.5723
     6.6847

          k =-0.2000 0.7000-0.5000 (  8088 PWs)   bands (ev):

   -30.0938 -13.8040 -13.7693 -13.7445   1.7292   3.4564   4.2741   6.3935
     6.8473

          k =-0.2000 0.6000-0.4000 (  8079 PWs)   bands (ev):

   -30.0934 -13.8069 -13.7742 -13.7448   2.5301   2.6591   4.1684   6.2381
     7.1365

          k =-0.3000 0.7000-0.4000 (  8086 PWs)   bands (ev):

   -30.0932 -13.7990 -13.7833 -13.7467   2.5123   3.2012   3.5727   6.2706
     6.8912

          k = 0.0000 0.0000 0.2000 (  8079 PWs)   bands (ev):

   -30.0980 -13.7469 -13.7422 -13.7422  -0.2210   5.7046   5.7046   6.0771
     6.2102

          k = 0.0000-0.1000 0.3000 (  8103 PWs)   bands (ev):

   -30.0967 -13.7649 -13.7490 -13.7433   0.1519   5.1330   5.4412   6.0115
     6.3477

          k = 0.0000-0.2000 0.4000 (  8118 PWs)   bands (ev):

   -30.0951 -13.7885 -13.7574 -13.7430   0.7442   4.2599   5.1519   6.0677
     6.8241

          k = 0.0000-0.3000 0.5000 (  8095 PWs)   bands (ev):

   -30.0939 -13.8075 -13.7642 -13.7427   1.5108   3.3487   4.9489   6.0284
     7.1545

          k = 0.0000 0.6000-0.4000 (  8102 PWs)   bands (ev):

   -30.0934 -13.8147 -13.7668 -13.7425   2.2752   2.5416   4.8772   5.9561
     7.2144

          k =-0.1000-0.1000 0.4000 (  8107 PWs)   bands (ev):

   -30.0953 -13.7807 -13.7568 -13.7474   0.6299   4.6189   5.1007   5.9134
     6.6410

          k =-0.1000-0.2000 0.5000 (  8097 PWs)   bands (ev):

   -30.0939 -13.7980 -13.7663 -13.7481   1.3047   3.8756   4.7669   5.9842
     6.8476

          k =-0.1000 0.7000-0.4000 (  8096 PWs)   bands (ev):

   -30.0931 -13.8088 -13.7724 -13.7480   2.1212   3.0199   4.5833   5.9054
     6.9756

          k =-0.2000 0.2000 0.2000 (  8112 PWs)   bands (ev):

   -30.0965 -13.7768 -13.7429 -13.7429   0.2731   4.9524   4.9524   6.4654
     6.8676

          k =-0.2000 0.8000-0.4000 (  8071 PWs)   bands (ev):

   -30.0929 -13.8023 -13.7789 -13.7500   2.0328   3.5043   4.0981   6.2507
     6.5719

          k =-0.2000 0.7000-0.3000 (  8076 PWs)   bands (ev):

   -30.0926 -13.8019 -13.7862 -13.7504   2.8247   2.8723   3.8092   6.2945
     6.7892

          k =-0.3000 0.3000 0.2000 (  8105 PWs)   bands (ev):

   -30.0952 -13.7937 -13.7531 -13.7435   0.8606   4.2274   4.6224   6.5913
     6.9582

          k = 0.6000-0.6000 0.2000 (  8104 PWs)   bands (ev):

   -30.0941 -13.8050 -13.7636 -13.7441   1.6234   3.4015   4.4185   6.3387
     7.1797

          k = 0.6000-0.7000 0.3000 (  8085 PWs)   bands (ev):

   -30.0942 -13.8005 -13.7610 -13.7491   1.5250   3.8254   4.1195   6.1673
     7.0822

          k = 0.5000-0.5000 0.2000 (  8086 PWs)   bands (ev):

   -30.0937 -13.8088 -13.7680 -13.7442   2.4041   2.6038   4.3498   6.1641
     7.3151

          k = 0.5000-0.6000 0.3000 (  8077 PWs)   bands (ev):

   -30.0936 -13.7999 -13.7724 -13.7509   2.3274   3.1584   3.8897   5.7479
     7.2115

          k = 0.4000-0.6000 0.4000 (  8097 PWs)   bands (ev):

   -30.0934 -13.7869 -13.7869 -13.7535   3.0198   3.0198   3.3246   5.4968
     7.3004

          k = 0.0000 0.0000 0.4000 (  8108 PWs)   bands (ev):

   -30.0955 -13.7684 -13.7561 -13.7561   0.5133   5.1008   5.3494   5.3494
     6.4986

          k = 0.0000-0.1000 0.5000 (  8101 PWs)   bands (ev):

   -30.0940 -13.7859 -13.7648 -13.7584   1.0865   4.3512   5.1832   5.4059
     6.8381

          k = 0.0000-0.2000 0.6000 (  8073 PWs)   bands (ev):

   -30.0928 -13.8026 -13.7718 -13.7575   1.8276   3.5339   5.0417   5.3161
     6.6793

          k = 0.0000 0.7000-0.3000 (  8098 PWs)   bands (ev):

   -30.0924 -13.8091 -13.7745 -13.7571   2.6447   2.6999   4.9885   5.2073
     6.7841

          k =-0.1000-0.1000 0.6000 (  8083 PWs)   bands (ev):

   -30.0927 -13.7957 -13.7753 -13.7621   1.7271   3.9026   4.7465   5.5649
     6.3803

          k =-0.1000 0.8000-0.3000 (  8081 PWs)   bands (ev):

   -30.0919 -13.8029 -13.7829 -13.7620   2.4916   3.2794   4.3706   5.6546
     6.4215

          k =-0.2000 0.8000-0.2000 (  8058 PWs)   bands (ev):

   -30.0916 -13.7957 -13.7957 -13.7624   3.0926   3.0926   3.8045   6.1457
     6.1457

          k = 0.6000-0.6000 0.4000 (  8109 PWs)   bands (ev):

   -30.0937 -13.7964 -13.7629 -13.7629   2.2373   3.6308   3.6308   5.3853
     7.3524

          k = 0.5000-0.5000 0.4000 (  8120 PWs)   bands (ev):

   -30.0935 -13.7883 -13.7748 -13.7637   2.9599   3.0461   3.5667   5.0230
     7.3829

          k = 0.0000 0.0000 0.6000 (  8112 PWs)   bands (ev):

   -30.0926 -13.7860 -13.7739 -13.7739   1.6229   4.1791   5.1785   5.1785
     6.1238

          k = 0.0000-0.1000 0.7000 (  8077 PWs)   bands (ev):

   -30.0915 -13.7968 -13.7812 -13.7756   2.2996   3.6936   4.9833   5.1454
     5.9578

          k = 0.0000 0.8000-0.2000 (  8084 PWs)   bands (ev):

   -30.0911 -13.8022 -13.7840 -13.7749   2.9520   3.1241   4.7696   5.1275
     6.1581

          k =-0.1000 0.9000-0.2000 (  8095 PWs)   bands (ev):

   -30.0908 -13.7979 -13.7907 -13.7776   2.9233   3.4150   4.4764   5.5158
     5.8261

          k = 0.0000 0.0000 0.8000 (  8100 PWs)   bands (ev):

   -30.0905 -13.7934 -13.7887 -13.7887   2.8395   3.5980   5.2168   5.2168
     5.2873

          k = 0.0000 0.9000-0.1000 (  8080 PWs)   bands (ev):

   -30.0901 -13.7967 -13.7916 -13.7891   3.2445   3.3829   4.9305   5.2405
     5.5567

          k = 0.0000 0.0000-1.0000 (  8128 PWs)   bands (ev):

   -30.0897 -13.7945 -13.7945 -13.7945   3.4009   5.2835   5.2835   5.2835
     7.2556

     the Fermi energy is     1.7383 ev

!    total energy              =     -58.74328153 Ry
     Harris-Foulkes estimate   =     -58.74328153 Ry
     estimated scf accuracy    <          5.2E-10 Ry

     The total energy is the sum of the following terms:

     one-electron contribution =     -36.65504420 Ry
     hartree contribution      =      18.82560629 Ry
     xc contribution           =     -11.01685173 Ry
     ewald contribution        =     -29.89633970 Ry
     smearing contrib. (-TS)   =      -0.00065218 Ry

     convergence has been achieved in   5 iterations

     Forces acting on atoms (cartesian axes, Ry/au):

     atom    1 type  1   force =     0.00000000    0.00000000    0.00000000

     Total force =     0.000000     Total SCF correction =     0.000000


     Computing stress (Cartesian axis) and pressure

          total   stress  (Ry/bohr**3)                   (kbar)     P=   -3.79
  -0.00002577  -0.00000000   0.00000000         -3.79     -0.00      0.00
  -0.00000000  -0.00002577  -0.00000000         -0.00     -3.79     -0.00
   0.00000000  -0.00000000  -0.00002577          0.00     -0.00     -3.79


     Writing output data file K.save/

     init_run     :      1.57s CPU      1.63s WALL (       1 calls)
     electrons    :     25.09s CPU     25.94s WALL (       1 calls)
     forces       :      0.41s CPU      0.43s WALL (       1 calls)
     stress       :      1.32s CPU      1.37s WALL (       1 calls)

     Called by init_run:
     wfcinit      :      1.10s CPU      1.14s WALL (       1 calls)
     potinit      :      0.03s CPU      0.03s WALL (       1 calls)
     hinit0       :      0.25s CPU      0.26s WALL (       1 calls)

     Called by electrons:
     c_bands      :     20.79s CPU     21.41s WALL (       6 calls)
     sum_band     :      3.90s CPU      4.07s WALL (       6 calls)
     v_of_rho     :      0.05s CPU      0.05s WALL (       6 calls)
     newd         :      0.37s CPU      0.43s WALL (       6 calls)
     mix_rho      :      0.02s CPU      0.02s WALL (       6 calls)

     Called by c_bands:
     init_us_2    :      0.70s CPU      0.71s WALL (     705 calls)
     cegterg      :     19.94s CPU     20.56s WALL (     282 calls)

     Called by sum_band:
     sum_band:bec :      0.00s CPU      0.00s WALL (     282 calls)
     addusdens    :      0.34s CPU      0.40s WALL (       6 calls)

     Called by *egterg:
     h_psi        :     17.25s CPU     17.86s WALL (    1331 calls)
     s_psi        :      0.44s CPU      0.45s WALL (    1331 calls)
     g_psi        :      0.04s CPU      0.04s WALL (    1002 calls)
     cdiaghg      :      0.33s CPU      0.34s WALL (    1237 calls)

     Called by h_psi:
     h_psi:pot    :     17.18s CPU     17.79s WALL (    1331 calls)
     h_psi:calbec :      0.88s CPU      0.91s WALL (    1331 calls)
     vloc_psi     :     15.78s CPU     16.35s WALL (    1331 calls)
     add_vuspsi   :      0.50s CPU      0.50s WALL (    1331 calls)

     General routines
     calbec       :      1.49s CPU      1.52s WALL (    1848 calls)
     fft          :      0.08s CPU      0.08s WALL (      34 calls)
     ffts         :      0.01s CPU      0.01s WALL (       6 calls)
     fftw         :     16.74s CPU     17.36s WALL (   17262 calls)

     Parallel routines
     fft_scatt_xy :      1.38s CPU      1.44s WALL (   17302 calls)
     fft_scatt_yz :      4.31s CPU      4.49s WALL (   17302 calls)

     PWSCF        :    29.19s CPU        30.33s WALL


   This run was terminated on:   0: 1:15   8Apr2024            

=------------------------------------------------------------------------------=
   JOB DONE.
=------------------------------------------------------------------------------=
