
     Program PWSCF v.6.3MaX starts on  8Apr2024 at  0:51:39 

     This program is part of the open-source Quantum ESPRESSO suite
     for quantum simulation of materials; please cite
         "P. Giannozzi et al., J. Phys.:Condens. Matter 21 395502 (2009);
         "P. Giannozzi et al., J. Phys.:Condens. Matter 29 465901 (2017);
          URL http://www.quantum-espresso.org", 
     in publications or presentations arising from this work. More details at
     http://www.quantum-espresso.org/quote

     Parallel version (MPI), running on     5 processors

     MPI processes distributed on     1 nodes
     R & G space division:  proc/nbgrp/npool/nimage =       5
     Waiting for input...
     Reading input from standard input

     Current dimensions of program PWSCF are:
     Max number of different atomic species (ntypx) = 10
     Max number of k-points (npk) =  40000
     Max angular momentum in pseudopotentials (lmaxx) =  3
               file K.pz-spn-rrkjus_psl.1.0.0.UPF: wavefunction(s)  3S renormalized

     Subspace diagonalization in iterative solution of the eigenvalue problem:
     a serial algorithm will be used


     Parallelization info
     --------------------
     sticks:   dense  smooth     PW     G-vecs:    dense   smooth      PW
     Min         282     282     82                 6766     6766    1084
     Max         283     283     83                 6768     6768    1088
     Sum        1411    1411    411                33837    33837    5425



     bravais-lattice index     =            3
     lattice parameter (alat)  =       9.8600  a.u.
     unit-cell volume          =     479.2926 (a.u.)^3
     number of atoms/cell      =            1
     number of atomic types    =            1
     number of electrons       =         9.00
     number of Kohn-Sham states=            9
     kinetic-energy cutoff     =      65.0000  Ry
     charge density cutoff     =     260.0000  Ry
     convergence threshold     =      1.0E-08
     mixing beta               =       0.7000
     number of iterations used =            8  plain     mixing
     Exchange-correlation      = LDA ( 1  1  0  0 0 0)

     celldm(1)=   9.860000  celldm(2)=   0.000000  celldm(3)=   0.000000
     celldm(4)=   0.000000  celldm(5)=   0.000000  celldm(6)=   0.000000

     crystal axes: (cart. coord. in units of alat)
               a(1) = (   0.500000   0.500000   0.500000 )  
               a(2) = (  -0.500000   0.500000   0.500000 )  
               a(3) = (  -0.500000  -0.500000   0.500000 )  

     reciprocal axes: (cart. coord. in units 2 pi/alat)
               b(1) = (  1.000000  0.000000  1.000000 )  
               b(2) = ( -1.000000  1.000000  0.000000 )  
               b(3) = (  0.000000 -1.000000  1.000000 )  


     PseudoPot. # 1 for K  read from file:
     /home/lorenzo/pseudos/K/K.pz-spn-rrkjus_psl.1.0.0.UPF
     MD5 check sum: af434a66a3b91719abff201b8f79bb09
     Pseudo is Ultrasoft + core correction, Zval =  9.0
     Generated using "atomic" code by A. Dal Corso v.6.2.2
     Using radial grid of 1165 points,  6 beta functions with: 
                l(1) =   0
                l(2) =   0
                l(3) =   1
                l(4) =   1
                l(5) =   2
                l(6) =   2
     Q(r) pseudized with 0 coefficients 


     atomic species   valence    mass     pseudopotential
        K              9.00    39.09830     K ( 1.00)

     48 Sym. Ops., with inversion, found



   Cartesian axes

     site n.     atom                  positions (alat units)
         1           K   tau(   1) = (   0.0000000   0.0000000   0.0000000  )

     number of k points=    16  gaussian smearing, width (Ry)=  0.0100
                       cart. coord. in units 2pi/alat
        k(    1) = (   0.0000000   0.0000000   0.0000000), wk =   0.0092593
        k(    2) = (   0.0000000  -0.1666667   0.1666667), wk =   0.1111111
        k(    3) = (   0.0000000  -0.3333333   0.3333333), wk =   0.1111111
        k(    4) = (   0.0000000   0.5000000  -0.5000000), wk =   0.0555556
        k(    5) = (  -0.1666667  -0.1666667   0.3333333), wk =   0.2222222
        k(    6) = (  -0.1666667   0.6666667  -0.5000000), wk =   0.4444444
        k(    7) = (  -0.3333333   0.6666667  -0.3333333), wk =   0.0740741
        k(    8) = (   0.0000000   0.0000000   0.3333333), wk =   0.0555556
        k(    9) = (   0.0000000  -0.1666667   0.5000000), wk =   0.2222222
        k(   10) = (   0.0000000   0.6666667  -0.3333333), wk =   0.1111111
        k(   11) = (  -0.1666667   0.8333333  -0.3333333), wk =   0.2222222
        k(   12) = (   0.6666667  -0.6666667   0.3333333), wk =   0.0740741
        k(   13) = (   0.5000000  -0.5000000   0.3333333), wk =   0.1111111
        k(   14) = (   0.0000000   0.0000000   0.6666667), wk =   0.0555556
        k(   15) = (   0.0000000   0.8333333  -0.1666667), wk =   0.1111111
        k(   16) = (   0.0000000   0.0000000  -1.0000000), wk =   0.0092593

     Dense  grid:    33837 G-vectors     FFT dimensions: (  45,  45,  45)

     Estimated max dynamical RAM per process >      29.07 MB

     Estimated total dynamical RAM >     145.33 MB

     Check: negative/imaginary core charge=   -0.000004    0.000000

     Initial potential from superposition of free atoms

     starting charge    8.98437, renormalised to    9.00000
     Starting wfcs are    8 randomized atomic wfcs +    1 random wfcs

     total cpu time spent up to now is        1.2 secs

     Self-consistent Calculation

     iteration #  1     ecut=    65.00 Ry     beta= 0.70
     Davidson diagonalization with overlap
     ethr =  1.00E-02,  avg # of iterations =  6.7

     Threshold (ethr) on eigenvalues was too large:
     Diagonalizing with lowered threshold

     Davidson diagonalization with overlap
     ethr =  1.24E-05,  avg # of iterations =  6.1

     total cpu time spent up to now is        2.8 secs

     total energy              =     -58.74197625 Ry
     Harris-Foulkes estimate   =     -58.74253700 Ry
     estimated scf accuracy    <       0.00111254 Ry

     iteration #  2     ecut=    65.00 Ry     beta= 0.70
     Davidson diagonalization with overlap
     ethr =  1.24E-05,  avg # of iterations =  2.1

     total cpu time spent up to now is        3.5 secs

     total energy              =     -58.74217343 Ry
     Harris-Foulkes estimate   =     -58.74219056 Ry
     estimated scf accuracy    <       0.00008889 Ry

     iteration #  3     ecut=    65.00 Ry     beta= 0.70
     Davidson diagonalization with overlap
     ethr =  9.88E-07,  avg # of iterations =  2.5

     total cpu time spent up to now is        4.0 secs

     total energy              =     -58.74218226 Ry
     Harris-Foulkes estimate   =     -58.74218147 Ry
     estimated scf accuracy    <       0.00000561 Ry

     iteration #  4     ecut=    65.00 Ry     beta= 0.70
     Davidson diagonalization with overlap
     ethr =  6.23E-08,  avg # of iterations =  1.4

     total cpu time spent up to now is        4.5 secs

     total energy              =     -58.74218283 Ry
     Harris-Foulkes estimate   =     -58.74218282 Ry
     estimated scf accuracy    <       0.00000004 Ry

     iteration #  5     ecut=    65.00 Ry     beta= 0.70
     Davidson diagonalization with overlap
     ethr =  3.92E-10,  avg # of iterations =  2.0

     total cpu time spent up to now is        5.1 secs

     End of self-consistent calculation

          k = 0.0000 0.0000 0.0000 (  4213 PWs)   bands (ev):

   -30.0965 -13.7353 -13.7353 -13.7353  -0.4765   5.9292   5.9292   5.9292
     6.8757

          k = 0.0000-0.1667 0.1667 (  4228 PWs)   bands (ev):

   -30.0952 -13.7556 -13.7421 -13.7353  -0.1231   5.3547   5.5697   6.2128
     6.6292

          k = 0.0000-0.3333 0.3333 (  4214 PWs)   bands (ev):

   -30.0926 -13.7955 -13.7555 -13.7353   0.8682   3.9021   5.0446   6.7058
     6.9680

          k = 0.0000 0.5000-0.5000 (  4238 PWs)   bands (ev):

   -30.0913 -13.8151 -13.7622 -13.7353   2.1434   2.4886   4.8354   6.5328
     7.3586

          k =-0.1667-0.1667 0.3333 (  4235 PWs)   bands (ev):

   -30.0933 -13.7827 -13.7504 -13.7399   0.5514   4.5553   4.9193   6.5134
     6.6127

          k =-0.1667 0.6667-0.5000 (  4248 PWs)   bands (ev):

   -30.0913 -13.8050 -13.7661 -13.7415   1.7705   3.2645   4.4361   6.3537
     7.0070

          k =-0.3333 0.6667-0.3333 (  4237 PWs)   bands (ev):

   -30.0907 -13.7903 -13.7903 -13.7454   2.9761   2.9761   3.3020   6.2473
     7.0178

          k = 0.0000 0.0000 0.3333 (  4213 PWs)   bands (ev):

   -30.0940 -13.7592 -13.7490 -13.7490   0.2203   5.4563   5.4563   5.4651
     6.3320

          k = 0.0000-0.1667 0.5000 (  4247 PWs)   bands (ev):

   -30.0915 -13.7919 -13.7629 -13.7506   1.1838   4.0439   5.1099   5.5971
     6.9426

          k = 0.0000 0.6667-0.3333 (  4242 PWs)   bands (ev):

   -30.0903 -13.8095 -13.7699 -13.7498   2.4999   2.6360   4.9461   5.4361
     6.9578

          k =-0.1667 0.8333-0.3333 (  4241 PWs)   bands (ev):

   -30.0898 -13.7997 -13.7819 -13.7559   2.3156   3.4575   4.1425   5.9588
     6.4093

          k = 0.6667-0.6667 0.3333 (  4237 PWs)   bands (ev):

   -30.0918 -13.7982 -13.7531 -13.7531   1.4908   4.0004   4.0004   6.0847
     7.2194

          k = 0.5000-0.5000 0.3333 (  4230 PWs)   bands (ev):

   -30.0911 -13.7944 -13.7712 -13.7545   2.8136   2.8192   3.8182   5.3878
     7.3208

          k = 0.0000 0.0000 0.6667 (  4276 PWs)   bands (ev):

   -30.0894 -13.7879 -13.7778 -13.7778   2.0410   3.9450   5.1735   5.1735
     5.7572

          k = 0.0000 0.8333-0.1667 (  4272 PWs)   bands (ev):

   -30.0883 -13.7984 -13.7852 -13.7786   3.0507   3.2526   4.7480   5.1708
     5.9420

          k = 0.0000 0.0000-1.0000 (  4196 PWs)   bands (ev):

   -30.0872 -13.7928 -13.7928 -13.7928   3.4015   5.2835   5.2835   5.2835
     7.2563

     the Fermi energy is     1.7554 ev

!    total energy              =     -58.74218284 Ry
     Harris-Foulkes estimate   =     -58.74218284 Ry
     estimated scf accuracy    <          5.3E-10 Ry

     The total energy is the sum of the following terms:

     one-electron contribution =     -36.65410205 Ry
     hartree contribution      =      18.82649250 Ry
     xc contribution           =     -11.01698838 Ry
     ewald contribution        =     -29.89633970 Ry
     smearing contrib. (-TS)   =      -0.00124521 Ry

     convergence has been achieved in   5 iterations

     Forces acting on atoms (cartesian axes, Ry/au):

     atom    1 type  1   force =     0.00000000    0.00000000    0.00000000

     Total force =     0.000000     Total SCF correction =     0.000000


     Computing stress (Cartesian axis) and pressure

          total   stress  (Ry/bohr**3)                   (kbar)     P=   -3.61
  -0.00002457  -0.00000000   0.00000000         -3.61     -0.00      0.00
  -0.00000000  -0.00002457  -0.00000000         -0.00     -3.61     -0.00
   0.00000000  -0.00000000  -0.00002457          0.00     -0.00     -3.61


     Writing output data file K.save/

     init_run     :      0.41s CPU      0.43s WALL (       1 calls)
     electrons    :      3.75s CPU      3.90s WALL (       1 calls)
     forces       :      0.09s CPU      0.09s WALL (       1 calls)
     stress       :      0.38s CPU      0.38s WALL (       1 calls)

     Called by init_run:
     wfcinit      :      0.15s CPU      0.15s WALL (       1 calls)
     potinit      :      0.01s CPU      0.01s WALL (       1 calls)
     hinit0       :      0.19s CPU      0.19s WALL (       1 calls)

     Called by electrons:
     c_bands      :      2.91s CPU      3.03s WALL (       6 calls)
     sum_band     :      0.67s CPU      0.69s WALL (       6 calls)
     v_of_rho     :      0.02s CPU      0.02s WALL (       6 calls)
     newd         :      0.17s CPU      0.18s WALL (       6 calls)
     mix_rho      :      0.01s CPU      0.01s WALL (       6 calls)

     Called by c_bands:
     init_us_2    :      0.12s CPU      0.12s WALL (     240 calls)
     cegterg      :      2.76s CPU      2.88s WALL (      96 calls)

     Called by sum_band:
     sum_band:bec :      0.00s CPU      0.00s WALL (      96 calls)
     addusdens    :      0.18s CPU      0.19s WALL (       6 calls)

     Called by *egterg:
     h_psi        :      2.29s CPU      2.40s WALL (     444 calls)
     s_psi        :      0.08s CPU      0.08s WALL (     444 calls)
     g_psi        :      0.01s CPU      0.01s WALL (     332 calls)
     cdiaghg      :      0.10s CPU      0.10s WALL (     412 calls)

     Called by h_psi:
     h_psi:pot    :      2.27s CPU      2.39s WALL (     444 calls)
     h_psi:calbec :      0.13s CPU      0.14s WALL (     444 calls)
     vloc_psi     :      2.05s CPU      2.16s WALL (     444 calls)
     add_vuspsi   :      0.09s CPU      0.09s WALL (     444 calls)

     General routines
     calbec       :      0.21s CPU      0.21s WALL (     620 calls)
     fft          :      0.02s CPU      0.02s WALL (      34 calls)
     ffts         :      0.00s CPU      0.00s WALL (       6 calls)
     fftw         :      2.25s CPU      2.36s WALL (    5842 calls)

     Parallel routines
     fft_scatt_xy :      0.18s CPU      0.19s WALL (    5882 calls)
     fft_scatt_yz :      0.50s CPU      0.53s WALL (    5882 calls)

     PWSCF        :     5.42s CPU         5.66s WALL


   This run was terminated on:   0:51:45   8Apr2024            

=------------------------------------------------------------------------------=
   JOB DONE.
=------------------------------------------------------------------------------=
