
     Program PWSCF v.6.3MaX starts on  8Apr2024 at  0:49: 9 

     This program is part of the open-source Quantum ESPRESSO suite
     for quantum simulation of materials; please cite
         "P. Giannozzi et al., J. Phys.:Condens. Matter 21 395502 (2009);
         "P. Giannozzi et al., J. Phys.:Condens. Matter 29 465901 (2017);
          URL http://www.quantum-espresso.org", 
     in publications or presentations arising from this work. More details at
     http://www.quantum-espresso.org/quote

     Parallel version (MPI), running on     5 processors

     MPI processes distributed on     1 nodes
     R & G space division:  proc/nbgrp/npool/nimage =       5
     Waiting for input...
     Reading input from standard input

     Current dimensions of program PWSCF are:
     Max number of different atomic species (ntypx) = 10
     Max number of k-points (npk) =  40000
     Max angular momentum in pseudopotentials (lmaxx) =  3
               file K.pbe-spn-rrkjus_psl.1.0.0.UPF: wavefunction(s)  3S renormalized

     Subspace diagonalization in iterative solution of the eigenvalue problem:
     a serial algorithm will be used


     Parallelization info
     --------------------
     sticks:   dense  smooth     PW     G-vecs:    dense   smooth      PW
     Min         282     282     82                 6766     6766    1056
     Max         283     283     83                 6768     6768    1057
     Sum        1411    1411    411                33837    33837    5281



     bravais-lattice index     =            3
     lattice parameter (alat)  =       9.8600  a.u.
     unit-cell volume          =     479.2926 (a.u.)^3
     number of atoms/cell      =            1
     number of atomic types    =            1
     number of electrons       =         9.00
     number of Kohn-Sham states=            9
     kinetic-energy cutoff     =      65.0000  Ry
     charge density cutoff     =     260.0000  Ry
     convergence threshold     =      1.0E-08
     mixing beta               =       0.7000
     number of iterations used =            8  plain     mixing
     Exchange-correlation      = PBE ( 1  4  3  4 0 0)

     celldm(1)=   9.860000  celldm(2)=   0.000000  celldm(3)=   0.000000
     celldm(4)=   0.000000  celldm(5)=   0.000000  celldm(6)=   0.000000

     crystal axes: (cart. coord. in units of alat)
               a(1) = (   0.500000   0.500000   0.500000 )  
               a(2) = (  -0.500000   0.500000   0.500000 )  
               a(3) = (  -0.500000  -0.500000   0.500000 )  

     reciprocal axes: (cart. coord. in units 2 pi/alat)
               b(1) = (  1.000000  0.000000  1.000000 )  
               b(2) = ( -1.000000  1.000000  0.000000 )  
               b(3) = (  0.000000 -1.000000  1.000000 )  


     PseudoPot. # 1 for K  read from file:
     /home/lorenzo/pseudos/K/K.pbe-spn-rrkjus_psl.1.0.0.UPF
     MD5 check sum: 897b700350bb708b0563e904352feb48
     Pseudo is Ultrasoft + core correction, Zval =  9.0
     Generated using "atomic" code by A. Dal Corso v.6.2.2
     Using radial grid of 1165 points,  6 beta functions with: 
                l(1) =   0
                l(2) =   0
                l(3) =   1
                l(4) =   1
                l(5) =   2
                l(6) =   2
     Q(r) pseudized with 0 coefficients 


     atomic species   valence    mass     pseudopotential
        K              9.00    39.09830     K ( 1.00)

     48 Sym. Ops., with inversion, found



   Cartesian axes

     site n.     atom                  positions (alat units)
         1           K   tau(   1) = (   0.0000000   0.0000000   0.0000000  )

     number of k points=    56  gaussian smearing, width (Ry)=  0.0100
                       cart. coord. in units 2pi/alat
        k(    1) = (   0.0000000   0.0000000   0.0000000), wk =   0.0015026
        k(    2) = (   0.0000000  -0.0909091   0.0909091), wk =   0.0180316
        k(    3) = (   0.0000000  -0.1818182   0.1818182), wk =   0.0180316
        k(    4) = (   0.0000000  -0.2727273   0.2727273), wk =   0.0180316
        k(    5) = (   0.0000000  -0.3636364   0.3636364), wk =   0.0180316
        k(    6) = (   0.0000000  -0.4545455   0.4545455), wk =   0.0180316
        k(    7) = (  -0.0909091  -0.0909091   0.1818182), wk =   0.0360631
        k(    8) = (  -0.0909091  -0.1818182   0.2727273), wk =   0.0721262
        k(    9) = (  -0.0909091  -0.2727273   0.3636364), wk =   0.0721262
        k(   10) = (  -0.0909091  -0.3636364   0.4545455), wk =   0.0721262
        k(   11) = (  -0.0909091   0.5454545  -0.4545455), wk =   0.0360631
        k(   12) = (  -0.1818182  -0.1818182   0.3636364), wk =   0.0360631
        k(   13) = (  -0.1818182  -0.2727273   0.4545455), wk =   0.0721262
        k(   14) = (  -0.1818182   0.6363636  -0.4545455), wk =   0.0721262
        k(   15) = (  -0.2727273   0.7272727  -0.4545455), wk =   0.0360631
        k(   16) = (  -0.2727273   0.6363636  -0.3636364), wk =   0.0360631
        k(   17) = (   0.0000000   0.0000000   0.1818182), wk =   0.0090158
        k(   18) = (   0.0000000  -0.0909091   0.2727273), wk =   0.0360631
        k(   19) = (   0.0000000  -0.1818182   0.3636364), wk =   0.0360631
        k(   20) = (   0.0000000  -0.2727273   0.4545455), wk =   0.0360631
        k(   21) = (   0.0000000  -0.3636364   0.5454545), wk =   0.0360631
        k(   22) = (  -0.0909091  -0.0909091   0.3636364), wk =   0.0360631
        k(   23) = (  -0.0909091  -0.1818182   0.4545455), wk =   0.0721262
        k(   24) = (  -0.0909091  -0.2727273   0.5454545), wk =   0.0721262
        k(   25) = (  -0.0909091   0.6363636  -0.3636364), wk =   0.0360631
        k(   26) = (  -0.1818182   0.1818182   0.1818182), wk =   0.0120210
        k(   27) = (  -0.1818182  -0.1818182   0.5454545), wk =   0.0360631
        k(   28) = (  -0.1818182   0.7272727  -0.3636364), wk =   0.0721262
        k(   29) = (  -0.2727273   0.2727273   0.1818182), wk =   0.0360631
        k(   30) = (  -0.2727273   0.7272727  -0.2727273), wk =   0.0120210
        k(   31) = (  -0.3636364   0.3636364   0.1818182), wk =   0.0360631
        k(   32) = (  -0.3636364   0.2727273   0.2727273), wk =   0.0360631
        k(   33) = (   0.5454545  -0.5454545   0.1818182), wk =   0.0360631
        k(   34) = (   0.5454545  -0.6363636   0.2727273), wk =   0.0721262
        k(   35) = (   0.4545455  -0.5454545   0.2727273), wk =   0.0360631
        k(   36) = (   0.4545455  -0.6363636   0.3636364), wk =   0.0360631
        k(   37) = (   0.0000000   0.0000000   0.3636364), wk =   0.0090158
        k(   38) = (   0.0000000  -0.0909091   0.4545455), wk =   0.0360631
        k(   39) = (   0.0000000  -0.1818182   0.5454545), wk =   0.0360631
        k(   40) = (   0.0000000  -0.2727273   0.6363636), wk =   0.0360631
        k(   41) = (  -0.0909091  -0.0909091   0.5454545), wk =   0.0360631
        k(   42) = (  -0.0909091  -0.1818182   0.6363636), wk =   0.0721262
        k(   43) = (  -0.0909091   0.7272727  -0.2727273), wk =   0.0360631
        k(   44) = (  -0.1818182   0.8181818  -0.2727273), wk =   0.0360631
        k(   45) = (   0.6363636  -0.6363636   0.3636364), wk =   0.0120210
        k(   46) = (   0.5454545  -0.5454545   0.3636364), wk =   0.0360631
        k(   47) = (   0.4545455  -0.5454545   0.4545455), wk =   0.0120210
        k(   48) = (   0.0000000   0.0000000   0.5454545), wk =   0.0090158
        k(   49) = (   0.0000000  -0.0909091   0.6363636), wk =   0.0360631
        k(   50) = (   0.0000000  -0.1818182   0.7272727), wk =   0.0360631
        k(   51) = (  -0.0909091  -0.0909091   0.7272727), wk =   0.0360631
        k(   52) = (  -0.0909091   0.8181818  -0.1818182), wk =   0.0360631
        k(   53) = (   0.0000000   0.0000000   0.7272727), wk =   0.0090158
        k(   54) = (   0.0000000  -0.0909091   0.8181818), wk =   0.0360631
        k(   55) = (  -0.0909091   0.9090909  -0.0909091), wk =   0.0120210
        k(   56) = (   0.0000000   0.0000000   0.9090909), wk =   0.0090158

     Dense  grid:    33837 G-vectors     FFT dimensions: (  45,  45,  45)

     Estimated max dynamical RAM per process >      33.72 MB

     Estimated total dynamical RAM >     168.62 MB

     Check: negative/imaginary core charge=   -0.000004    0.000000

     Initial potential from superposition of free atoms

     starting charge    8.98117, renormalised to    9.00000
     Starting wfcs are    8 randomized atomic wfcs +    1 random wfcs

     total cpu time spent up to now is        1.9 secs

     Self-consistent Calculation

     iteration #  1     ecut=    65.00 Ry     beta= 0.70
     Davidson diagonalization with overlap
     ethr =  1.00E-02,  avg # of iterations =  6.5

     Threshold (ethr) on eigenvalues was too large:
     Diagonalizing with lowered threshold

     Davidson diagonalization with overlap
     ethr =  1.43E-05,  avg # of iterations =  6.7

     total cpu time spent up to now is        8.0 secs

     total energy              =     -58.77380355 Ry
     Harris-Foulkes estimate   =     -58.77433468 Ry
     estimated scf accuracy    <       0.00127295 Ry

     iteration #  2     ecut=    65.00 Ry     beta= 0.70
     Davidson diagonalization with overlap
     ethr =  1.41E-05,  avg # of iterations =  2.2

     total cpu time spent up to now is       10.0 secs

     total energy              =     -58.77403809 Ry
     Harris-Foulkes estimate   =     -58.77404088 Ry
     estimated scf accuracy    <       0.00010190 Ry

     iteration #  3     ecut=    65.00 Ry     beta= 0.70
     Davidson diagonalization with overlap
     ethr =  1.13E-06,  avg # of iterations =  1.8

     total cpu time spent up to now is       12.1 secs

     total energy              =     -58.77404803 Ry
     Harris-Foulkes estimate   =     -58.77404546 Ry
     estimated scf accuracy    <       0.00000690 Ry

     iteration #  4     ecut=    65.00 Ry     beta= 0.70
     Davidson diagonalization with overlap
     ethr =  7.67E-08,  avg # of iterations =  1.7

     total cpu time spent up to now is       14.0 secs

     total energy              =     -58.77404861 Ry
     Harris-Foulkes estimate   =     -58.77404861 Ry
     estimated scf accuracy    <       0.00000005 Ry

     iteration #  5     ecut=    65.00 Ry     beta= 0.70
     Davidson diagonalization with overlap
     ethr =  5.39E-10,  avg # of iterations =  2.7

     total cpu time spent up to now is       15.9 secs

     End of self-consistent calculation

          k = 0.0000 0.0000 0.0000 (  4213 PWs)   bands (ev):

   -30.1648 -13.6138 -13.6138 -13.6138  -0.2611   6.2636   6.2636   6.2636
     7.1816

          k = 0.0000-0.0909 0.0909 (  4204 PWs)   bands (ev):

   -30.1644 -13.6199 -13.6158 -13.6138  -0.1554   6.1058   6.1294   6.3481
     7.0068

          k = 0.0000-0.1818 0.1818 (  4228 PWs)   bands (ev):

   -30.1634 -13.6364 -13.6213 -13.6137   0.1557   5.5095   5.8268   6.5985
     6.9431

          k = 0.0000-0.2727 0.2727 (  4228 PWs)   bands (ev):

   -30.1621 -13.6578 -13.6284 -13.6137   0.6547   4.6927   5.5093   7.0057
     7.0236

          k = 0.0000-0.3636 0.3636 (  4226 PWs)   bands (ev):

   -30.1608 -13.6772 -13.6350 -13.6137   1.3122   3.8312   5.2661   7.0097
     7.3158

          k = 0.0000-0.4545 0.4545 (  4242 PWs)   bands (ev):

   -30.1601 -13.6886 -13.6389 -13.6137   2.0798   2.9700   5.1370   6.8937
     7.5952

          k =-0.0909-0.0909 0.1818 (  4224 PWs)   bands (ev):

   -30.1637 -13.6313 -13.6180 -13.6153   0.0530   5.7676   5.8619   6.5073
     6.8345

          k =-0.0909-0.1818 0.2727 (  4233 PWs)   bands (ev):

   -30.1626 -13.6494 -13.6245 -13.6159   0.4584   5.0940   5.5123   6.7962
     6.8304

          k =-0.0909-0.2727 0.3636 (  4232 PWs)   bands (ev):

   -30.1613 -13.6685 -13.6325 -13.6160   1.0379   4.2851   5.2273   6.8606
     7.2085

          k =-0.0909-0.3636 0.4545 (  4245 PWs)   bands (ev):

   -30.1603 -13.6828 -13.6387 -13.6160   1.7557   3.4400   5.0436   6.7803
     7.5113

          k =-0.0909 0.5455-0.4545 (  4238 PWs)   bands (ev):

   -30.1599 -13.6881 -13.6411 -13.6161   2.4704   2.6855   4.9805   6.6995
     8.0129

          k =-0.1818-0.1818 0.3636 (  4247 PWs)   bands (ev):

   -30.1614 -13.6639 -13.6309 -13.6188   0.9453   4.6012   5.0475   6.8426
     6.9957

          k =-0.1818-0.2727 0.4545 (  4251 PWs)   bands (ev):

   -30.1604 -13.6754 -13.6400 -13.6201   1.5884   3.9409   4.7133   6.8059
     7.1250

          k =-0.1818 0.6364-0.4545 (  4240 PWs)   bands (ev):

   -30.1598 -13.6815 -13.6464 -13.6205   2.3444   3.1601   4.5544   6.6064
     7.4098

          k =-0.2727 0.7273-0.4545 (  4232 PWs)   bands (ev):

   -30.1597 -13.6760 -13.6512 -13.6224   2.2711   3.6183   4.1199   6.6917
     7.1076

          k =-0.2727 0.6364-0.3636 (  4242 PWs)   bands (ev):

   -30.1594 -13.6734 -13.6585 -13.6230   2.9852   3.0515   3.8834   6.5920
     7.2992

          k = 0.0000 0.0000 0.1818 (  4209 PWs)   bands (ev):

   -30.1641 -13.6217 -13.6179 -13.6179  -0.0507   6.0551   6.0551   6.3871
     6.5732

          k = 0.0000-0.0909 0.2727 (  4222 PWs)   bands (ev):

   -30.1631 -13.6365 -13.6234 -13.6188   0.2578   5.5416   5.8044   6.3588
     6.6112

          k = 0.0000-0.1818 0.3636 (  4239 PWs)   bands (ev):

   -30.1617 -13.6571 -13.6306 -13.6186   0.7526   4.7301   5.5159   6.4032
     7.0075

          k = 0.0000-0.2727 0.4545 (  4247 PWs)   bands (ev):

   -30.1605 -13.6759 -13.6373 -13.6183   1.4047   3.8838   5.2891   6.4116
     7.5137

          k = 0.0000-0.3636 0.5455 (  4249 PWs)   bands (ev):

   -30.1598 -13.6870 -13.6412 -13.6182   2.1692   3.0327   5.1675   6.3364
     7.5526

          k =-0.0909-0.0909 0.3636 (  4239 PWs)   bands (ev):

   -30.1619 -13.6504 -13.6296 -13.6223   0.6561   5.0514   5.4870   6.2361
     6.8665

          k =-0.0909-0.1818 0.4545 (  4250 PWs)   bands (ev):

   -30.1607 -13.6672 -13.6377 -13.6230   1.2254   4.3447   5.1721   6.2998
     7.1843

          k =-0.0909-0.2727 0.5455 (  4243 PWs)   bands (ev):

   -30.1597 -13.6801 -13.6442 -13.6229   1.9311   3.5530   4.9662   6.2598
     7.3012

          k =-0.0909 0.6364-0.3636 (  4241 PWs)   bands (ev):

   -30.1593 -13.6849 -13.6467 -13.6228   2.6783   2.7777   4.8932   6.1980
     7.4183

          k =-0.1818 0.1818 0.1818 (  4240 PWs)   bands (ev):

   -30.1629 -13.6469 -13.6183 -13.6183   0.3587   5.3661   5.3661   6.7256
     7.1434

          k =-0.1818-0.1818 0.5455 (  4235 PWs)   bands (ev):

   -30.1597 -13.6748 -13.6479 -13.6250   1.8494   3.9352   4.6138   6.4840
     6.9773

          k =-0.1818 0.7273-0.3636 (  4232 PWs)   bands (ev):

   -30.1591 -13.6778 -13.6560 -13.6255   2.5799   3.3355   4.2712   6.5321
     7.0891

          k =-0.2727 0.2727 0.1818 (  4239 PWs)   bands (ev):

   -30.1617 -13.6631 -13.6265 -13.6188   0.8500   4.6806   5.0341   6.9236
     7.2132

          k =-0.2727 0.7273-0.2727 (  4241 PWs)   bands (ev):

   -30.1589 -13.6689 -13.6689 -13.6261   3.1796   3.1796   3.7143   6.9515
     7.1660

          k =-0.3636 0.3636 0.1818 (  4241 PWs)   bands (ev):

   -30.1606 -13.6759 -13.6358 -13.6192   1.4988   3.9110   4.8040   6.8411
     7.4226

          k =-0.3636 0.2727 0.2727 (  4242 PWs)   bands (ev):

   -30.1608 -13.6725 -13.6326 -13.6233   1.4118   4.2631   4.5532   6.7297
     7.3324

          k = 0.5455-0.5455 0.1818 (  4227 PWs)   bands (ev):

   -30.1600 -13.6829 -13.6419 -13.6195   2.2601   3.0969   4.6870   6.6197
     7.6523

          k = 0.5455-0.6364 0.2727 (  4244 PWs)   bands (ev):

   -30.1601 -13.6760 -13.6428 -13.6250   2.1082   3.6375   4.3026   6.3393
     7.4687

          k = 0.4545-0.5455 0.2727 (  4235 PWs)   bands (ev):

   -30.1598 -13.6761 -13.6480 -13.6254   2.8724   2.8879   4.2304   6.1663
     7.5738

          k = 0.4545-0.6364 0.3636 (  4234 PWs)   bands (ev):

   -30.1597 -13.6690 -13.6543 -13.6281   2.8082   3.4073   3.7654   5.9745
     7.5555

          k = 0.0000 0.0000 0.3636 (  4241 PWs)   bands (ev):

   -30.1621 -13.6399 -13.6291 -13.6291   0.5583   5.5272   5.6954   5.6954
     6.7415

          k = 0.0000-0.0909 0.4545 (  4248 PWs)   bands (ev):

   -30.1608 -13.6556 -13.6366 -13.6312   1.0398   4.7930   5.5130   5.7574
     7.0660

          k = 0.0000-0.1818 0.5455 (  4247 PWs)   bands (ev):

   -30.1597 -13.6725 -13.6434 -13.6306   1.6735   4.0180   5.3446   5.7437
     7.1237

          k = 0.0000-0.2727 0.6364 (  4244 PWs)   bands (ev):

   -30.1590 -13.6826 -13.6475 -13.6301   2.4180   3.2193   5.2487   5.6216
     7.1667

          k =-0.0909-0.0909 0.5455 (  4255 PWs)   bands (ev):

   -30.1597 -13.6661 -13.6453 -13.6348   1.5862   4.3338   5.1599   5.8394
     6.9181

          k =-0.0909-0.1818 0.6364 (  4245 PWs)   bands (ev):

   -30.1588 -13.6758 -13.6528 -13.6349   2.2589   3.7296   4.8167   5.9238
     6.8018

          k =-0.0909 0.7273-0.2727 (  4245 PWs)   bands (ev):

   -30.1584 -13.6795 -13.6556 -13.6347   2.9596   3.0483   4.6895   5.9020
     6.9203

          k =-0.1818 0.8182-0.2727 (  4245 PWs)   bands (ev):

   -30.1582 -13.6741 -13.6639 -13.6355   2.9165   3.4622   4.1854   6.3120
     6.6332

          k = 0.6364-0.6364 0.3636 (  4237 PWs)   bands (ev):

   -30.1602 -13.6737 -13.6342 -13.6342   2.0276   4.0403   4.0403   6.1008
     7.6292

          k = 0.5455-0.5455 0.3636 (  4225 PWs)   bands (ev):

   -30.1598 -13.6687 -13.6464 -13.6351   2.7364   3.4463   3.9302   5.6275
     7.6856

          k = 0.4545-0.5455 0.4545 (  4240 PWs)   bands (ev):

   -30.1597 -13.6562 -13.6562 -13.6402   3.3029   3.3029   3.5914   5.3029
     7.7593

          k = 0.0000 0.0000 0.5455 (  4265 PWs)   bands (ev):

   -30.1597 -13.6570 -13.6443 -13.6443   1.4971   4.6121   5.4690   5.4690
     6.7829

          k = 0.0000-0.0909 0.6364 (  4265 PWs)   bands (ev):

   -30.1586 -13.6681 -13.6514 -13.6464   2.0919   4.1104   5.3780   5.4008
     6.4288

          k = 0.0000-0.1818 0.7273 (  4252 PWs)   bands (ev):

   -30.1579 -13.6768 -13.6556 -13.6455   2.7713   3.4905   5.1505   5.3527
     6.5699

          k =-0.0909-0.0909 0.7273 (  4257 PWs)   bands (ev):

   -30.1577 -13.6721 -13.6602 -13.6486   2.6934   3.7871   4.8648   5.7157
     6.2294

          k =-0.0909 0.8182-0.1818 (  4264 PWs)   bands (ev):

   -30.1574 -13.6737 -13.6643 -13.6484   3.2176   3.4091   4.6063   5.8135
     6.2985

          k = 0.0000 0.0000 0.7273 (  4284 PWs)   bands (ev):

   -30.1575 -13.6661 -13.6588 -13.6588   2.6143   3.9693   5.4339   5.4339
     5.7869

          k = 0.0000-0.0909 0.8182 (  4268 PWs)   bands (ev):

   -30.1569 -13.6714 -13.6631 -13.6596   3.1567   3.6666   5.1349   5.4448
     5.9381

          k =-0.0909 0.9091-0.0909 (  4262 PWs)   bands (ev):

   -30.1566 -13.6692 -13.6692 -13.6606   3.4978   3.4978   4.9782   5.7418
     5.7419

          k = 0.0000 0.0000 0.9091 (  4252 PWs)   bands (ev):

   -30.1563 -13.6686 -13.6676 -13.6676   3.4786   3.6410   5.4825   5.4972
     5.4972

     the Fermi energy is     1.9694 ev

!    total energy              =     -58.77404863 Ry
     Harris-Foulkes estimate   =     -58.77404863 Ry
     estimated scf accuracy    <          1.3E-09 Ry

     The total energy is the sum of the following terms:

     one-electron contribution =     -36.58794269 Ry
     hartree contribution      =      18.88051963 Ry
     xc contribution           =     -11.16984541 Ry
     ewald contribution        =     -29.89633970 Ry
     smearing contrib. (-TS)   =      -0.00044046 Ry

     convergence has been achieved in   5 iterations

     Forces acting on atoms (cartesian axes, Ry/au):

     atom    1 type  1   force =     0.00000000    0.00000000    0.00000000

     Total force =     0.000000     Total SCF correction =     0.000000


     Computing stress (Cartesian axis) and pressure

          total   stress  (Ry/bohr**3)                   (kbar)     P=    1.39
   0.00000946  -0.00000000   0.00000000          1.39     -0.00      0.00
  -0.00000000   0.00000946  -0.00000000         -0.00      1.39     -0.00
   0.00000000  -0.00000000   0.00000946          0.00     -0.00      1.39


     Writing output data file K.save/

     init_run     :      0.99s CPU      1.03s WALL (       1 calls)
     electrons    :     13.44s CPU     13.95s WALL (       1 calls)
     forces       :      0.19s CPU      0.19s WALL (       1 calls)
     stress       :      0.79s CPU      0.80s WALL (       1 calls)

     Called by init_run:
     wfcinit      :      0.67s CPU      0.70s WALL (       1 calls)
     potinit      :      0.04s CPU      0.04s WALL (       1 calls)
     hinit0       :      0.21s CPU      0.21s WALL (       1 calls)

     Called by electrons:
     c_bands      :     11.27s CPU     11.70s WALL (       6 calls)
     sum_band     :      1.90s CPU      1.97s WALL (       6 calls)
     v_of_rho     :      0.12s CPU      0.13s WALL (       6 calls)
     newd         :      0.19s CPU      0.19s WALL (       6 calls)
     mix_rho      :      0.01s CPU      0.01s WALL (       6 calls)

     Called by c_bands:
     init_us_2    :      0.43s CPU      0.44s WALL (     840 calls)
     cegterg      :     10.75s CPU     11.18s WALL (     336 calls)

     Called by sum_band:
     sum_band:bec :      0.00s CPU      0.00s WALL (     336 calls)
     addusdens    :      0.19s CPU      0.19s WALL (       6 calls)

     Called by *egterg:
     h_psi        :      8.96s CPU      9.38s WALL (    1599 calls)
     s_psi        :      0.28s CPU      0.29s WALL (    1599 calls)
     g_psi        :      0.03s CPU      0.03s WALL (    1207 calls)
     cdiaghg      :      0.38s CPU      0.38s WALL (    1487 calls)

     Called by h_psi:
     h_psi:pot    :      8.90s CPU      9.33s WALL (    1599 calls)
     h_psi:calbec :      0.59s CPU      0.61s WALL (    1599 calls)
     vloc_psi     :      7.98s CPU      8.37s WALL (    1599 calls)
     add_vuspsi   :      0.32s CPU      0.33s WALL (    1599 calls)

     General routines
     calbec       :      0.85s CPU      0.88s WALL (    2215 calls)
     fft          :      0.09s CPU      0.09s WALL (      93 calls)
     ffts         :      0.00s CPU      0.00s WALL (       6 calls)
     fftw         :      8.67s CPU      9.09s WALL (   20684 calls)

     Parallel routines
     fft_scatt_xy :      0.65s CPU      0.68s WALL (   20783 calls)
     fft_scatt_yz :      2.36s CPU      2.48s WALL (   20783 calls)

     PWSCF        :    16.35s CPU        17.03s WALL


   This run was terminated on:   0:49:26   8Apr2024            

=------------------------------------------------------------------------------=
   JOB DONE.
=------------------------------------------------------------------------------=
