
     Program PWSCF v.6.3MaX starts on  8Apr2024 at  1: 0: 8 

     This program is part of the open-source Quantum ESPRESSO suite
     for quantum simulation of materials; please cite
         "P. Giannozzi et al., J. Phys.:Condens. Matter 21 395502 (2009);
         "P. Giannozzi et al., J. Phys.:Condens. Matter 29 465901 (2017);
          URL http://www.quantum-espresso.org", 
     in publications or presentations arising from this work. More details at
     http://www.quantum-espresso.org/quote

     Parallel version (MPI), running on     5 processors

     MPI processes distributed on     1 nodes
     R & G space division:  proc/nbgrp/npool/nimage =       5
     Waiting for input...
     Reading input from standard input

     Current dimensions of program PWSCF are:
     Max number of different atomic species (ntypx) = 10
     Max number of k-points (npk) =  40000
     Max angular momentum in pseudopotentials (lmaxx) =  3
               file K.pbe-spn-rrkjus_psl.1.0.0.UPF: wavefunction(s)  3S renormalized

     Subspace diagonalization in iterative solution of the eigenvalue problem:
     a serial algorithm will be used


     Parallelization info
     --------------------
     sticks:   dense  smooth     PW     G-vecs:    dense   smooth      PW
     Min         330     330     94                 8429     8429    1305
     Max         331     331     95                 8430     8430    1307
     Sum        1653    1653    471                42147    42147    6531



     bravais-lattice index     =            3
     lattice parameter (alat)  =       9.8600  a.u.
     unit-cell volume          =     479.2926 (a.u.)^3
     number of atoms/cell      =            1
     number of atomic types    =            1
     number of electrons       =         9.00
     number of Kohn-Sham states=            9
     kinetic-energy cutoff     =      75.0000  Ry
     charge density cutoff     =     300.0000  Ry
     convergence threshold     =      1.0E-08
     mixing beta               =       0.7000
     number of iterations used =            8  plain     mixing
     Exchange-correlation      = PBE ( 1  4  3  4 0 0)

     celldm(1)=   9.860000  celldm(2)=   0.000000  celldm(3)=   0.000000
     celldm(4)=   0.000000  celldm(5)=   0.000000  celldm(6)=   0.000000

     crystal axes: (cart. coord. in units of alat)
               a(1) = (   0.500000   0.500000   0.500000 )  
               a(2) = (  -0.500000   0.500000   0.500000 )  
               a(3) = (  -0.500000  -0.500000   0.500000 )  

     reciprocal axes: (cart. coord. in units 2 pi/alat)
               b(1) = (  1.000000  0.000000  1.000000 )  
               b(2) = ( -1.000000  1.000000  0.000000 )  
               b(3) = (  0.000000 -1.000000  1.000000 )  


     PseudoPot. # 1 for K  read from file:
     /home/lorenzo/pseudos/K/K.pbe-spn-rrkjus_psl.1.0.0.UPF
     MD5 check sum: 897b700350bb708b0563e904352feb48
     Pseudo is Ultrasoft + core correction, Zval =  9.0
     Generated using "atomic" code by A. Dal Corso v.6.2.2
     Using radial grid of 1165 points,  6 beta functions with: 
                l(1) =   0
                l(2) =   0
                l(3) =   1
                l(4) =   1
                l(5) =   2
                l(6) =   2
     Q(r) pseudized with 0 coefficients 


     atomic species   valence    mass     pseudopotential
        K              9.00    39.09830     K ( 1.00)

     48 Sym. Ops., with inversion, found



   Cartesian axes

     site n.     atom                  positions (alat units)
         1           K   tau(   1) = (   0.0000000   0.0000000   0.0000000  )

     number of k points=    47  gaussian smearing, width (Ry)=  0.0100
                       cart. coord. in units 2pi/alat
        k(    1) = (   0.0000000   0.0000000   0.0000000), wk =   0.0020000
        k(    2) = (   0.0000000  -0.1000000   0.1000000), wk =   0.0240000
        k(    3) = (   0.0000000  -0.2000000   0.2000000), wk =   0.0240000
        k(    4) = (   0.0000000  -0.3000000   0.3000000), wk =   0.0240000
        k(    5) = (   0.0000000  -0.4000000   0.4000000), wk =   0.0240000
        k(    6) = (   0.0000000   0.5000000  -0.5000000), wk =   0.0120000
        k(    7) = (  -0.1000000  -0.1000000   0.2000000), wk =   0.0480000
        k(    8) = (  -0.1000000  -0.2000000   0.3000000), wk =   0.0960000
        k(    9) = (  -0.1000000  -0.3000000   0.4000000), wk =   0.0960000
        k(   10) = (  -0.1000000   0.6000000  -0.5000000), wk =   0.0960000
        k(   11) = (  -0.2000000  -0.2000000   0.4000000), wk =   0.0480000
        k(   12) = (  -0.2000000   0.7000000  -0.5000000), wk =   0.0960000
        k(   13) = (  -0.2000000   0.6000000  -0.4000000), wk =   0.0480000
        k(   14) = (  -0.3000000   0.7000000  -0.4000000), wk =   0.0480000
        k(   15) = (   0.0000000   0.0000000   0.2000000), wk =   0.0120000
        k(   16) = (   0.0000000  -0.1000000   0.3000000), wk =   0.0480000
        k(   17) = (   0.0000000  -0.2000000   0.4000000), wk =   0.0480000
        k(   18) = (   0.0000000  -0.3000000   0.5000000), wk =   0.0480000
        k(   19) = (   0.0000000   0.6000000  -0.4000000), wk =   0.0240000
        k(   20) = (  -0.1000000  -0.1000000   0.4000000), wk =   0.0480000
        k(   21) = (  -0.1000000  -0.2000000   0.5000000), wk =   0.0960000
        k(   22) = (  -0.1000000   0.7000000  -0.4000000), wk =   0.0960000
        k(   23) = (  -0.2000000   0.2000000   0.2000000), wk =   0.0160000
        k(   24) = (  -0.2000000   0.8000000  -0.4000000), wk =   0.0480000
        k(   25) = (  -0.2000000   0.7000000  -0.3000000), wk =   0.0480000
        k(   26) = (  -0.3000000   0.3000000   0.2000000), wk =   0.0480000
        k(   27) = (   0.6000000  -0.6000000   0.2000000), wk =   0.0480000
        k(   28) = (   0.6000000  -0.7000000   0.3000000), wk =   0.0480000
        k(   29) = (   0.5000000  -0.5000000   0.2000000), wk =   0.0240000
        k(   30) = (   0.5000000  -0.6000000   0.3000000), wk =   0.0960000
        k(   31) = (   0.4000000  -0.6000000   0.4000000), wk =   0.0160000
        k(   32) = (   0.0000000   0.0000000   0.4000000), wk =   0.0120000
        k(   33) = (   0.0000000  -0.1000000   0.5000000), wk =   0.0480000
        k(   34) = (   0.0000000  -0.2000000   0.6000000), wk =   0.0480000
        k(   35) = (   0.0000000   0.7000000  -0.3000000), wk =   0.0240000
        k(   36) = (  -0.1000000  -0.1000000   0.6000000), wk =   0.0480000
        k(   37) = (  -0.1000000   0.8000000  -0.3000000), wk =   0.0960000
        k(   38) = (  -0.2000000   0.8000000  -0.2000000), wk =   0.0160000
        k(   39) = (   0.6000000  -0.6000000   0.4000000), wk =   0.0160000
        k(   40) = (   0.5000000  -0.5000000   0.4000000), wk =   0.0240000
        k(   41) = (   0.0000000   0.0000000   0.6000000), wk =   0.0120000
        k(   42) = (   0.0000000  -0.1000000   0.7000000), wk =   0.0480000
        k(   43) = (   0.0000000   0.8000000  -0.2000000), wk =   0.0240000
        k(   44) = (  -0.1000000   0.9000000  -0.2000000), wk =   0.0480000
        k(   45) = (   0.0000000   0.0000000   0.8000000), wk =   0.0120000
        k(   46) = (   0.0000000   0.9000000  -0.1000000), wk =   0.0240000
        k(   47) = (   0.0000000   0.0000000  -1.0000000), wk =   0.0020000

     Dense  grid:    42147 G-vectors     FFT dimensions: (  48,  48,  48)

     Estimated max dynamical RAM per process >      40.34 MB

     Estimated total dynamical RAM >     201.70 MB

     Check: negative/imaginary core charge=   -0.000002    0.000000

     Initial potential from superposition of free atoms

     starting charge    8.98117, renormalised to    9.00000
     Starting wfcs are    8 randomized atomic wfcs +    1 random wfcs

     total cpu time spent up to now is        1.9 secs

     Self-consistent Calculation

     iteration #  1     ecut=    75.00 Ry     beta= 0.70
     Davidson diagonalization with overlap
     ethr =  1.00E-02,  avg # of iterations =  6.6

     Threshold (ethr) on eigenvalues was too large:
     Diagonalizing with lowered threshold

     Davidson diagonalization with overlap
     ethr =  1.43E-05,  avg # of iterations =  6.5

     total cpu time spent up to now is        9.0 secs

     total energy              =     -58.77363140 Ry
     Harris-Foulkes estimate   =     -58.77416045 Ry
     estimated scf accuracy    <       0.00127474 Ry

     iteration #  2     ecut=    75.00 Ry     beta= 0.70
     Davidson diagonalization with overlap
     ethr =  1.42E-05,  avg # of iterations =  2.1

     total cpu time spent up to now is       12.7 secs

     total energy              =     -58.77386655 Ry
     Harris-Foulkes estimate   =     -58.77386889 Ry
     estimated scf accuracy    <       0.00010217 Ry

     iteration #  3     ecut=    75.00 Ry     beta= 0.70
     Davidson diagonalization with overlap
     ethr =  1.14E-06,  avg # of iterations =  2.4

     total cpu time spent up to now is       15.6 secs

     total energy              =     -58.77387668 Ry
     Harris-Foulkes estimate   =     -58.77387401 Ry
     estimated scf accuracy    <       0.00000689 Ry

     iteration #  4     ecut=    75.00 Ry     beta= 0.70
     Davidson diagonalization with overlap
     ethr =  7.66E-08,  avg # of iterations =  1.8

     total cpu time spent up to now is       17.9 secs

     total energy              =     -58.77387727 Ry
     Harris-Foulkes estimate   =     -58.77387726 Ry
     estimated scf accuracy    <       0.00000005 Ry

     iteration #  5     ecut=    75.00 Ry     beta= 0.70
     Davidson diagonalization with overlap
     ethr =  5.59E-10,  avg # of iterations =  2.5

     total cpu time spent up to now is       20.7 secs

     End of self-consistent calculation

          k = 0.0000 0.0000 0.0000 (  5281 PWs)   bands (ev):

   -30.1652 -13.6138 -13.6138 -13.6138  -0.2617   6.2634   6.2634   6.2634
     7.1816

          k = 0.0000-0.1000 0.1000 (  5289 PWs)   bands (ev):

   -30.1647 -13.6212 -13.6162 -13.6138  -0.1340   6.0659   6.1036   6.3656
     6.9875

          k = 0.0000-0.2000 0.2000 (  5249 PWs)   bands (ev):

   -30.1635 -13.6405 -13.6226 -13.6137   0.2406   5.3540   5.7603   6.6676
     6.9563

          k = 0.0000-0.3000 0.3000 (  5267 PWs)   bands (ev):

   -30.1620 -13.6641 -13.6306 -13.6137   0.8364   4.4357   5.4257   7.0371
     7.1561

          k = 0.0000-0.4000 0.4000 (  5252 PWs)   bands (ev):

   -30.1608 -13.6830 -13.6370 -13.6137   1.6095   3.4832   5.1992   6.9628
     7.4148

          k = 0.0000 0.5000-0.5000 (  5284 PWs)   bands (ev):

   -30.1603 -13.6901 -13.6394 -13.6137   2.3889   2.6484   5.1202   6.8713
     7.9899

          k =-0.1000-0.1000 0.2000 (  5269 PWs)   bands (ev):

   -30.1639 -13.6345 -13.6189 -13.6155   0.1173   5.6603   5.7872   6.5548
     6.8157

          k =-0.1000-0.2000 0.3000 (  5245 PWs)   bands (ev):

   -30.1625 -13.6547 -13.6266 -13.6163   0.6031   4.8941   5.4034   6.8223
     6.9032

          k =-0.1000-0.3000 0.4000 (  5249 PWs)   bands (ev):

   -30.1611 -13.6742 -13.6352 -13.6164   1.2899   3.9969   5.1192   6.8356
     7.3261

          k =-0.1000 0.6000-0.5000 (  5252 PWs)   bands (ev):

   -30.1603 -13.6861 -13.6407 -13.6165   2.1222   3.0684   4.9685   6.7068
     7.6022

          k =-0.2000-0.2000 0.4000 (  5257 PWs)   bands (ev):

   -30.1613 -13.6688 -13.6345 -13.6196   1.1815   4.3785   4.8736   6.8807
     7.0110

          k =-0.2000 0.7000-0.5000 (  5257 PWs)   bands (ev):

   -30.1603 -13.6779 -13.6446 -13.6209   1.9347   3.6621   4.5220   6.7227
     7.1694

          k =-0.2000 0.6000-0.4000 (  5252 PWs)   bands (ev):

   -30.1599 -13.6807 -13.6493 -13.6212   2.7668   2.8269   4.4138   6.5722
     7.4659

          k =-0.3000 0.7000-0.4000 (  5252 PWs)   bands (ev):

   -30.1598 -13.6731 -13.6581 -13.6230   2.7106   3.3905   3.8252   6.6166
     7.2122

          k = 0.0000 0.0000 0.2000 (  5277 PWs)   bands (ev):

   -30.1642 -13.6232 -13.6187 -13.6187  -0.0076   6.0189   6.0189   6.4125
     6.4723

          k = 0.0000-0.1000 0.3000 (  5252 PWs)   bands (ev):

   -30.1630 -13.6404 -13.6252 -13.6198   0.3632   5.3922   5.7406   6.2892
     6.6820

          k = 0.0000-0.2000 0.4000 (  5248 PWs)   bands (ev):

   -30.1616 -13.6630 -13.6333 -13.6195   0.9528   4.4854   5.4405   6.3453
     7.1560

          k = 0.0000-0.3000 0.5000 (  5255 PWs)   bands (ev):

   -30.1604 -13.6812 -13.6397 -13.6192   1.7187   3.5534   5.2315   6.3092
     7.4936

          k = 0.0000 0.6000-0.4000 (  5264 PWs)   bands (ev):

   -30.1599 -13.6881 -13.6422 -13.6190   2.5183   2.7038   5.1579   6.2427
     7.5491

          k =-0.1000-0.1000 0.4000 (  5255 PWs)   bands (ev):

   -30.1617 -13.6555 -13.6327 -13.6237   0.8385   4.8517   5.3777   6.1969
     6.9741

          k =-0.1000-0.2000 0.5000 (  5257 PWs)   bands (ev):

   -30.1604 -13.6721 -13.6417 -13.6243   1.5105   4.0882   5.0307   6.2693
     7.1828

          k =-0.1000 0.7000-0.4000 (  5262 PWs)   bands (ev):

   -30.1596 -13.6825 -13.6476 -13.6242   2.3273   3.2193   4.8425   6.1987
     7.3024

          k =-0.2000 0.2000 0.2000 (  5255 PWs)   bands (ev):

   -30.1628 -13.6518 -13.6194 -13.6194   0.4840   5.2169   5.2169   6.7909
     7.1848

          k =-0.2000 0.8000-0.4000 (  5273 PWs)   bands (ev):

   -30.1595 -13.6763 -13.6538 -13.6262   2.2344   3.7016   4.3533   6.5426
     6.9065

          k =-0.2000 0.7000-0.3000 (  5261 PWs)   bands (ev):

   -30.1592 -13.6759 -13.6608 -13.6265   2.9985   3.0917   4.0621   6.6004
     7.1000

          k =-0.3000 0.3000 0.2000 (  5256 PWs)   bands (ev):

   -30.1616 -13.6680 -13.6291 -13.6200   1.0691   4.4577   4.8772   6.9107
     7.2858

          k = 0.6000-0.6000 0.2000 (  5243 PWs)   bands (ev):

   -30.1606 -13.6789 -13.6391 -13.6205   1.8303   3.6087   4.6681   6.6695
     7.5158

          k = 0.6000-0.7000 0.3000 (  5255 PWs)   bands (ev):

   -30.1607 -13.6746 -13.6367 -13.6253   1.7304   4.0407   4.3544   6.4951
     7.4153

          k = 0.5000-0.5000 0.2000 (  5250 PWs)   bands (ev):

   -30.1602 -13.6825 -13.6434 -13.6207   2.6441   2.7695   4.5978   6.5015
     7.6572

          k = 0.5000-0.6000 0.3000 (  5241 PWs)   bands (ev):

   -30.1601 -13.6740 -13.6476 -13.6271   2.5293   3.3605   4.1195   6.0873
     7.5506

          k = 0.4000-0.6000 0.4000 (  5246 PWs)   bands (ev):

   -30.1600 -13.6616 -13.6616 -13.6295   3.2038   3.2038   3.5798   5.8400
     7.6433

          k = 0.0000 0.0000 0.4000 (  5257 PWs)   bands (ev):

   -30.1619 -13.6438 -13.6320 -13.6320   0.7222   5.3262   5.6345   5.6345
     7.6176

          k = 0.0000-0.1000 0.5000 (  5257 PWs)   bands (ev):

   -30.1605 -13.6606 -13.6403 -13.6342   1.2921   4.5696   5.4582   5.6725
     7.1676

          k = 0.0000-0.2000 0.6000 (  5265 PWs)   bands (ev):

   -30.1594 -13.6766 -13.6470 -13.6333   2.0300   3.7396   5.3115   5.5814
     6.9962

          k = 0.0000 0.7000-0.3000 (  5262 PWs)   bands (ev):

   -30.1590 -13.6828 -13.6496 -13.6329   2.8685   2.8779   5.2567   5.4762
     7.0899

          k =-0.1000-0.1000 0.6000 (  5266 PWs)   bands (ev):

   -30.1593 -13.6700 -13.6503 -13.6377   1.9285   4.1082   5.0070   5.8338
     6.6957

          k =-0.1000 0.8000-0.3000 (  5262 PWs)   bands (ev):

   -30.1586 -13.6768 -13.6576 -13.6376   2.6870   3.4794   4.6294   5.9287
     6.7174

          k =-0.2000 0.8000-0.2000 (  5261 PWs)   bands (ev):

   -30.1583 -13.6699 -13.6699 -13.6380   3.2758   3.2758   4.0856   6.4235
     6.4235

          k = 0.6000-0.6000 0.4000 (  5228 PWs)   bands (ev):

   -30.1602 -13.6706 -13.6386 -13.6386   2.4375   3.8410   3.8410   5.7292
     7.6987

          k = 0.5000-0.5000 0.4000 (  5242 PWs)   bands (ev):

   -30.1601 -13.6629 -13.6499 -13.6393   3.1420   3.2574   3.7752   5.3793
     7.7317

          k = 0.0000 0.0000 0.6000 (  5242 PWs)   bands (ev):

   -30.1592 -13.6607 -13.6490 -13.6490   1.8240   4.3874   5.4395   5.4395
     6.4312

          k = 0.0000-0.1000 0.7000 (  5257 PWs)   bands (ev):

   -30.1582 -13.6709 -13.6560 -13.6506   2.4954   3.8956   5.2476   5.3983
     6.2448

          k = 0.0000 0.8000-0.2000 (  5272 PWs)   bands (ev):

   -30.1578 -13.6762 -13.6586 -13.6499   3.1308   3.3368   5.0403   5.3780
     6.4277

          k =-0.1000 0.9000-0.2000 (  5270 PWs)   bands (ev):

   -30.1575 -13.6720 -13.6650 -13.6525   3.1128   3.6091   4.7439   5.7667
     6.0903

          k = 0.0000 0.0000 0.8000 (  5274 PWs)   bands (ev):

   -30.1572 -13.6676 -13.6632 -13.6632   3.0310   3.7986   5.4560   5.4560
     5.5695

          k = 0.0000 0.9000-0.1000 (  5254 PWs)   bands (ev):

   -30.1569 -13.6708 -13.6660 -13.6636   3.4355   3.5805   5.1899   5.4746
     5.7970

          k = 0.0000 0.0000-1.0000 (  5162 PWs)   bands (ev):

   -30.1565 -13.6687 -13.6687 -13.6687   3.5993   3.5993   5.5109   5.5109
     5.5109

     the Fermi energy is     1.9432 ev

!    total energy              =     -58.77387728 Ry
     Harris-Foulkes estimate   =     -58.77387728 Ry
     estimated scf accuracy    <          1.7E-09 Ry

     The total energy is the sum of the following terms:

     one-electron contribution =     -36.58756353 Ry
     hartree contribution      =      18.88054374 Ry
     xc contribution           =     -11.16987021 Ry
     ewald contribution        =     -29.89633970 Ry
     smearing contrib. (-TS)   =      -0.00064758 Ry

     convergence has been achieved in   5 iterations

     Forces acting on atoms (cartesian axes, Ry/au):

     atom    1 type  1   force =     0.00000000    0.00000000    0.00000000

     Total force =     0.000000     Total SCF correction =     0.000000


     Computing stress (Cartesian axis) and pressure

          total   stress  (Ry/bohr**3)                   (kbar)     P=    1.40
   0.00000954  -0.00000000  -0.00000000          1.40     -0.00     -0.00
  -0.00000000   0.00000954  -0.00000000         -0.00      1.40     -0.00
  -0.00000000  -0.00000000   0.00000954         -0.00     -0.00      1.40


     Writing output data file K.save/

     init_run     :      1.00s CPU      1.05s WALL (       1 calls)
     electrons    :     18.20s CPU     18.82s WALL (       1 calls)
     forces       :      0.41s CPU      0.41s WALL (       1 calls)
     stress       :      1.20s CPU      1.20s WALL (       1 calls)

     Called by init_run:
     wfcinit      :      0.62s CPU      0.66s WALL (       1 calls)
     potinit      :      0.04s CPU      0.04s WALL (       1 calls)
     hinit0       :      0.24s CPU      0.24s WALL (       1 calls)

     Called by electrons:
     c_bands      :     14.50s CPU     15.02s WALL (       6 calls)
     sum_band     :      3.27s CPU      3.36s WALL (       6 calls)
     v_of_rho     :      0.17s CPU      0.17s WALL (       6 calls)
     newd         :      0.29s CPU      0.30s WALL (       6 calls)
     mix_rho      :      0.02s CPU      0.02s WALL (       6 calls)

     Called by c_bands:
     init_us_2    :      0.51s CPU      0.52s WALL (     705 calls)
     cegterg      :     13.81s CPU     14.32s WALL (     282 calls)

     Called by sum_band:
     sum_band:bec :      0.01s CPU      0.01s WALL (     282 calls)
     addusdens    :      0.27s CPU      0.27s WALL (       6 calls)

     Called by *egterg:
     h_psi        :     11.31s CPU     11.81s WALL (    1363 calls)
     s_psi        :      0.32s CPU      0.32s WALL (    1363 calls)
     g_psi        :      0.03s CPU      0.03s WALL (    1034 calls)
     cdiaghg      :      0.41s CPU      0.42s WALL (    1269 calls)

     Called by h_psi:
     h_psi:pot    :     11.25s CPU     11.75s WALL (    1363 calls)
     h_psi:calbec :      0.80s CPU      0.83s WALL (    1363 calls)
     vloc_psi     :     10.08s CPU     10.54s WALL (    1363 calls)
     add_vuspsi   :      0.35s CPU      0.36s WALL (    1363 calls)

     General routines
     calbec       :      1.43s CPU      1.47s WALL (    1880 calls)
     fft          :      0.17s CPU      0.18s WALL (      93 calls)
     ffts         :      0.01s CPU      0.01s WALL (       6 calls)
     fftw         :     11.48s CPU     11.98s WALL (   17418 calls)

     Parallel routines
     fft_scatt_xy :      0.76s CPU      0.80s WALL (   17517 calls)
     fft_scatt_yz :      4.85s CPU      5.05s WALL (   17517 calls)

     PWSCF        :    21.86s CPU        22.74s WALL


   This run was terminated on:   1: 0:31   8Apr2024            

=------------------------------------------------------------------------------=
   JOB DONE.
=------------------------------------------------------------------------------=
