
     Program PWSCF v.6.3MaX starts on  8Apr2024 at  1:39:32 

     This program is part of the open-source Quantum ESPRESSO suite
     for quantum simulation of materials; please cite
         "P. Giannozzi et al., J. Phys.:Condens. Matter 21 395502 (2009);
         "P. Giannozzi et al., J. Phys.:Condens. Matter 29 465901 (2017);
          URL http://www.quantum-espresso.org", 
     in publications or presentations arising from this work. More details at
     http://www.quantum-espresso.org/quote

     Parallel version (MPI), running on     5 processors

     MPI processes distributed on     1 nodes
     R & G space division:  proc/nbgrp/npool/nimage =       5
     Waiting for input...
     Reading input from standard input

     Current dimensions of program PWSCF are:
     Max number of different atomic species (ntypx) = 10
     Max number of k-points (npk) =  40000
     Max angular momentum in pseudopotentials (lmaxx) =  3
               file K.pz-spn-kjpaw_psl.1.0.0.UPF: wavefunction(s)  3S renormalized

     Subspace diagonalization in iterative solution of the eigenvalue problem:
     a serial algorithm will be used


     Parallelization info
     --------------------
     sticks:   dense  smooth     PW     G-vecs:    dense   smooth      PW
     Min         417     417    114                12009    12009    1755
     Max         417     417    115                12010    12010    1758
     Sum        2085    2085    571                60047    60047    8781



     bravais-lattice index     =            3
     lattice parameter (alat)  =       9.8600  a.u.
     unit-cell volume          =     479.2926 (a.u.)^3
     number of atoms/cell      =            1
     number of atomic types    =            1
     number of electrons       =         9.00
     number of Kohn-Sham states=            9
     kinetic-energy cutoff     =      95.0000  Ry
     charge density cutoff     =     380.0000  Ry
     convergence threshold     =      1.0E-08
     mixing beta               =       0.7000
     number of iterations used =            8  plain     mixing
     Exchange-correlation      = SLA PZ NOGX NOGC ( 1  1  0  0 0 0)

     celldm(1)=   9.860000  celldm(2)=   0.000000  celldm(3)=   0.000000
     celldm(4)=   0.000000  celldm(5)=   0.000000  celldm(6)=   0.000000

     crystal axes: (cart. coord. in units of alat)
               a(1) = (   0.500000   0.500000   0.500000 )  
               a(2) = (  -0.500000   0.500000   0.500000 )  
               a(3) = (  -0.500000  -0.500000   0.500000 )  

     reciprocal axes: (cart. coord. in units 2 pi/alat)
               b(1) = (  1.000000  0.000000  1.000000 )  
               b(2) = ( -1.000000  1.000000  0.000000 )  
               b(3) = (  0.000000 -1.000000  1.000000 )  


     PseudoPot. # 1 for K  read from file:
     /home/lorenzo/pseudos/K/K.pz-spn-kjpaw_psl.1.0.0.UPF
     MD5 check sum: 59b94f4c1a6681f21e103574f2c5fc67
     Pseudo is Projector augmented-wave + core cor, Zval =  9.0
     Generated using "atomic" code by A. Dal Corso v.6.2.2
     Shape of augmentation charge: PSQ
     Using radial grid of 1165 points,  6 beta functions with: 
                l(1) =   0
                l(2) =   0
                l(3) =   1
                l(4) =   1
                l(5) =   2
                l(6) =   2
     Q(r) pseudized with 0 coefficients 


     atomic species   valence    mass     pseudopotential
        K              9.00    39.09830     K ( 1.00)

     48 Sym. Ops., with inversion, found



   Cartesian axes

     site n.     atom                  positions (alat units)
         1           K   tau(   1) = (   0.0000000   0.0000000   0.0000000  )

     number of k points=    20  gaussian smearing, width (Ry)=  0.0100
                       cart. coord. in units 2pi/alat
        k(    1) = (   0.0000000   0.0000000   0.0000000), wk =   0.0058309
        k(    2) = (   0.0000000  -0.1428571   0.1428571), wk =   0.0699708
        k(    3) = (   0.0000000  -0.2857143   0.2857143), wk =   0.0699708
        k(    4) = (   0.0000000  -0.4285714   0.4285714), wk =   0.0699708
        k(    5) = (  -0.1428571  -0.1428571   0.2857143), wk =   0.1399417
        k(    6) = (  -0.1428571  -0.2857143   0.4285714), wk =   0.2798834
        k(    7) = (  -0.1428571   0.5714286  -0.4285714), wk =   0.1399417
        k(    8) = (  -0.2857143   0.7142857  -0.4285714), wk =   0.1399417
        k(    9) = (   0.0000000   0.0000000   0.2857143), wk =   0.0349854
        k(   10) = (   0.0000000  -0.1428571   0.4285714), wk =   0.1399417
        k(   11) = (   0.0000000  -0.2857143   0.5714286), wk =   0.1399417
        k(   12) = (  -0.1428571  -0.1428571   0.5714286), wk =   0.1399417
        k(   13) = (  -0.1428571   0.7142857  -0.2857143), wk =   0.1399417
        k(   14) = (  -0.2857143   0.2857143   0.2857143), wk =   0.0466472
        k(   15) = (   0.5714286  -0.5714286   0.2857143), wk =   0.1399417
        k(   16) = (   0.4285714  -0.5714286   0.4285714), wk =   0.0466472
        k(   17) = (   0.0000000   0.0000000   0.5714286), wk =   0.0349854
        k(   18) = (   0.0000000  -0.1428571   0.7142857), wk =   0.1399417
        k(   19) = (  -0.1428571   0.8571429  -0.1428571), wk =   0.0466472
        k(   20) = (   0.0000000   0.0000000   0.8571429), wk =   0.0349854

     Dense  grid:    60047 G-vectors     FFT dimensions: (  54,  54,  54)

     Estimated max dynamical RAM per process >      51.22 MB

     Estimated total dynamical RAM >     256.08 MB

     Check: negative/imaginary core charge=   -0.000001    0.000000

     Initial potential from superposition of free atoms

     starting charge    8.98437, renormalised to    9.00000
     Starting wfcs are    8 randomized atomic wfcs +    1 random wfcs
     Checking if some PAW data can be deallocated... 

     total cpu time spent up to now is        1.6 secs

     Self-consistent Calculation

     iteration #  1     ecut=    95.00 Ry     beta= 0.70
     Davidson diagonalization with overlap
     ethr =  1.00E-02,  avg # of iterations =  6.7

     Threshold (ethr) on eigenvalues was too large:
     Diagonalizing with lowered threshold

     Davidson diagonalization with overlap
     ethr =  1.22E-05,  avg # of iterations =  6.3

     total cpu time spent up to now is        5.4 secs

     total energy              =    -109.87201152 Ry
     Harris-Foulkes estimate   =    -109.87256777 Ry
     estimated scf accuracy    <       0.00110741 Ry

     iteration #  2     ecut=    95.00 Ry     beta= 0.70
     Davidson diagonalization with overlap
     ethr =  1.23E-05,  avg # of iterations =  2.6

     total cpu time spent up to now is        6.8 secs

     total energy              =    -109.87219827 Ry
     Harris-Foulkes estimate   =    -109.87222339 Ry
     estimated scf accuracy    <       0.00008953 Ry

     iteration #  3     ecut=    95.00 Ry     beta= 0.70
     Davidson diagonalization with overlap
     ethr =  9.95E-07,  avg # of iterations =  2.9

     total cpu time spent up to now is        8.1 secs

     total energy              =    -109.87220969 Ry
     Harris-Foulkes estimate   =    -109.87220942 Ry
     estimated scf accuracy    <       0.00000600 Ry

     iteration #  4     ecut=    95.00 Ry     beta= 0.70
     Davidson diagonalization with overlap
     ethr =  6.66E-08,  avg # of iterations =  1.6

     total cpu time spent up to now is        9.2 secs

     total energy              =    -109.87221038 Ry
     Harris-Foulkes estimate   =    -109.87221037 Ry
     estimated scf accuracy    <       0.00000004 Ry

     iteration #  5     ecut=    95.00 Ry     beta= 0.70
     Davidson diagonalization with overlap
     ethr =  4.45E-10,  avg # of iterations =  2.4

     total cpu time spent up to now is       10.6 secs

     End of self-consistent calculation

          k = 0.0000 0.0000 0.0000 (  7419 PWs)   bands (ev):

   -30.0995 -13.7374 -13.7374 -13.7374  -0.4767   5.9287   5.9287   5.9287
     6.8740

          k = 0.0000-0.1429 0.1429 (  7517 PWs)   bands (ev):

   -30.0985 -13.7527 -13.7425 -13.7374  -0.2160   5.5205   5.6494   6.1376
     6.6331

          k = 0.0000-0.2857 0.2857 (  7486 PWs)   bands (ev):

   -30.0963 -13.7865 -13.7538 -13.7374   0.5291   4.3396   5.1730   6.7071
     6.7450

          k = 0.0000-0.4286 0.4286 (  7504 PWs)   bands (ev):

   -30.0946 -13.8133 -13.7629 -13.7373   1.6415   3.0140   4.8745   6.5860
     7.2079

          k =-0.1429-0.1429 0.2857 (  7485 PWs)   bands (ev):

   -30.0969 -13.7758 -13.7484 -13.7410   0.2878   4.8540   5.1283   6.4789
     6.4913

          k =-0.1429-0.2857 0.4286 (  7474 PWs)   bands (ev):

   -30.0949 -13.8013 -13.7620 -13.7423   1.2253   3.7515   4.6629   6.4850
     6.9116

          k =-0.1429 0.5714-0.4286 (  7504 PWs)   bands (ev):

   -30.0941 -13.8120 -13.7690 -13.7425   2.3447   2.5747   4.5029   6.2759
     7.2958

          k =-0.2857 0.7143-0.4286 (  7502 PWs)   bands (ev):

   -30.0939 -13.8013 -13.7799 -13.7468   2.2790   3.3121   3.7291   6.3038
     6.8375

          k = 0.0000 0.0000 0.2857 (  7503 PWs)   bands (ev):

   -30.0976 -13.7560 -13.7477 -13.7477   0.0393   5.5423   5.5423   5.7323
     6.2275

          k = 0.0000-0.1429 0.4286 (  7495 PWs)   bands (ev):

   -30.0955 -13.7847 -13.7593 -13.7492   0.7692   4.4288   5.2007   5.7484
     6.7588

          k = 0.0000-0.2857 0.5714 (  7500 PWs)   bands (ev):

   -30.0938 -13.8094 -13.7687 -13.7484   1.8631   3.1600   4.9522   5.6620
     7.0166

          k =-0.1429-0.1429 0.5714 (  7499 PWs)   bands (ev):

   -30.0937 -13.7991 -13.7742 -13.7545   1.6633   3.8100   4.5307   5.8823
     6.5716

          k =-0.1429 0.7143-0.2857 (  7506 PWs)   bands (ev):

   -30.0928 -13.8048 -13.7836 -13.7547   2.7951   2.8289   4.1256   5.9588
     6.7002

          k =-0.2857 0.2857 0.2857 (  7494 PWs)   bands (ev):

   -30.0955 -13.7960 -13.7502 -13.7502   1.0033   4.3123   4.3124   6.4678
     7.0932

          k = 0.5714-0.5714 0.2857 (  7490 PWs)   bands (ev):

   -30.0943 -13.8018 -13.7678 -13.7516   2.0817   3.2878   4.0408   5.8019
     7.2464

          k = 0.4286-0.5714 0.4286 (  7497 PWs)   bands (ev):

   -30.0940 -13.7845 -13.7845 -13.7592   3.0623   3.0623   3.3590   5.1830
     7.3706

          k = 0.0000 0.0000 0.5714 (  7503 PWs)   bands (ev):

   -30.0936 -13.7845 -13.7717 -13.7717   1.4481   4.2913   5.1883   5.1883
     6.3000

          k = 0.0000-0.1429 0.7143 (  7500 PWs)   bands (ev):

   -30.0920 -13.8006 -13.7816 -13.7731   2.4383   3.5004   4.9073   5.1208
     6.1345

          k =-0.1429 0.8571-0.1429 (  7505 PWs)   bands (ev):

   -30.0913 -13.7959 -13.7959 -13.7757   3.2013   3.2013   4.2458   5.7753
     5.7753

          k = 0.0000 0.0000 0.8571 (  7500 PWs)   bands (ev):

   -30.0907 -13.7944 -13.7919 -13.7919   3.1093   3.5014   5.2231   5.2446
     5.2446

     the Fermi energy is     1.7334 ev

!    total energy              =    -109.87221039 Ry
     Harris-Foulkes estimate   =    -109.87221040 Ry
     estimated scf accuracy    <          3.8E-09 Ry

     total all-electron energy =     -1201.197210 Ry

     The total energy is the sum of the following terms:

     one-electron contribution =     -35.37028777 Ry
     hartree contribution      =      18.82553971 Ry
     xc contribution           =     -11.01680870 Ry
     ewald contribution        =     -29.89633970 Ry
     one-center paw contrib.   =     -52.41372523 Ry
     smearing contrib. (-TS)   =      -0.00058871 Ry

     convergence has been achieved in   5 iterations

     Forces acting on atoms (cartesian axes, Ry/au):

     atom    1 type  1   force =     0.00000000    0.00000000    0.00000000

     Total force =     0.000000     Total SCF correction =     0.000000


     Computing stress (Cartesian axis) and pressure

          total   stress  (Ry/bohr**3)                   (kbar)     P=   -3.91
  -0.00002659  -0.00000000  -0.00000000         -3.91     -0.00     -0.00
  -0.00000000  -0.00002659   0.00000000         -0.00     -3.91      0.00
  -0.00000000   0.00000000  -0.00002659         -0.00      0.00     -3.91


     Writing output data file K.save/

     init_run     :      0.83s CPU      0.86s WALL (       1 calls)
     electrons    :      8.79s CPU      9.05s WALL (       1 calls)
     forces       :      0.18s CPU      0.18s WALL (       1 calls)
     stress       :      0.75s CPU      0.75s WALL (       1 calls)

     Called by init_run:
     wfcinit      :      0.38s CPU      0.39s WALL (       1 calls)
     potinit      :      0.06s CPU      0.06s WALL (       1 calls)
     hinit0       :      0.23s CPU      0.24s WALL (       1 calls)

     Called by electrons:
     c_bands      :      6.83s CPU      7.03s WALL (       6 calls)
     sum_band     :      1.44s CPU      1.49s WALL (       6 calls)
     v_of_rho     :      0.04s CPU      0.04s WALL (       6 calls)
     newd         :      0.32s CPU      0.33s WALL (       6 calls)
     PAW_pot      :      0.23s CPU      0.23s WALL (       6 calls)
     mix_rho      :      0.02s CPU      0.02s WALL (       6 calls)

     Called by c_bands:
     init_us_2    :      0.27s CPU      0.28s WALL (     300 calls)
     cegterg      :      6.52s CPU      6.72s WALL (     120 calls)

     Called by sum_band:
     sum_band:bec :      0.00s CPU      0.00s WALL (     120 calls)
     addusdens    :      0.32s CPU      0.33s WALL (       6 calls)

     Called by *egterg:
     h_psi        :      5.49s CPU      5.68s WALL (     589 calls)
     s_psi        :      0.17s CPU      0.18s WALL (     589 calls)
     g_psi        :      0.02s CPU      0.02s WALL (     449 calls)
     cdiaghg      :      0.14s CPU      0.14s WALL (     549 calls)

     Called by h_psi:
     h_psi:pot    :      5.46s CPU      5.65s WALL (     589 calls)
     h_psi:calbec :      0.33s CPU      0.34s WALL (     589 calls)
     vloc_psi     :      4.92s CPU      5.11s WALL (     589 calls)
     add_vuspsi   :      0.20s CPU      0.20s WALL (     589 calls)

     General routines
     calbec       :      0.48s CPU      0.50s WALL (     809 calls)
     fft          :      0.05s CPU      0.05s WALL (      34 calls)
     ffts         :      0.01s CPU      0.01s WALL (       6 calls)
     fftw         :      5.26s CPU      5.46s WALL (    7608 calls)

     Parallel routines
     fft_scatt_xy :      0.43s CPU      0.45s WALL (    7648 calls)
     fft_scatt_yz :      1.14s CPU      1.19s WALL (    7648 calls)

     PWSCF        :    11.29s CPU        11.68s WALL


   This run was terminated on:   1:39:44   8Apr2024            

=------------------------------------------------------------------------------=
   JOB DONE.
=------------------------------------------------------------------------------=
