
     Program PWSCF v.6.3MaX starts on  8Apr2024 at  0:45:45 

     This program is part of the open-source Quantum ESPRESSO suite
     for quantum simulation of materials; please cite
         "P. Giannozzi et al., J. Phys.:Condens. Matter 21 395502 (2009);
         "P. Giannozzi et al., J. Phys.:Condens. Matter 29 465901 (2017);
          URL http://www.quantum-espresso.org", 
     in publications or presentations arising from this work. More details at
     http://www.quantum-espresso.org/quote

     Parallel version (MPI), running on     5 processors

     MPI processes distributed on     1 nodes
     R & G space division:  proc/nbgrp/npool/nimage =       5
     Waiting for input...
     Reading input from standard input

     Current dimensions of program PWSCF are:
     Max number of different atomic species (ntypx) = 10
     Max number of k-points (npk) =  40000
     Max angular momentum in pseudopotentials (lmaxx) =  3
               file K.pz-spn-rrkjus_psl.1.0.0.UPF: wavefunction(s)  3S renormalized

     Subspace diagonalization in iterative solution of the eigenvalue problem:
     a serial algorithm will be used


     Parallelization info
     --------------------
     sticks:   dense  smooth     PW     G-vecs:    dense   smooth      PW
     Min         263     263     77                 6018     6018     950
     Max         263     263     78                 6019     6019     951
     Sum        1315    1315    387                30093    30093    4753



     bravais-lattice index     =            3
     lattice parameter (alat)  =       9.8600  a.u.
     unit-cell volume          =     479.2926 (a.u.)^3
     number of atoms/cell      =            1
     number of atomic types    =            1
     number of electrons       =         9.00
     number of Kohn-Sham states=            9
     kinetic-energy cutoff     =      60.0000  Ry
     charge density cutoff     =     240.0000  Ry
     convergence threshold     =      1.0E-08
     mixing beta               =       0.7000
     number of iterations used =            8  plain     mixing
     Exchange-correlation      = LDA ( 1  1  0  0 0 0)

     celldm(1)=   9.860000  celldm(2)=   0.000000  celldm(3)=   0.000000
     celldm(4)=   0.000000  celldm(5)=   0.000000  celldm(6)=   0.000000

     crystal axes: (cart. coord. in units of alat)
               a(1) = (   0.500000   0.500000   0.500000 )  
               a(2) = (  -0.500000   0.500000   0.500000 )  
               a(3) = (  -0.500000  -0.500000   0.500000 )  

     reciprocal axes: (cart. coord. in units 2 pi/alat)
               b(1) = (  1.000000  0.000000  1.000000 )  
               b(2) = ( -1.000000  1.000000  0.000000 )  
               b(3) = (  0.000000 -1.000000  1.000000 )  


     PseudoPot. # 1 for K  read from file:
     /home/lorenzo/pseudos/K/K.pz-spn-rrkjus_psl.1.0.0.UPF
     MD5 check sum: af434a66a3b91719abff201b8f79bb09
     Pseudo is Ultrasoft + core correction, Zval =  9.0
     Generated using "atomic" code by A. Dal Corso v.6.2.2
     Using radial grid of 1165 points,  6 beta functions with: 
                l(1) =   0
                l(2) =   0
                l(3) =   1
                l(4) =   1
                l(5) =   2
                l(6) =   2
     Q(r) pseudized with 0 coefficients 


     atomic species   valence    mass     pseudopotential
        K              9.00    39.09830     K ( 1.00)

     48 Sym. Ops., with inversion, found



   Cartesian axes

     site n.     atom                  positions (alat units)
         1           K   tau(   1) = (   0.0000000   0.0000000   0.0000000  )

     number of k points=    16  gaussian smearing, width (Ry)=  0.0100
                       cart. coord. in units 2pi/alat
        k(    1) = (   0.0000000   0.0000000   0.0000000), wk =   0.0092593
        k(    2) = (   0.0000000  -0.1666667   0.1666667), wk =   0.1111111
        k(    3) = (   0.0000000  -0.3333333   0.3333333), wk =   0.1111111
        k(    4) = (   0.0000000   0.5000000  -0.5000000), wk =   0.0555556
        k(    5) = (  -0.1666667  -0.1666667   0.3333333), wk =   0.2222222
        k(    6) = (  -0.1666667   0.6666667  -0.5000000), wk =   0.4444444
        k(    7) = (  -0.3333333   0.6666667  -0.3333333), wk =   0.0740741
        k(    8) = (   0.0000000   0.0000000   0.3333333), wk =   0.0555556
        k(    9) = (   0.0000000  -0.1666667   0.5000000), wk =   0.2222222
        k(   10) = (   0.0000000   0.6666667  -0.3333333), wk =   0.1111111
        k(   11) = (  -0.1666667   0.8333333  -0.3333333), wk =   0.2222222
        k(   12) = (   0.6666667  -0.6666667   0.3333333), wk =   0.0740741
        k(   13) = (   0.5000000  -0.5000000   0.3333333), wk =   0.1111111
        k(   14) = (   0.0000000   0.0000000   0.6666667), wk =   0.0555556
        k(   15) = (   0.0000000   0.8333333  -0.1666667), wk =   0.1111111
        k(   16) = (   0.0000000   0.0000000  -1.0000000), wk =   0.0092593

     Dense  grid:    30093 G-vectors     FFT dimensions: (  45,  45,  45)

     Estimated max dynamical RAM per process >      26.13 MB

     Estimated total dynamical RAM >     130.64 MB

     Check: negative/imaginary core charge=   -0.000003    0.000000

     Initial potential from superposition of free atoms

     starting charge    8.98437, renormalised to    9.00000
     Starting wfcs are    8 randomized atomic wfcs +    1 random wfcs

     total cpu time spent up to now is        1.1 secs

     Self-consistent Calculation

     iteration #  1     ecut=    60.00 Ry     beta= 0.70
     Davidson diagonalization with overlap
     ethr =  1.00E-02,  avg # of iterations =  6.4

     Threshold (ethr) on eigenvalues was too large:
     Diagonalizing with lowered threshold

     Davidson diagonalization with overlap
     ethr =  1.25E-05,  avg # of iterations =  6.4

     total cpu time spent up to now is        2.7 secs

     total energy              =     -58.74194706 Ry
     Harris-Foulkes estimate   =     -58.74250795 Ry
     estimated scf accuracy    <       0.00111284 Ry

     iteration #  2     ecut=    60.00 Ry     beta= 0.70
     Davidson diagonalization with overlap
     ethr =  1.24E-05,  avg # of iterations =  2.1

     total cpu time spent up to now is        3.3 secs

     total energy              =     -58.74214418 Ry
     Harris-Foulkes estimate   =     -58.74216135 Ry
     estimated scf accuracy    <       0.00008884 Ry

     iteration #  3     ecut=    60.00 Ry     beta= 0.70
     Davidson diagonalization with overlap
     ethr =  9.87E-07,  avg # of iterations =  2.3

     total cpu time spent up to now is        3.8 secs

     total energy              =     -58.74215299 Ry
     Harris-Foulkes estimate   =     -58.74215221 Ry
     estimated scf accuracy    <       0.00000560 Ry

     iteration #  4     ecut=    60.00 Ry     beta= 0.70
     Davidson diagonalization with overlap
     ethr =  6.23E-08,  avg # of iterations =  1.4

     total cpu time spent up to now is        4.3 secs

     total energy              =     -58.74215357 Ry
     Harris-Foulkes estimate   =     -58.74215356 Ry
     estimated scf accuracy    <       0.00000004 Ry

     iteration #  5     ecut=    60.00 Ry     beta= 0.70
     Davidson diagonalization with overlap
     ethr =  3.94E-10,  avg # of iterations =  2.0

     total cpu time spent up to now is        4.8 secs

     End of self-consistent calculation

          k = 0.0000 0.0000 0.0000 (  3781 PWs)   bands (ev):

   -30.0964 -13.7353 -13.7353 -13.7353  -0.4765   5.9293   5.9293   5.9293
     6.8758

          k = 0.0000-0.1667 0.1667 (  3767 PWs)   bands (ev):

   -30.0951 -13.7555 -13.7420 -13.7353  -0.1231   5.3548   5.5698   6.2129
     6.6294

          k = 0.0000-0.3333 0.3333 (  3779 PWs)   bands (ev):

   -30.0925 -13.7954 -13.7554 -13.7352   0.8681   3.9021   5.0447   6.7060
     6.9729

          k = 0.0000 0.5000-0.5000 (  3766 PWs)   bands (ev):

   -30.0912 -13.8150 -13.7621 -13.7352   2.1434   2.4886   4.8354   6.5329
     7.3587

          k =-0.1667-0.1667 0.3333 (  3763 PWs)   bands (ev):

   -30.0932 -13.7826 -13.7504 -13.7399   0.5514   4.5553   4.9194   6.5135
     6.6128

          k =-0.1667 0.6667-0.5000 (  3764 PWs)   bands (ev):

   -30.0912 -13.8049 -13.7661 -13.7415   1.7705   3.2645   4.4361   6.3537
     7.0072

          k =-0.3333 0.6667-0.3333 (  3772 PWs)   bands (ev):

   -30.0906 -13.7902 -13.7902 -13.7453   2.9761   2.9761   3.3020   6.2473
     7.0179

          k = 0.0000 0.0000 0.3333 (  3760 PWs)   bands (ev):

   -30.0939 -13.7592 -13.7490 -13.7490   0.2203   5.4564   5.4564   5.4652
     6.3321

          k = 0.0000-0.1667 0.5000 (  3760 PWs)   bands (ev):

   -30.0914 -13.7918 -13.7629 -13.7506   1.1838   4.0439   5.1099   5.5972
     6.9427

          k = 0.0000 0.6667-0.3333 (  3748 PWs)   bands (ev):

   -30.0902 -13.8095 -13.7698 -13.7498   2.4999   2.6360   4.9461   5.4362
     6.9578

          k =-0.1667 0.8333-0.3333 (  3749 PWs)   bands (ev):

   -30.0897 -13.7996 -13.7819 -13.7559   2.3156   3.4576   4.1426   5.9589
     6.4094

          k = 0.6667-0.6667 0.3333 (  3799 PWs)   bands (ev):

   -30.0917 -13.7981 -13.7531 -13.7531   1.4908   4.0004   4.0004   6.0847
     7.2196

          k = 0.5000-0.5000 0.3333 (  3774 PWs)   bands (ev):

   -30.0910 -13.7944 -13.7712 -13.7544   2.8136   2.8192   3.8183   5.3878
     7.3207

          k = 0.0000 0.0000 0.6667 (  3720 PWs)   bands (ev):

   -30.0893 -13.7878 -13.7778 -13.7778   2.0410   3.9450   5.1735   5.1735
     5.7573

          k = 0.0000 0.8333-0.1667 (  3728 PWs)   bands (ev):

   -30.0882 -13.7984 -13.7852 -13.7786   3.0507   3.2527   4.7481   5.1708
     5.9420

          k = 0.0000 0.0000-1.0000 (  3716 PWs)   bands (ev):

   -30.0872 -13.7928 -13.7928 -13.7928   3.4016   5.2835   5.2835   5.2835
     7.2563

     the Fermi energy is     1.7554 ev

!    total energy              =     -58.74215357 Ry
     Harris-Foulkes estimate   =     -58.74215358 Ry
     estimated scf accuracy    <          5.6E-10 Ry

     The total energy is the sum of the following terms:

     one-electron contribution =     -36.65400243 Ry
     hartree contribution      =      18.82646552 Ry
     xc contribution           =     -11.01703175 Ry
     ewald contribution        =     -29.89633971 Ry
     smearing contrib. (-TS)   =      -0.00124521 Ry

     convergence has been achieved in   5 iterations

     Forces acting on atoms (cartesian axes, Ry/au):

     atom    1 type  1   force =     0.00000000    0.00000000    0.00000000

     Total force =     0.000000     Total SCF correction =     0.000000


     Computing stress (Cartesian axis) and pressure

          total   stress  (Ry/bohr**3)                   (kbar)     P=   -3.67
  -0.00002497   0.00000000   0.00000000         -3.67      0.00      0.00
   0.00000000  -0.00002497   0.00000000          0.00     -3.67      0.00
  -0.00000000   0.00000000  -0.00002497         -0.00      0.00     -3.67


     Writing output data file K.save/

     init_run     :      0.40s CPU      0.42s WALL (       1 calls)
     electrons    :      3.53s CPU      3.69s WALL (       1 calls)
     forces       :      0.11s CPU      0.11s WALL (       1 calls)
     stress       :      0.38s CPU      0.38s WALL (       1 calls)

     Called by init_run:
     wfcinit      :      0.15s CPU      0.15s WALL (       1 calls)
     potinit      :      0.01s CPU      0.01s WALL (       1 calls)
     hinit0       :      0.19s CPU      0.19s WALL (       1 calls)

     Called by electrons:
     c_bands      :      2.74s CPU      2.87s WALL (       6 calls)
     sum_band     :      0.62s CPU      0.65s WALL (       6 calls)
     v_of_rho     :      0.02s CPU      0.02s WALL (       6 calls)
     newd         :      0.16s CPU      0.17s WALL (       6 calls)
     mix_rho      :      0.01s CPU      0.01s WALL (       6 calls)

     Called by c_bands:
     init_us_2    :      0.11s CPU      0.11s WALL (     240 calls)
     cegterg      :      2.62s CPU      2.74s WALL (      96 calls)

     Called by sum_band:
     sum_band:bec :      0.00s CPU      0.00s WALL (      96 calls)
     addusdens    :      0.16s CPU      0.16s WALL (       6 calls)

     Called by *egterg:
     h_psi        :      2.22s CPU      2.34s WALL (     444 calls)
     s_psi        :      0.07s CPU      0.07s WALL (     444 calls)
     g_psi        :      0.01s CPU      0.01s WALL (     332 calls)
     cdiaghg      :      0.10s CPU      0.10s WALL (     412 calls)

     Called by h_psi:
     h_psi:pot    :      2.20s CPU      2.32s WALL (     444 calls)
     h_psi:calbec :      0.13s CPU      0.14s WALL (     444 calls)
     vloc_psi     :      1.99s CPU      2.10s WALL (     444 calls)
     add_vuspsi   :      0.08s CPU      0.08s WALL (     444 calls)

     General routines
     calbec       :      0.21s CPU      0.22s WALL (     620 calls)
     fft          :      0.03s CPU      0.03s WALL (      34 calls)
     ffts         :      0.00s CPU      0.00s WALL (       6 calls)
     fftw         :      2.18s CPU      2.30s WALL (    5858 calls)

     Parallel routines
     fft_scatt_xy :      0.17s CPU      0.18s WALL (    5898 calls)
     fft_scatt_yz :      0.50s CPU      0.53s WALL (    5898 calls)

     PWSCF        :     5.12s CPU         5.37s WALL


   This run was terminated on:   0:45:50   8Apr2024            

=------------------------------------------------------------------------------=
   JOB DONE.
=------------------------------------------------------------------------------=
