
     Program PWSCF v.6.3MaX starts on  8Apr2024 at  0:21:23 

     This program is part of the open-source Quantum ESPRESSO suite
     for quantum simulation of materials; please cite
         "P. Giannozzi et al., J. Phys.:Condens. Matter 21 395502 (2009);
         "P. Giannozzi et al., J. Phys.:Condens. Matter 29 465901 (2017);
          URL http://www.quantum-espresso.org", 
     in publications or presentations arising from this work. More details at
     http://www.quantum-espresso.org/quote

     Parallel version (MPI), running on     5 processors

     MPI processes distributed on     1 nodes
     R & G space division:  proc/nbgrp/npool/nimage =       5
     Waiting for input...
     Reading input from standard input

     Current dimensions of program PWSCF are:
     Max number of different atomic species (ntypx) = 10
     Max number of k-points (npk) =  40000
     Max angular momentum in pseudopotentials (lmaxx) =  3
               file K.pz-spn-kjpaw_psl.1.0.0.UPF: wavefunction(s)  3S renormalized

     Subspace diagonalization in iterative solution of the eigenvalue problem:
     a serial algorithm will be used


     Parallelization info
     --------------------
     sticks:   dense  smooth     PW     G-vecs:    dense   smooth      PW
     Min         131     131     41                 2128     2128     373
     Max         132     132     41                 2129     2129     373
     Sum         657     657    205                10641    10641    1865



     bravais-lattice index     =            3
     lattice parameter (alat)  =       9.8600  a.u.
     unit-cell volume          =     479.2926 (a.u.)^3
     number of atoms/cell      =            1
     number of atomic types    =            1
     number of electrons       =         9.00
     number of Kohn-Sham states=            9
     kinetic-energy cutoff     =      30.0000  Ry
     charge density cutoff     =     120.0000  Ry
     convergence threshold     =      1.0E-08
     mixing beta               =       0.7000
     number of iterations used =            8  plain     mixing
     Exchange-correlation      = SLA PZ NOGX NOGC ( 1  1  0  0 0 0)

     celldm(1)=   9.860000  celldm(2)=   0.000000  celldm(3)=   0.000000
     celldm(4)=   0.000000  celldm(5)=   0.000000  celldm(6)=   0.000000

     crystal axes: (cart. coord. in units of alat)
               a(1) = (   0.500000   0.500000   0.500000 )  
               a(2) = (  -0.500000   0.500000   0.500000 )  
               a(3) = (  -0.500000  -0.500000   0.500000 )  

     reciprocal axes: (cart. coord. in units 2 pi/alat)
               b(1) = (  1.000000  0.000000  1.000000 )  
               b(2) = ( -1.000000  1.000000  0.000000 )  
               b(3) = (  0.000000 -1.000000  1.000000 )  


     PseudoPot. # 1 for K  read from file:
     /home/lorenzo/pseudos/K/K.pz-spn-kjpaw_psl.1.0.0.UPF
     MD5 check sum: 59b94f4c1a6681f21e103574f2c5fc67
     Pseudo is Projector augmented-wave + core cor, Zval =  9.0
     Generated using "atomic" code by A. Dal Corso v.6.2.2
     Shape of augmentation charge: PSQ
     Using radial grid of 1165 points,  6 beta functions with: 
                l(1) =   0
                l(2) =   0
                l(3) =   1
                l(4) =   1
                l(5) =   2
                l(6) =   2
     Q(r) pseudized with 0 coefficients 


     atomic species   valence    mass     pseudopotential
        K              9.00    39.09830     K ( 1.00)

     48 Sym. Ops., with inversion, found



   Cartesian axes

     site n.     atom                  positions (alat units)
         1           K   tau(   1) = (   0.0000000   0.0000000   0.0000000  )

     number of k points=    35  gaussian smearing, width (Ry)=  0.0100
                       cart. coord. in units 2pi/alat
        k(    1) = (   0.0000000   0.0000000   0.0000000), wk =   0.0027435
        k(    2) = (   0.0000000  -0.1111111   0.1111111), wk =   0.0329218
        k(    3) = (   0.0000000  -0.2222222   0.2222222), wk =   0.0329218
        k(    4) = (   0.0000000  -0.3333333   0.3333333), wk =   0.0329218
        k(    5) = (   0.0000000  -0.4444444   0.4444444), wk =   0.0329218
        k(    6) = (  -0.1111111  -0.1111111   0.2222222), wk =   0.0658436
        k(    7) = (  -0.1111111  -0.2222222   0.3333333), wk =   0.1316872
        k(    8) = (  -0.1111111  -0.3333333   0.4444444), wk =   0.1316872
        k(    9) = (  -0.1111111   0.5555556  -0.4444444), wk =   0.0658436
        k(   10) = (  -0.2222222  -0.2222222   0.4444444), wk =   0.0658436
        k(   11) = (  -0.2222222   0.6666667  -0.4444444), wk =   0.1316872
        k(   12) = (  -0.3333333   0.6666667  -0.3333333), wk =   0.0219479
        k(   13) = (   0.0000000   0.0000000   0.2222222), wk =   0.0164609
        k(   14) = (   0.0000000  -0.1111111   0.3333333), wk =   0.0658436
        k(   15) = (   0.0000000  -0.2222222   0.4444444), wk =   0.0658436
        k(   16) = (   0.0000000  -0.3333333   0.5555556), wk =   0.0658436
        k(   17) = (  -0.1111111  -0.1111111   0.4444444), wk =   0.0658436
        k(   18) = (  -0.1111111  -0.2222222   0.5555556), wk =   0.1316872
        k(   19) = (  -0.1111111   0.6666667  -0.3333333), wk =   0.0658436
        k(   20) = (  -0.2222222   0.2222222   0.2222222), wk =   0.0219479
        k(   21) = (  -0.2222222   0.7777778  -0.3333333), wk =   0.0658436
        k(   22) = (  -0.3333333   0.3333333   0.2222222), wk =   0.0658436
        k(   23) = (   0.5555556  -0.5555556   0.2222222), wk =   0.0658436
        k(   24) = (   0.5555556  -0.6666667   0.3333333), wk =   0.0658436
        k(   25) = (   0.4444444  -0.5555556   0.3333333), wk =   0.0658436
        k(   26) = (   0.0000000   0.0000000   0.4444444), wk =   0.0164609
        k(   27) = (   0.0000000  -0.1111111   0.5555556), wk =   0.0658436
        k(   28) = (   0.0000000  -0.2222222   0.6666667), wk =   0.0658436
        k(   29) = (  -0.1111111  -0.1111111   0.6666667), wk =   0.0658436
        k(   30) = (  -0.1111111   0.7777778  -0.2222222), wk =   0.0658436
        k(   31) = (   0.5555556  -0.5555556   0.4444444), wk =   0.0219479
        k(   32) = (   0.0000000   0.0000000   0.6666667), wk =   0.0164609
        k(   33) = (   0.0000000  -0.1111111   0.7777778), wk =   0.0658436
        k(   34) = (  -0.1111111   0.8888889  -0.1111111), wk =   0.0219479
        k(   35) = (   0.0000000   0.0000000   0.8888889), wk =   0.0164609

     Dense  grid:    10641 G-vectors     FFT dimensions: (  30,  30,  30)

     Estimated max dynamical RAM per process >      10.55 MB

     Estimated total dynamical RAM >      52.77 MB

     Check: negative/imaginary core charge=   -0.000030    0.000000

     Initial potential from superposition of free atoms

     starting charge    8.98437, renormalised to    9.00000
     Starting wfcs are    8 randomized atomic wfcs +    1 random wfcs
     Checking if some PAW data can be deallocated... 

     total cpu time spent up to now is        1.0 secs

     Self-consistent Calculation

     iteration #  1     ecut=    30.00 Ry     beta= 0.70
     Davidson diagonalization with overlap
     ethr =  1.00E-02,  avg # of iterations =  6.2

     Threshold (ethr) on eigenvalues was too large:
     Diagonalizing with lowered threshold

     Davidson diagonalization with overlap
     ethr =  1.26E-05,  avg # of iterations =  6.5

     total cpu time spent up to now is        2.4 secs

     total energy              =    -109.86850887 Ry
     Harris-Foulkes estimate   =    -109.86908455 Ry
     estimated scf accuracy    <       0.00113948 Ry

     iteration #  2     ecut=    30.00 Ry     beta= 0.70
     Davidson diagonalization with overlap
     ethr =  1.27E-05,  avg # of iterations =  2.3

     total cpu time spent up to now is        2.9 secs

     total energy              =    -109.86871181 Ry
     Harris-Foulkes estimate   =    -109.86873750 Ry
     estimated scf accuracy    <       0.00009450 Ry

     iteration #  3     ecut=    30.00 Ry     beta= 0.70
     Davidson diagonalization with overlap
     ethr =  1.05E-06,  avg # of iterations =  2.3

     total cpu time spent up to now is        3.4 secs

     total energy              =    -109.86872386 Ry
     Harris-Foulkes estimate   =    -109.86872336 Ry
     estimated scf accuracy    <       0.00000615 Ry

     iteration #  4     ecut=    30.00 Ry     beta= 0.70
     Davidson diagonalization with overlap
     ethr =  6.83E-08,  avg # of iterations =  1.5

     total cpu time spent up to now is        3.8 secs

     total energy              =    -109.86872448 Ry
     Harris-Foulkes estimate   =    -109.86872447 Ry
     estimated scf accuracy    <       0.00000004 Ry

     iteration #  5     ecut=    30.00 Ry     beta= 0.70
     Davidson diagonalization with overlap
     ethr =  4.04E-10,  avg # of iterations =  2.4

     total cpu time spent up to now is        4.2 secs

     End of self-consistent calculation

          k = 0.0000 0.0000 0.0000 (  1289 PWs)   bands (ev):

   -30.0991 -13.7346 -13.7346 -13.7346  -0.4765   5.9454   5.9454   5.9454
     6.8944

          k = 0.0000-0.1111 0.1111 (  1346 PWs)   bands (ev):

   -30.0987 -13.7459 -13.7396 -13.7364  -0.3180   5.7118   5.7595   6.0681
     6.6820

          k = 0.0000-0.2222 0.2222 (  1338 PWs)   bands (ev):

   -30.0971 -13.7697 -13.7476 -13.7363   0.1438   4.9101   5.3870   6.4423
     6.6737

          k = 0.0000-0.3333 0.3333 (  1340 PWs)   bands (ev):

   -30.0954 -13.7965 -13.7569 -13.7365   0.8684   3.9048   5.0521   6.7178
     6.9806

          k = 0.0000-0.4444 0.4444 (  1334 PWs)   bands (ev):

   -30.0942 -13.8133 -13.7628 -13.7364   1.7780   2.8706   4.8661   6.5774
     7.2719

          k =-0.1111-0.1111 0.2222 (  1343 PWs)   bands (ev):

   -30.0976 -13.7624 -13.7431 -13.7387  -0.0077   5.2564   5.4065   6.2980
     6.5138

          k =-0.1111-0.2222 0.3333 (  1333 PWs)   bands (ev):

   -30.0959 -13.7856 -13.7525 -13.7393   0.5871   4.4210   5.0041   6.5389
     6.7018

          k =-0.1111-0.3333 0.4444 (  1325 PWs)   bands (ev):

   -30.0944 -13.8047 -13.7621 -13.7395   1.4126   3.4428   4.7392   6.4688
     7.1136

          k =-0.1111 0.5556-0.4444 (  1332 PWs)   bands (ev):

   -30.0939 -13.8126 -13.7660 -13.7398   2.2674   2.5414   4.6464   6.3386
     7.3420

          k =-0.2222-0.2222 0.4444 (  1336 PWs)   bands (ev):

   -30.0946 -13.7984 -13.7633 -13.7435   1.2869   3.9122   4.4073   6.6195
     6.6412

          k =-0.2222 0.6667-0.4444 (  1328 PWs)   bands (ev):

   -30.0937 -13.8032 -13.7741 -13.7448   2.1762   3.1362   4.0571   6.2964
     6.9444

          k =-0.3333 0.6667-0.3333 (  1319 PWs)   bands (ev):

   -30.0934 -13.7906 -13.7906 -13.7462   2.9779   2.9779   3.3041   6.2525
     7.0344

          k = 0.0000 0.0000 0.2222 (  1345 PWs)   bands (ev):

   -30.0981 -13.7485 -13.7428 -13.7428  -0.1615   5.6730   5.6730   6.0982
     6.1251

          k = 0.0000-0.1111 0.3333 (  1340 PWs)   bands (ev):

   -30.0966 -13.7694 -13.7509 -13.7440   0.2946   4.9606   5.3800   5.9460
     6.4563

          k = 0.0000-0.2222 0.4444 (  1338 PWs)   bands (ev):

   -30.0948 -13.7947 -13.7603 -13.7436   1.0105   3.9748   5.0847   5.9964
     7.0365

          k = 0.0000-0.3333 0.5556 (  1326 PWs)   bands (ev):

   -30.0937 -13.8107 -13.7661 -13.7430   1.9143   2.9606   4.9161   5.9010
     7.1685

          k =-0.1111-0.1111 0.4444 (  1337 PWs)   bands (ev):

   -30.0950 -13.7860 -13.7604 -13.7486   0.8738   4.3964   4.9757   5.8920
     6.7717

          k =-0.1111-0.2222 0.5556 (  1329 PWs)   bands (ev):

   -30.0936 -13.8015 -13.7708 -13.7490   1.6784   3.5854   4.5977   5.9580
     6.7923

          k =-0.1111 0.6667-0.3333 (  1325 PWs)   bands (ev):

   -30.0930 -13.8077 -13.7749 -13.7489   2.5784   2.6745   4.4629   5.8882
     6.9733

          k =-0.2222 0.2222 0.2222 (  1337 PWs)   bands (ev):

   -30.0963 -13.7823 -13.7437 -13.7437   0.4422   4.7859   4.7859   6.5423
     6.9378

          k =-0.2222 0.7778-0.3333 (  1326 PWs)   bands (ev):

   -30.0928 -13.7998 -13.7855 -13.7508   2.5205   3.2672   3.7807   6.3562
     6.5776

          k =-0.3333 0.3333 0.2222 (  1333 PWs)   bands (ev):

   -30.0950 -13.7976 -13.7560 -13.7447   1.1519   3.9759   4.4560   6.4774
     7.0615

          k = 0.5556-0.5556 0.2222 (  1326 PWs)   bands (ev):

   -30.0940 -13.8049 -13.7665 -13.7451   2.0507   3.0491   4.2883   6.1157
     7.2674

          k = 0.5556-0.6667 0.3333 (  1326 PWs)   bands (ev):

   -30.0941 -13.7989 -13.7659 -13.7510   1.9403   3.5913   3.8967   5.8359
     7.1931

          k = 0.4444-0.5556 0.3333 (  1318 PWs)   bands (ev):

   -30.0937 -13.7942 -13.7757 -13.7524   2.8332   2.8548   3.7067   5.5293
     7.2931

          k = 0.0000 0.0000 0.4444 (  1337 PWs)   bands (ev):

   -30.0952 -13.7724 -13.7593 -13.7593   0.7333   4.8769   5.2981   5.2981
     6.6386

          k = 0.0000-0.1111 0.5556 (  1331 PWs)   bands (ev):

   -30.0935 -13.7904 -13.7689 -13.7615   1.4194   4.1056   5.1473   5.3060
     6.5723

          k = 0.0000-0.2222 0.6667 (  1322 PWs)   bands (ev):

   -30.0925 -13.8045 -13.7750 -13.7602   2.2838   3.2195   5.0396   5.1220
     6.6111

          k =-0.1111-0.1111 0.6667 (  1331 PWs)   bands (ev):

   -30.0923 -13.7979 -13.7807 -13.7651   2.1654   3.6703   4.5472   5.5959
     6.2073

          k =-0.1111 0.7778-0.2222 (  1328 PWs)   bands (ev):

   -30.0918 -13.8005 -13.7869 -13.7651   2.9334   3.0741   4.2102   5.7008
     6.3055

          k = 0.5556-0.5556 0.4444 (  1313 PWs)   bands (ev):

   -30.0938 -13.7877 -13.7672 -13.7672   2.7395   3.4340   3.4340   4.9890
     7.4303

          k = 0.0000 0.0000 0.6667 (  1332 PWs)   bands (ev):

   -30.0921 -13.7888 -13.7789 -13.7789   2.0418   3.9487   5.1778   5.1779
     5.7630

          k = 0.0000-0.1111 0.7778 (  1321 PWs)   bands (ev):

   -30.0911 -13.7973 -13.7851 -13.7800   2.7754   3.4874   4.8421   5.1759
     5.8527

          k =-0.1111 0.8889-0.1111 (  1313 PWs)   bands (ev):

   -30.0906 -13.7939 -13.7939 -13.7816   3.2690   3.2690   4.5320   5.6015
     5.6015

          k = 0.0000 0.0000 0.8889 (  1308 PWs)   bands (ev):

   -30.0902 -13.7930 -13.7915 -13.7915   3.2283   3.4659   5.2249   5.2604
     5.2604

     the Fermi energy is     1.7508 ev

!    total energy              =    -109.86872450 Ry
     Harris-Foulkes estimate   =    -109.86872450 Ry
     estimated scf accuracy    <          4.0E-09 Ry

     total all-electron energy =     -1201.193724 Ry

     The total energy is the sum of the following terms:

     one-electron contribution =     -35.36656318 Ry
     hartree contribution      =      18.82407006 Ry
     xc contribution           =     -11.01651102 Ry
     ewald contribution        =     -29.89633973 Ry
     one-center paw contrib.   =     -52.41293772 Ry
     smearing contrib. (-TS)   =      -0.00044290 Ry

     convergence has been achieved in   5 iterations

     Forces acting on atoms (cartesian axes, Ry/au):

     atom    1 type  1   force =     0.00000000    0.00000000    0.00000000

     Total force =     0.000000     Total SCF correction =     0.000000


     Computing stress (Cartesian axis) and pressure

          total   stress  (Ry/bohr**3)                   (kbar)     P=   -9.02
  -0.00006128   0.00000000  -0.00000000         -9.02      0.00     -0.00
   0.00000000  -0.00006128   0.00000000          0.00     -9.02      0.00
  -0.00000000   0.00000000  -0.00006128         -0.00      0.00     -9.02


     Writing output data file K.save/

     init_run     :      0.31s CPU      0.31s WALL (       1 calls)
     electrons    :      3.09s CPU      3.21s WALL (       1 calls)
     forces       :      0.05s CPU      0.05s WALL (       1 calls)
     stress       :      0.19s CPU      0.19s WALL (       1 calls)

     Called by init_run:
     wfcinit      :      0.12s CPU      0.12s WALL (       1 calls)
     potinit      :      0.05s CPU      0.05s WALL (       1 calls)
     hinit0       :      0.12s CPU      0.12s WALL (       1 calls)

     Called by electrons:
     c_bands      :      2.44s CPU      2.53s WALL (       6 calls)
     sum_band     :      0.40s CPU      0.42s WALL (       6 calls)
     v_of_rho     :      0.00s CPU      0.01s WALL (       6 calls)
     newd         :      0.06s CPU      0.07s WALL (       6 calls)
     PAW_pot      :      0.23s CPU      0.23s WALL (       6 calls)
     mix_rho      :      0.00s CPU      0.00s WALL (       6 calls)

     Called by c_bands:
     init_us_2    :      0.08s CPU      0.09s WALL (     525 calls)
     cegterg      :      2.32s CPU      2.41s WALL (     210 calls)

     Called by sum_band:
     sum_band:bec :      0.00s CPU      0.00s WALL (     210 calls)
     addusdens    :      0.06s CPU      0.06s WALL (       6 calls)

     Called by *egterg:
     h_psi        :      1.78s CPU      1.85s WALL (     989 calls)
     s_psi        :      0.06s CPU      0.06s WALL (     989 calls)
     g_psi        :      0.01s CPU      0.01s WALL (     744 calls)
     cdiaghg      :      0.22s CPU      0.23s WALL (     919 calls)

     Called by h_psi:
     h_psi:pot    :      1.77s CPU      1.84s WALL (     989 calls)
     h_psi:calbec :      0.10s CPU      0.10s WALL (     989 calls)
     vloc_psi     :      1.60s CPU      1.66s WALL (     989 calls)
     add_vuspsi   :      0.06s CPU      0.06s WALL (     989 calls)

     General routines
     calbec       :      0.16s CPU      0.16s WALL (    1374 calls)
     fft          :      0.01s CPU      0.01s WALL (      34 calls)
     ffts         :      0.00s CPU      0.00s WALL (       6 calls)
     fftw         :      1.74s CPU      1.81s WALL (   13256 calls)

     Parallel routines
     fft_scatt_xy :      0.14s CPU      0.14s WALL (   13296 calls)
     fft_scatt_yz :      0.55s CPU      0.57s WALL (   13296 calls)

     PWSCF        :     4.38s CPU         4.55s WALL


   This run was terminated on:   0:21:28   8Apr2024            

=------------------------------------------------------------------------------=
   JOB DONE.
=------------------------------------------------------------------------------=
