
     Program PWSCF v.6.3MaX starts on  8Apr2024 at  0:31:23 

     This program is part of the open-source Quantum ESPRESSO suite
     for quantum simulation of materials; please cite
         "P. Giannozzi et al., J. Phys.:Condens. Matter 21 395502 (2009);
         "P. Giannozzi et al., J. Phys.:Condens. Matter 29 465901 (2017);
          URL http://www.quantum-espresso.org", 
     in publications or presentations arising from this work. More details at
     http://www.quantum-espresso.org/quote

     Parallel version (MPI), running on     5 processors

     MPI processes distributed on     1 nodes
     R & G space division:  proc/nbgrp/npool/nimage =       5
     Waiting for input...
     Reading input from standard input

     Current dimensions of program PWSCF are:
     Max number of different atomic species (ntypx) = 10
     Max number of k-points (npk) =  40000
     Max angular momentum in pseudopotentials (lmaxx) =  3
               file K.pz-spn-rrkjus_psl.1.0.0.UPF: wavefunction(s)  3S renormalized

     Subspace diagonalization in iterative solution of the eigenvalue problem:
     a serial algorithm will be used


     Parallelization info
     --------------------
     sticks:   dense  smooth     PW     G-vecs:    dense   smooth      PW
     Min         196     196     56                 3895     3895     619
     Max         197     197     57                 3897     3897     622
     Sum         981     981    283                19477    19477    3103



     bravais-lattice index     =            3
     lattice parameter (alat)  =       9.8600  a.u.
     unit-cell volume          =     479.2926 (a.u.)^3
     number of atoms/cell      =            1
     number of atomic types    =            1
     number of electrons       =         9.00
     number of Kohn-Sham states=            9
     kinetic-energy cutoff     =      45.0000  Ry
     charge density cutoff     =     180.0000  Ry
     convergence threshold     =      1.0E-08
     mixing beta               =       0.7000
     number of iterations used =            8  plain     mixing
     Exchange-correlation      = LDA ( 1  1  0  0 0 0)

     celldm(1)=   9.860000  celldm(2)=   0.000000  celldm(3)=   0.000000
     celldm(4)=   0.000000  celldm(5)=   0.000000  celldm(6)=   0.000000

     crystal axes: (cart. coord. in units of alat)
               a(1) = (   0.500000   0.500000   0.500000 )  
               a(2) = (  -0.500000   0.500000   0.500000 )  
               a(3) = (  -0.500000  -0.500000   0.500000 )  

     reciprocal axes: (cart. coord. in units 2 pi/alat)
               b(1) = (  1.000000  0.000000  1.000000 )  
               b(2) = ( -1.000000  1.000000  0.000000 )  
               b(3) = (  0.000000 -1.000000  1.000000 )  


     PseudoPot. # 1 for K  read from file:
     /home/lorenzo/pseudos/K/K.pz-spn-rrkjus_psl.1.0.0.UPF
     MD5 check sum: af434a66a3b91719abff201b8f79bb09
     Pseudo is Ultrasoft + core correction, Zval =  9.0
     Generated using "atomic" code by A. Dal Corso v.6.2.2
     Using radial grid of 1165 points,  6 beta functions with: 
                l(1) =   0
                l(2) =   0
                l(3) =   1
                l(4) =   1
                l(5) =   2
                l(6) =   2
     Q(r) pseudized with 0 coefficients 


     atomic species   valence    mass     pseudopotential
        K              9.00    39.09830     K ( 1.00)

     48 Sym. Ops., with inversion, found



   Cartesian axes

     site n.     atom                  positions (alat units)
         1           K   tau(   1) = (   0.0000000   0.0000000   0.0000000  )

     number of k points=    20  gaussian smearing, width (Ry)=  0.0100
                       cart. coord. in units 2pi/alat
        k(    1) = (   0.0000000   0.0000000   0.0000000), wk =   0.0058309
        k(    2) = (   0.0000000  -0.1428571   0.1428571), wk =   0.0699708
        k(    3) = (   0.0000000  -0.2857143   0.2857143), wk =   0.0699708
        k(    4) = (   0.0000000  -0.4285714   0.4285714), wk =   0.0699708
        k(    5) = (  -0.1428571  -0.1428571   0.2857143), wk =   0.1399417
        k(    6) = (  -0.1428571  -0.2857143   0.4285714), wk =   0.2798834
        k(    7) = (  -0.1428571   0.5714286  -0.4285714), wk =   0.1399417
        k(    8) = (  -0.2857143   0.7142857  -0.4285714), wk =   0.1399417
        k(    9) = (   0.0000000   0.0000000   0.2857143), wk =   0.0349854
        k(   10) = (   0.0000000  -0.1428571   0.4285714), wk =   0.1399417
        k(   11) = (   0.0000000  -0.2857143   0.5714286), wk =   0.1399417
        k(   12) = (  -0.1428571  -0.1428571   0.5714286), wk =   0.1399417
        k(   13) = (  -0.1428571   0.7142857  -0.2857143), wk =   0.1399417
        k(   14) = (  -0.2857143   0.2857143   0.2857143), wk =   0.0466472
        k(   15) = (   0.5714286  -0.5714286   0.2857143), wk =   0.1399417
        k(   16) = (   0.4285714  -0.5714286   0.4285714), wk =   0.0466472
        k(   17) = (   0.0000000   0.0000000   0.5714286), wk =   0.0349854
        k(   18) = (   0.0000000  -0.1428571   0.7142857), wk =   0.1399417
        k(   19) = (  -0.1428571   0.8571429  -0.1428571), wk =   0.0466472
        k(   20) = (   0.0000000   0.0000000   0.8571429), wk =   0.0349854

     Dense  grid:    19477 G-vectors     FFT dimensions: (  40,  40,  40)

     Estimated max dynamical RAM per process >      17.68 MB

     Estimated total dynamical RAM >      88.41 MB

     Check: negative/imaginary core charge=   -0.000011    0.000000

     Initial potential from superposition of free atoms

     starting charge    8.98437, renormalised to    9.00000
     Starting wfcs are    8 randomized atomic wfcs +    1 random wfcs

     total cpu time spent up to now is        1.2 secs

     Self-consistent Calculation

     iteration #  1     ecut=    45.00 Ry     beta= 0.70
     Davidson diagonalization with overlap
     ethr =  1.00E-02,  avg # of iterations =  7.1

     Threshold (ethr) on eigenvalues was too large:
     Diagonalizing with lowered threshold

     Davidson diagonalization with overlap
     ethr =  1.25E-05,  avg # of iterations =  6.8

     total cpu time spent up to now is        2.7 secs

     total energy              =     -58.74225165 Ry
     Harris-Foulkes estimate   =     -58.74281989 Ry
     estimated scf accuracy    <       0.00113196 Ry

     iteration #  2     ecut=    45.00 Ry     beta= 0.70
     Davidson diagonalization with overlap
     ethr =  1.26E-05,  avg # of iterations =  2.1

     total cpu time spent up to now is        3.3 secs

     total energy              =     -58.74245052 Ry
     Harris-Foulkes estimate   =     -58.74246792 Ry
     estimated scf accuracy    <       0.00008939 Ry

     iteration #  3     ecut=    45.00 Ry     beta= 0.70
     Davidson diagonalization with overlap
     ethr =  9.93E-07,  avg # of iterations =  1.8

     total cpu time spent up to now is        3.7 secs

     total energy              =     -58.74245949 Ry
     Harris-Foulkes estimate   =     -58.74245871 Ry
     estimated scf accuracy    <       0.00000567 Ry

     iteration #  4     ecut=    45.00 Ry     beta= 0.70
     Davidson diagonalization with overlap
     ethr =  6.30E-08,  avg # of iterations =  1.6

     total cpu time spent up to now is        4.1 secs

     total energy              =     -58.74246004 Ry
     Harris-Foulkes estimate   =     -58.74246004 Ry
     estimated scf accuracy    <       0.00000003 Ry

     iteration #  5     ecut=    45.00 Ry     beta= 0.70
     Davidson diagonalization with overlap
     ethr =  3.80E-10,  avg # of iterations =  2.2

     total cpu time spent up to now is        4.6 secs

     End of self-consistent calculation

          k = 0.0000 0.0000 0.0000 (  2491 PWs)   bands (ev):

   -30.0978 -13.7356 -13.7356 -13.7356  -0.4764   5.9301   5.9301   6.8756
     6.8756

          k = 0.0000-0.1429 0.1429 (  2439 PWs)   bands (ev):

   -30.0967 -13.7508 -13.7406 -13.7355  -0.2157   5.5217   5.6507   6.1391
     6.6347

          k = 0.0000-0.2857 0.2857 (  2455 PWs)   bands (ev):

   -30.0945 -13.7847 -13.7520 -13.7354   0.5294   4.3402   5.1741   6.7087
     6.7465

          k = 0.0000-0.4286 0.4286 (  2435 PWs)   bands (ev):

   -30.0927 -13.8114 -13.7610 -13.7353   1.6418   3.0144   4.8756   6.5874
     7.2096

          k =-0.1429-0.1429 0.2857 (  2431 PWs)   bands (ev):

   -30.0951 -13.7740 -13.7465 -13.7390   0.2880   4.8549   5.1293   6.4803
     6.4928

          k =-0.1429-0.2857 0.4286 (  2436 PWs)   bands (ev):

   -30.0931 -13.7994 -13.7602 -13.7404   1.2256   3.7520   4.6638   6.4862
     6.9130

          k =-0.1429 0.5714-0.4286 (  2448 PWs)   bands (ev):

   -30.0922 -13.8101 -13.7672 -13.7406   2.3451   2.5750   4.5037   6.2770
     7.2978

          k =-0.2857 0.7143-0.4286 (  2448 PWs)   bands (ev):

   -30.0920 -13.7994 -13.7781 -13.7449   2.2793   3.3125   3.7296   6.3047
     6.8391

          k = 0.0000 0.0000 0.2857 (  2439 PWs)   bands (ev):

   -30.0957 -13.7541 -13.7458 -13.7458   0.0396   5.5435   5.5435   5.7333
     6.2291

          k = 0.0000-0.1429 0.4286 (  2451 PWs)   bands (ev):

   -30.0937 -13.7828 -13.7575 -13.7473   0.7694   4.4294   5.2017   5.7495
     6.7604

          k = 0.0000-0.2857 0.5714 (  2443 PWs)   bands (ev):

   -30.0920 -13.8075 -13.7668 -13.7465   1.8634   3.1604   4.9531   5.6629
     7.0184

          k =-0.1429-0.1429 0.5714 (  2453 PWs)   bands (ev):

   -30.0918 -13.7973 -13.7724 -13.7527   1.6636   3.8106   4.5314   5.8834
     6.5730

          k =-0.1429 0.7143-0.2857 (  2453 PWs)   bands (ev):

   -30.0910 -13.8030 -13.7818 -13.7529   2.7955   2.8294   4.1262   5.9599
     6.7016

          k =-0.2857 0.2857 0.2857 (  2424 PWs)   bands (ev):

   -30.0936 -13.7941 -13.7482 -13.7482   1.0036   4.3131   4.3131   6.4684
     7.0951

          k = 0.5714-0.5714 0.2857 (  2439 PWs)   bands (ev):

   -30.0925 -13.8000 -13.7660 -13.7496   2.0820   3.2882   4.0415   5.8025
     7.2500

          k = 0.4286-0.5714 0.4286 (  2421 PWs)   bands (ev):

   -30.0921 -13.7826 -13.7826 -13.7572   3.0627   3.0627   3.3595   5.1834
     7.3727

          k = 0.0000 0.0000 0.5714 (  2446 PWs)   bands (ev):

   -30.0917 -13.7826 -13.7698 -13.7698   1.4484   4.2920   5.1891   5.1891
     6.3011

          k = 0.0000-0.1429 0.7143 (  2459 PWs)   bands (ev):

   -30.0903 -13.7988 -13.7797 -13.7713   2.4386   3.5009   4.9079   5.1214
     6.1354

          k =-0.1429 0.8571-0.1429 (  2460 PWs)   bands (ev):

   -30.0895 -13.7940 -13.7940 -13.7739   3.2018   3.2018   4.2462   5.7760
     5.7760

          k = 0.0000 0.0000 0.8571 (  2458 PWs)   bands (ev):

   -30.0889 -13.7926 -13.7900 -13.7900   3.1098   3.5020   5.2236   5.2450
     5.2450

     the Fermi energy is     1.7337 ev

!    total energy              =     -58.74246005 Ry
     Harris-Foulkes estimate   =     -58.74246005 Ry
     estimated scf accuracy    <          1.0E-09 Ry

     The total energy is the sum of the following terms:

     one-electron contribution =     -36.65310337 Ry
     hartree contribution      =      18.82479295 Ry
     xc contribution           =     -11.01722119 Ry
     ewald contribution        =     -29.89633975 Ry
     smearing contrib. (-TS)   =      -0.00058869 Ry

     convergence has been achieved in   5 iterations

     Forces acting on atoms (cartesian axes, Ry/au):

     atom    1 type  1   force =     0.00000000    0.00000000    0.00000000

     Total force =     0.000000     Total SCF correction =     0.000000


     Computing stress (Cartesian axis) and pressure

          total   stress  (Ry/bohr**3)                   (kbar)     P=   -4.95
  -0.00003365   0.00000000  -0.00000000         -4.95      0.00     -0.00
   0.00000000  -0.00003365   0.00000000          0.00     -4.95      0.00
  -0.00000000   0.00000000  -0.00003365         -0.00      0.00     -4.95


     Writing output data file K.save/

     init_run     :      0.35s CPU      0.36s WALL (       1 calls)
     electrons    :      3.26s CPU      3.42s WALL (       1 calls)
     forces       :      0.10s CPU      0.10s WALL (       1 calls)
     stress       :      0.35s CPU      0.36s WALL (       1 calls)

     Called by init_run:
     wfcinit      :      0.14s CPU      0.15s WALL (       1 calls)
     potinit      :      0.01s CPU      0.01s WALL (       1 calls)
     hinit0       :      0.16s CPU      0.16s WALL (       1 calls)

     Called by electrons:
     c_bands      :      2.60s CPU      2.73s WALL (       6 calls)
     sum_band     :      0.53s CPU      0.56s WALL (       6 calls)
     v_of_rho     :      0.01s CPU      0.01s WALL (       6 calls)
     newd         :      0.12s CPU      0.13s WALL (       6 calls)
     mix_rho      :      0.01s CPU      0.01s WALL (       6 calls)

     Called by c_bands:
     init_us_2    :      0.10s CPU      0.10s WALL (     300 calls)
     cegterg      :      2.49s CPU      2.62s WALL (     120 calls)

     Called by sum_band:
     sum_band:bec :      0.00s CPU      0.00s WALL (     120 calls)
     addusdens    :      0.11s CPU      0.11s WALL (       6 calls)

     Called by *egterg:
     h_psi        :      2.04s CPU      2.16s WALL (     573 calls)
     s_psi        :      0.06s CPU      0.06s WALL (     573 calls)
     g_psi        :      0.01s CPU      0.01s WALL (     433 calls)
     cdiaghg      :      0.13s CPU      0.13s WALL (     533 calls)

     Called by h_psi:
     h_psi:pot    :      2.03s CPU      2.15s WALL (     573 calls)
     h_psi:calbec :      0.12s CPU      0.13s WALL (     573 calls)
     vloc_psi     :      1.84s CPU      1.95s WALL (     573 calls)
     add_vuspsi   :      0.06s CPU      0.07s WALL (     573 calls)

     General routines
     calbec       :      0.19s CPU      0.20s WALL (     793 calls)
     fft          :      0.02s CPU      0.02s WALL (      34 calls)
     ffts         :      0.00s CPU      0.00s WALL (       6 calls)
     fftw         :      2.02s CPU      2.14s WALL (    7400 calls)

     Parallel routines
     fft_scatt_xy :      0.15s CPU      0.16s WALL (    7440 calls)
     fft_scatt_yz :      0.64s CPU      0.68s WALL (    7440 calls)

     PWSCF        :     4.88s CPU         5.14s WALL


   This run was terminated on:   0:31:28   8Apr2024            

=------------------------------------------------------------------------------=
   JOB DONE.
=------------------------------------------------------------------------------=
