
     Program PWSCF v.6.3MaX starts on  8Apr2024 at  0:21: 9 

     This program is part of the open-source Quantum ESPRESSO suite
     for quantum simulation of materials; please cite
         "P. Giannozzi et al., J. Phys.:Condens. Matter 21 395502 (2009);
         "P. Giannozzi et al., J. Phys.:Condens. Matter 29 465901 (2017);
          URL http://www.quantum-espresso.org", 
     in publications or presentations arising from this work. More details at
     http://www.quantum-espresso.org/quote

     Parallel version (MPI), running on     5 processors

     MPI processes distributed on     1 nodes
     R & G space division:  proc/nbgrp/npool/nimage =       5
     Waiting for input...
     Reading input from standard input

     Current dimensions of program PWSCF are:
     Max number of different atomic species (ntypx) = 10
     Max number of k-points (npk) =  40000
     Max angular momentum in pseudopotentials (lmaxx) =  3
               file K.pz-spn-rrkjus_psl.1.0.0.UPF: wavefunction(s)  3S renormalized

     Subspace diagonalization in iterative solution of the eigenvalue problem:
     a serial algorithm will be used


     Parallelization info
     --------------------
     sticks:   dense  smooth     PW     G-vecs:    dense   smooth      PW
     Min         131     131     41                 2128     2128     373
     Max         132     132     41                 2129     2129     373
     Sum         657     657    205                10641    10641    1865



     bravais-lattice index     =            3
     lattice parameter (alat)  =       9.8600  a.u.
     unit-cell volume          =     479.2926 (a.u.)^3
     number of atoms/cell      =            1
     number of atomic types    =            1
     number of electrons       =         9.00
     number of Kohn-Sham states=            9
     kinetic-energy cutoff     =      30.0000  Ry
     charge density cutoff     =     120.0000  Ry
     convergence threshold     =      1.0E-08
     mixing beta               =       0.7000
     number of iterations used =            8  plain     mixing
     Exchange-correlation      = LDA ( 1  1  0  0 0 0)

     celldm(1)=   9.860000  celldm(2)=   0.000000  celldm(3)=   0.000000
     celldm(4)=   0.000000  celldm(5)=   0.000000  celldm(6)=   0.000000

     crystal axes: (cart. coord. in units of alat)
               a(1) = (   0.500000   0.500000   0.500000 )  
               a(2) = (  -0.500000   0.500000   0.500000 )  
               a(3) = (  -0.500000  -0.500000   0.500000 )  

     reciprocal axes: (cart. coord. in units 2 pi/alat)
               b(1) = (  1.000000  0.000000  1.000000 )  
               b(2) = ( -1.000000  1.000000  0.000000 )  
               b(3) = (  0.000000 -1.000000  1.000000 )  


     PseudoPot. # 1 for K  read from file:
     /home/lorenzo/pseudos/K/K.pz-spn-rrkjus_psl.1.0.0.UPF
     MD5 check sum: af434a66a3b91719abff201b8f79bb09
     Pseudo is Ultrasoft + core correction, Zval =  9.0
     Generated using "atomic" code by A. Dal Corso v.6.2.2
     Using radial grid of 1165 points,  6 beta functions with: 
                l(1) =   0
                l(2) =   0
                l(3) =   1
                l(4) =   1
                l(5) =   2
                l(6) =   2
     Q(r) pseudized with 0 coefficients 


     atomic species   valence    mass     pseudopotential
        K              9.00    39.09830     K ( 1.00)

     48 Sym. Ops., with inversion, found



   Cartesian axes

     site n.     atom                  positions (alat units)
         1           K   tau(   1) = (   0.0000000   0.0000000   0.0000000  )

     number of k points=    29  gaussian smearing, width (Ry)=  0.0100
                       cart. coord. in units 2pi/alat
        k(    1) = (   0.0000000   0.0000000   0.0000000), wk =   0.0039062
        k(    2) = (   0.0000000  -0.1250000   0.1250000), wk =   0.0468750
        k(    3) = (   0.0000000  -0.2500000   0.2500000), wk =   0.0468750
        k(    4) = (   0.0000000  -0.3750000   0.3750000), wk =   0.0468750
        k(    5) = (   0.0000000   0.5000000  -0.5000000), wk =   0.0234375
        k(    6) = (  -0.1250000  -0.1250000   0.2500000), wk =   0.0937500
        k(    7) = (  -0.1250000  -0.2500000   0.3750000), wk =   0.1875000
        k(    8) = (  -0.1250000   0.6250000  -0.5000000), wk =   0.1875000
        k(    9) = (  -0.2500000   0.7500000  -0.5000000), wk =   0.0937500
        k(   10) = (  -0.2500000   0.6250000  -0.3750000), wk =   0.0937500
        k(   11) = (   0.0000000   0.0000000   0.2500000), wk =   0.0234375
        k(   12) = (   0.0000000  -0.1250000   0.3750000), wk =   0.0937500
        k(   13) = (   0.0000000  -0.2500000   0.5000000), wk =   0.0937500
        k(   14) = (   0.0000000   0.6250000  -0.3750000), wk =   0.0468750
        k(   15) = (  -0.1250000  -0.1250000   0.5000000), wk =   0.0937500
        k(   16) = (  -0.1250000   0.7500000  -0.3750000), wk =   0.1875000
        k(   17) = (  -0.2500000   0.2500000   0.2500000), wk =   0.0312500
        k(   18) = (  -0.2500000   0.7500000  -0.2500000), wk =   0.0312500
        k(   19) = (   0.6250000  -0.6250000   0.2500000), wk =   0.0937500
        k(   20) = (   0.5000000  -0.5000000   0.2500000), wk =   0.0468750
        k(   21) = (   0.5000000  -0.6250000   0.3750000), wk =   0.0937500
        k(   22) = (   0.0000000   0.0000000   0.5000000), wk =   0.0234375
        k(   23) = (   0.0000000  -0.1250000   0.6250000), wk =   0.0937500
        k(   24) = (   0.0000000   0.7500000  -0.2500000), wk =   0.0468750
        k(   25) = (  -0.1250000   0.8750000  -0.2500000), wk =   0.0937500
        k(   26) = (   0.5000000  -0.5000000   0.5000000), wk =   0.0078125
        k(   27) = (   0.0000000   0.0000000   0.7500000), wk =   0.0234375
        k(   28) = (   0.0000000   0.8750000  -0.1250000), wk =   0.0468750
        k(   29) = (   0.0000000   0.0000000  -1.0000000), wk =   0.0039062

     Dense  grid:    10641 G-vectors     FFT dimensions: (  30,  30,  30)

     Estimated max dynamical RAM per process >      10.33 MB

     Estimated total dynamical RAM >      51.67 MB

     Check: negative/imaginary core charge=   -0.000030    0.000000

     Initial potential from superposition of free atoms

     starting charge    8.98437, renormalised to    9.00000
     Starting wfcs are    8 randomized atomic wfcs +    1 random wfcs

     total cpu time spent up to now is        1.0 secs

     Self-consistent Calculation

     iteration #  1     ecut=    30.00 Ry     beta= 0.70
     Davidson diagonalization with overlap
     ethr =  1.00E-02,  avg # of iterations =  6.6

     Threshold (ethr) on eigenvalues was too large:
     Diagonalizing with lowered threshold

     Davidson diagonalization with overlap
     ethr =  1.28E-05,  avg # of iterations =  6.4

     total cpu time spent up to now is        2.0 secs

     total energy              =     -58.73932716 Ry
     Harris-Foulkes estimate   =     -58.73991357 Ry
     estimated scf accuracy    <       0.00114968 Ry

     iteration #  2     ecut=    30.00 Ry     beta= 0.70
     Davidson diagonalization with overlap
     ethr =  1.28E-05,  avg # of iterations =  2.1

     total cpu time spent up to now is        2.4 secs

     total energy              =     -58.73953542 Ry
     Harris-Foulkes estimate   =     -58.73955282 Ry
     estimated scf accuracy    <       0.00009118 Ry

     iteration #  3     ecut=    30.00 Ry     beta= 0.70
     Davidson diagonalization with overlap
     ethr =  1.01E-06,  avg # of iterations =  1.9

     total cpu time spent up to now is        2.6 secs

     total energy              =     -58.73954450 Ry
     Harris-Foulkes estimate   =     -58.73954365 Ry
     estimated scf accuracy    <       0.00000575 Ry

     iteration #  4     ecut=    30.00 Ry     beta= 0.70
     Davidson diagonalization with overlap
     ethr =  6.39E-08,  avg # of iterations =  1.3

     total cpu time spent up to now is        2.9 secs

     total energy              =     -58.73954502 Ry
     Harris-Foulkes estimate   =     -58.73954501 Ry
     estimated scf accuracy    <       0.00000003 Ry

     iteration #  5     ecut=    30.00 Ry     beta= 0.70
     Davidson diagonalization with overlap
     ethr =  3.56E-10,  avg # of iterations =  2.6

     total cpu time spent up to now is        3.2 secs

     End of self-consistent calculation

          k = 0.0000 0.0000 0.0000 (  1289 PWs)   bands (ev):

   -30.0970 -13.7328 -13.7328 -13.7328  -0.4762   5.9456   5.9456   5.9456
     6.8954

          k = 0.0000-0.1250 0.1250 (  1346 PWs)   bands (ev):

   -30.0964 -13.7466 -13.7386 -13.7347  -0.2760   5.6389   5.7177   6.1018
     6.6629

          k = 0.0000-0.2500 0.2500 (  1336 PWs)   bands (ev):

   -30.0945 -13.7749 -13.7480 -13.7346   0.3028   4.6665   5.2938   6.5730
     6.6991

          k = 0.0000-0.3750 0.3750 (  1330 PWs)   bands (ev):

   -30.0927 -13.8023 -13.7578 -13.7345   1.1945   3.5164   4.9622   6.6770
     7.0758

          k = 0.0000 0.5000-0.5000 (  1340 PWs)   bands (ev):

   -30.0919 -13.8142 -13.7619 -13.7348   2.1448   2.4895   4.8418   6.5433
     7.3788

          k =-0.1250-0.1250 0.2500 (  1343 PWs)   bands (ev):

   -30.0951 -13.7661 -13.7432 -13.7375   0.1139   5.0859   5.2902   6.3821
     6.5040

          k =-0.1250-0.2500 0.3750 (  1333 PWs)   bands (ev):

   -30.0932 -13.7912 -13.7544 -13.7383   0.8525   4.1277   4.8536   6.5391
     6.8252

          k =-0.1250 0.6250-0.5000 (  1322 PWs)   bands (ev):

   -30.0919 -13.8074 -13.7635 -13.7384   1.8502   3.0187   4.6210   6.3648
     7.2161

          k =-0.2500 0.7500-0.5000 (  1332 PWs)   bands (ev):

   -30.0919 -13.7994 -13.7681 -13.7428   1.7070   3.6306   4.1225   6.4656
     6.7269

          k =-0.2500 0.6250-0.3750 (  1330 PWs)   bands (ev):

   -30.0914 -13.7990 -13.7778 -13.7441   2.7329   2.7595   3.8143   6.2496
     7.0151

          k = 0.0000 0.0000 0.2500 (  1345 PWs)   bands (ev):

   -30.0956 -13.7496 -13.7427 -13.7427  -0.0790   5.6197   5.6197   5.9435
     6.1730

          k = 0.0000-0.1250 0.3750 (  1337 PWs)   bands (ev):

   -30.0938 -13.7740 -13.7523 -13.7439   0.4908   4.7307   5.2990   5.8614
     6.5879

          k = 0.0000-0.2500 0.5000 (  1340 PWs)   bands (ev):

   -30.0921 -13.8001 -13.7623 -13.7436   1.3695   3.6163   5.0130   5.8673
     7.0982

          k = 0.0000 0.6250-0.3750 (  1334 PWs)   bands (ev):

   -30.0913 -13.8110 -13.7662 -13.7429   2.3494   2.5728   4.9071   5.7618
     7.1508

          k =-0.1250-0.1250 0.5000 (  1332 PWs)   bands (ev):

   -30.0921 -13.7903 -13.7641 -13.7490   1.2044   4.1278   4.7973   5.8768
     6.7752

          k =-0.1250 0.7500-0.3750 (  1326 PWs)   bands (ev):

   -30.0909 -13.8023 -13.7749 -13.7493   2.1706   3.2355   4.3744   5.9342
     6.7619

          k =-0.2500 0.2500 0.2500 (  1331 PWs)   bands (ev):

   -30.0937 -13.7869 -13.7439 -13.7439   0.6745   4.5755   4.5755   6.5724
     7.0130

          k =-0.2500 0.7500-0.2500 (  1340 PWs)   bands (ev):

   -30.0904 -13.7928 -13.7928 -13.7508   3.0231   3.0232   3.5253   6.5025
     6.9865

          k = 0.6250-0.6250 0.2500 (  1332 PWs)   bands (ev):

   -30.0923 -13.7990 -13.7591 -13.7453   1.5442   3.6681   4.2609   6.2063
     7.1644

          k = 0.5000-0.5000 0.2500 (  1326 PWs)   bands (ev):

   -30.0917 -13.8017 -13.7674 -13.7455   2.5453   2.6712   4.1558   5.8963
     7.2966

          k = 0.5000-0.6250 0.3750 (  1323 PWs)   bands (ev):

   -30.0917 -13.7923 -13.7714 -13.7526   2.4763   3.3333   3.6237   5.4640
     7.2962

          k = 0.0000 0.0000 0.5000 (  1333 PWs)   bands (ev):

   -30.0922 -13.7758 -13.7624 -13.7624   1.0321   4.6084   5.2407   5.2407
     6.7786

          k = 0.0000-0.1250 0.6250 (  1323 PWs)   bands (ev):

   -30.0905 -13.7937 -13.7724 -13.7643   1.8597   3.8207   5.1208   5.1452
     6.3157

          k = 0.0000 0.7500-0.2500 (  1324 PWs)   bands (ev):

   -30.0898 -13.8027 -13.7768 -13.7635   2.8179   2.8890   4.9372   5.0631
     6.4936

          k =-0.1250 0.8750-0.2500 (  1327 PWs)   bands (ev):

   -30.0894 -13.7966 -13.7856 -13.7679   2.7032   3.4288   4.3090   5.6612
     6.0615

          k = 0.5000-0.5000 0.5000 (  1304 PWs)   bands (ev):

   -30.0915 -13.7725 -13.7725 -13.7725   3.2358   3.2358   3.2358   4.7549
     7.4603

          k = 0.0000 0.0000 0.7500 (  1324 PWs)   bands (ev):

   -30.0890 -13.7901 -13.7830 -13.7830   2.5583   3.7129   5.1986   5.1986
     5.4192

          k = 0.0000 0.8750-0.1250 (  1312 PWs)   bands (ev):

   -30.0884 -13.7948 -13.7873 -13.7834   3.1777   3.3570   4.8340   5.2204
     5.6935

          k = 0.0000 0.0000-1.0000 (  1312 PWs)   bands (ev):

   -30.0878 -13.7917 -13.7917 -13.7917   3.4053   5.2847   5.2847   5.2847
     7.2561

     the Fermi energy is     1.7681 ev

!    total energy              =     -58.73954503 Ry
     Harris-Foulkes estimate   =     -58.73954503 Ry
     estimated scf accuracy    <          1.1E-09 Ry

     The total energy is the sum of the following terms:

     one-electron contribution =     -36.64961322 Ry
     hartree contribution      =      18.82354725 Ry
     xc contribution           =     -11.01636970 Ry
     ewald contribution        =     -29.89633973 Ry
     smearing contrib. (-TS)   =      -0.00076963 Ry

     convergence has been achieved in   5 iterations

     Forces acting on atoms (cartesian axes, Ry/au):

     atom    1 type  1   force =     0.00000000    0.00000000    0.00000000

     Total force =     0.000000     Total SCF correction =     0.000000


     Computing stress (Cartesian axis) and pressure

          total   stress  (Ry/bohr**3)                   (kbar)     P=   -8.83
  -0.00006004   0.00000000  -0.00000000         -8.83      0.00     -0.00
  -0.00000000  -0.00006004   0.00000000         -0.00     -8.83      0.00
  -0.00000000   0.00000000  -0.00006004         -0.00      0.00     -8.83


     Writing output data file K.save/

     init_run     :      0.25s CPU      0.27s WALL (       1 calls)
     electrons    :      2.18s CPU      2.27s WALL (       1 calls)
     forces       :      0.06s CPU      0.06s WALL (       1 calls)
     stress       :      0.17s CPU      0.17s WALL (       1 calls)

     Called by init_run:
     wfcinit      :      0.09s CPU      0.10s WALL (       1 calls)
     potinit      :      0.01s CPU      0.01s WALL (       1 calls)
     hinit0       :      0.13s CPU      0.13s WALL (       1 calls)

     Called by electrons:
     c_bands      :      1.77s CPU      1.84s WALL (       6 calls)
     sum_band     :      0.34s CPU      0.36s WALL (       6 calls)
     v_of_rho     :      0.01s CPU      0.01s WALL (       6 calls)
     newd         :      0.07s CPU      0.07s WALL (       6 calls)
     mix_rho      :      0.01s CPU      0.01s WALL (       6 calls)

     Called by c_bands:
     init_us_2    :      0.07s CPU      0.08s WALL (     435 calls)
     cegterg      :      1.69s CPU      1.75s WALL (     174 calls)

     Called by sum_band:
     sum_band:bec :      0.00s CPU      0.00s WALL (     174 calls)
     addusdens    :      0.06s CPU      0.07s WALL (       6 calls)

     Called by *egterg:
     h_psi        :      1.29s CPU      1.35s WALL (     807 calls)
     s_psi        :      0.05s CPU      0.05s WALL (     807 calls)
     g_psi        :      0.00s CPU      0.01s WALL (     604 calls)
     cdiaghg      :      0.17s CPU      0.17s WALL (     749 calls)

     Called by h_psi:
     h_psi:pot    :      1.29s CPU      1.34s WALL (     807 calls)
     h_psi:calbec :      0.07s CPU      0.07s WALL (     807 calls)
     vloc_psi     :      1.16s CPU      1.21s WALL (     807 calls)
     add_vuspsi   :      0.05s CPU      0.05s WALL (     807 calls)

     General routines
     calbec       :      0.12s CPU      0.12s WALL (    1126 calls)
     fft          :      0.02s CPU      0.02s WALL (      34 calls)
     ffts         :      0.00s CPU      0.00s WALL (       6 calls)
     fftw         :      1.28s CPU      1.34s WALL (   10608 calls)

     Parallel routines
     fft_scatt_xy :      0.11s CPU      0.12s WALL (   10648 calls)
     fft_scatt_yz :      0.32s CPU      0.34s WALL (   10648 calls)

     PWSCF        :     3.40s CPU         3.58s WALL


   This run was terminated on:   0:21:13   8Apr2024            

=------------------------------------------------------------------------------=
   JOB DONE.
=------------------------------------------------------------------------------=
