
     Program PWSCF v.6.3MaX starts on  8Apr2024 at  0:33:35 

     This program is part of the open-source Quantum ESPRESSO suite
     for quantum simulation of materials; please cite
         "P. Giannozzi et al., J. Phys.:Condens. Matter 21 395502 (2009);
         "P. Giannozzi et al., J. Phys.:Condens. Matter 29 465901 (2017);
          URL http://www.quantum-espresso.org", 
     in publications or presentations arising from this work. More details at
     http://www.quantum-espresso.org/quote

     Parallel version (MPI), running on     5 processors

     MPI processes distributed on     1 nodes
     R & G space division:  proc/nbgrp/npool/nimage =       5
     Waiting for input...
     Reading input from standard input

     Current dimensions of program PWSCF are:
     Max number of different atomic species (ntypx) = 10
     Max number of k-points (npk) =  40000
     Max angular momentum in pseudopotentials (lmaxx) =  3
               file K.pz-spn-kjpaw_psl.1.0.0.UPF: wavefunction(s)  3S renormalized

     Subspace diagonalization in iterative solution of the eigenvalue problem:
     a serial algorithm will be used


     Parallelization info
     --------------------
     sticks:   dense  smooth     PW     G-vecs:    dense   smooth      PW
     Min         221     221     63                 4575     4575     717
     Max         221     221     65                 4576     4576     718
     Sum        1105    1105    321                22879    22879    3589



     bravais-lattice index     =            3
     lattice parameter (alat)  =       9.8600  a.u.
     unit-cell volume          =     479.2926 (a.u.)^3
     number of atoms/cell      =            1
     number of atomic types    =            1
     number of electrons       =         9.00
     number of Kohn-Sham states=            9
     kinetic-energy cutoff     =      50.0000  Ry
     charge density cutoff     =     200.0000  Ry
     convergence threshold     =      1.0E-08
     mixing beta               =       0.7000
     number of iterations used =            8  plain     mixing
     Exchange-correlation      = SLA PZ NOGX NOGC ( 1  1  0  0 0 0)

     celldm(1)=   9.860000  celldm(2)=   0.000000  celldm(3)=   0.000000
     celldm(4)=   0.000000  celldm(5)=   0.000000  celldm(6)=   0.000000

     crystal axes: (cart. coord. in units of alat)
               a(1) = (   0.500000   0.500000   0.500000 )  
               a(2) = (  -0.500000   0.500000   0.500000 )  
               a(3) = (  -0.500000  -0.500000   0.500000 )  

     reciprocal axes: (cart. coord. in units 2 pi/alat)
               b(1) = (  1.000000  0.000000  1.000000 )  
               b(2) = ( -1.000000  1.000000  0.000000 )  
               b(3) = (  0.000000 -1.000000  1.000000 )  


     PseudoPot. # 1 for K  read from file:
     /home/lorenzo/pseudos/K/K.pz-spn-kjpaw_psl.1.0.0.UPF
     MD5 check sum: 59b94f4c1a6681f21e103574f2c5fc67
     Pseudo is Projector augmented-wave + core cor, Zval =  9.0
     Generated using "atomic" code by A. Dal Corso v.6.2.2
     Shape of augmentation charge: PSQ
     Using radial grid of 1165 points,  6 beta functions with: 
                l(1) =   0
                l(2) =   0
                l(3) =   1
                l(4) =   1
                l(5) =   2
                l(6) =   2
     Q(r) pseudized with 0 coefficients 


     atomic species   valence    mass     pseudopotential
        K              9.00    39.09830     K ( 1.00)

     48 Sym. Ops., with inversion, found



   Cartesian axes

     site n.     atom                  positions (alat units)
         1           K   tau(   1) = (   0.0000000   0.0000000   0.0000000  )

     number of k points=    56  gaussian smearing, width (Ry)=  0.0100
                       cart. coord. in units 2pi/alat
        k(    1) = (   0.0000000   0.0000000   0.0000000), wk =   0.0015026
        k(    2) = (   0.0000000  -0.0909091   0.0909091), wk =   0.0180316
        k(    3) = (   0.0000000  -0.1818182   0.1818182), wk =   0.0180316
        k(    4) = (   0.0000000  -0.2727273   0.2727273), wk =   0.0180316
        k(    5) = (   0.0000000  -0.3636364   0.3636364), wk =   0.0180316
        k(    6) = (   0.0000000  -0.4545455   0.4545455), wk =   0.0180316
        k(    7) = (  -0.0909091  -0.0909091   0.1818182), wk =   0.0360631
        k(    8) = (  -0.0909091  -0.1818182   0.2727273), wk =   0.0721262
        k(    9) = (  -0.0909091  -0.2727273   0.3636364), wk =   0.0721262
        k(   10) = (  -0.0909091  -0.3636364   0.4545455), wk =   0.0721262
        k(   11) = (  -0.0909091   0.5454545  -0.4545455), wk =   0.0360631
        k(   12) = (  -0.1818182  -0.1818182   0.3636364), wk =   0.0360631
        k(   13) = (  -0.1818182  -0.2727273   0.4545455), wk =   0.0721262
        k(   14) = (  -0.1818182   0.6363636  -0.4545455), wk =   0.0721262
        k(   15) = (  -0.2727273   0.7272727  -0.4545455), wk =   0.0360631
        k(   16) = (  -0.2727273   0.6363636  -0.3636364), wk =   0.0360631
        k(   17) = (   0.0000000   0.0000000   0.1818182), wk =   0.0090158
        k(   18) = (   0.0000000  -0.0909091   0.2727273), wk =   0.0360631
        k(   19) = (   0.0000000  -0.1818182   0.3636364), wk =   0.0360631
        k(   20) = (   0.0000000  -0.2727273   0.4545455), wk =   0.0360631
        k(   21) = (   0.0000000  -0.3636364   0.5454545), wk =   0.0360631
        k(   22) = (  -0.0909091  -0.0909091   0.3636364), wk =   0.0360631
        k(   23) = (  -0.0909091  -0.1818182   0.4545455), wk =   0.0721262
        k(   24) = (  -0.0909091  -0.2727273   0.5454545), wk =   0.0721262
        k(   25) = (  -0.0909091   0.6363636  -0.3636364), wk =   0.0360631
        k(   26) = (  -0.1818182   0.1818182   0.1818182), wk =   0.0120210
        k(   27) = (  -0.1818182  -0.1818182   0.5454545), wk =   0.0360631
        k(   28) = (  -0.1818182   0.7272727  -0.3636364), wk =   0.0721262
        k(   29) = (  -0.2727273   0.2727273   0.1818182), wk =   0.0360631
        k(   30) = (  -0.2727273   0.7272727  -0.2727273), wk =   0.0120210
        k(   31) = (  -0.3636364   0.3636364   0.1818182), wk =   0.0360631
        k(   32) = (  -0.3636364   0.2727273   0.2727273), wk =   0.0360631
        k(   33) = (   0.5454545  -0.5454545   0.1818182), wk =   0.0360631
        k(   34) = (   0.5454545  -0.6363636   0.2727273), wk =   0.0721262
        k(   35) = (   0.4545455  -0.5454545   0.2727273), wk =   0.0360631
        k(   36) = (   0.4545455  -0.6363636   0.3636364), wk =   0.0360631
        k(   37) = (   0.0000000   0.0000000   0.3636364), wk =   0.0090158
        k(   38) = (   0.0000000  -0.0909091   0.4545455), wk =   0.0360631
        k(   39) = (   0.0000000  -0.1818182   0.5454545), wk =   0.0360631
        k(   40) = (   0.0000000  -0.2727273   0.6363636), wk =   0.0360631
        k(   41) = (  -0.0909091  -0.0909091   0.5454545), wk =   0.0360631
        k(   42) = (  -0.0909091  -0.1818182   0.6363636), wk =   0.0721262
        k(   43) = (  -0.0909091   0.7272727  -0.2727273), wk =   0.0360631
        k(   44) = (  -0.1818182   0.8181818  -0.2727273), wk =   0.0360631
        k(   45) = (   0.6363636  -0.6363636   0.3636364), wk =   0.0120210
        k(   46) = (   0.5454545  -0.5454545   0.3636364), wk =   0.0360631
        k(   47) = (   0.4545455  -0.5454545   0.4545455), wk =   0.0120210
        k(   48) = (   0.0000000   0.0000000   0.5454545), wk =   0.0090158
        k(   49) = (   0.0000000  -0.0909091   0.6363636), wk =   0.0360631
        k(   50) = (   0.0000000  -0.1818182   0.7272727), wk =   0.0360631
        k(   51) = (  -0.0909091  -0.0909091   0.7272727), wk =   0.0360631
        k(   52) = (  -0.0909091   0.8181818  -0.1818182), wk =   0.0360631
        k(   53) = (   0.0000000   0.0000000   0.7272727), wk =   0.0090158
        k(   54) = (   0.0000000  -0.0909091   0.8181818), wk =   0.0360631
        k(   55) = (  -0.0909091   0.9090909  -0.0909091), wk =   0.0120210
        k(   56) = (   0.0000000   0.0000000   0.9090909), wk =   0.0090158

     Dense  grid:    22879 G-vectors     FFT dimensions: (  40,  40,  40)

     Estimated max dynamical RAM per process >      23.23 MB

     Estimated total dynamical RAM >     116.16 MB

     Check: negative/imaginary core charge=   -0.000006    0.000000

     Initial potential from superposition of free atoms

     starting charge    8.98437, renormalised to    9.00000
     Starting wfcs are    8 randomized atomic wfcs +    1 random wfcs
     Checking if some PAW data can be deallocated... 

     total cpu time spent up to now is        1.4 secs

     Self-consistent Calculation

     iteration #  1     ecut=    50.00 Ry     beta= 0.70
     Davidson diagonalization with overlap
     ethr =  1.00E-02,  avg # of iterations =  6.5

     Threshold (ethr) on eigenvalues was too large:
     Diagonalizing with lowered threshold

     Davidson diagonalization with overlap
     ethr =  1.22E-05,  avg # of iterations =  6.2

     total cpu time spent up to now is        5.3 secs

     total energy              =    -109.87132601 Ry
     Harris-Foulkes estimate   =    -109.87188175 Ry
     estimated scf accuracy    <       0.00110986 Ry

     iteration #  2     ecut=    50.00 Ry     beta= 0.70
     Davidson diagonalization with overlap
     ethr =  1.23E-05,  avg # of iterations =  2.3

     total cpu time spent up to now is        6.7 secs

     total energy              =    -109.87151166 Ry
     Harris-Foulkes estimate   =    -109.87153673 Ry
     estimated scf accuracy    <       0.00008869 Ry

     iteration #  3     ecut=    50.00 Ry     beta= 0.70
     Davidson diagonalization with overlap
     ethr =  9.85E-07,  avg # of iterations =  2.0

     total cpu time spent up to now is        7.9 secs

     total energy              =    -109.87152304 Ry
     Harris-Foulkes estimate   =    -109.87152278 Ry
     estimated scf accuracy    <       0.00000596 Ry

     iteration #  4     ecut=    50.00 Ry     beta= 0.70
     Davidson diagonalization with overlap
     ethr =  6.62E-08,  avg # of iterations =  1.5

     total cpu time spent up to now is        9.1 secs

     total energy              =    -109.87152371 Ry
     Harris-Foulkes estimate   =    -109.87152370 Ry
     estimated scf accuracy    <       0.00000004 Ry

     iteration #  5     ecut=    50.00 Ry     beta= 0.70
     Davidson diagonalization with overlap
     ethr =  4.55E-10,  avg # of iterations =  2.6

     total cpu time spent up to now is       10.4 secs

     End of self-consistent calculation

          k = 0.0000 0.0000 0.0000 (  2899 PWs)   bands (ev):

   -30.0986 -13.7366 -13.7366 -13.7366  -0.4766   5.9293   5.9293   5.9293
     6.8752

          k = 0.0000-0.0909 0.0909 (  2867 PWs)   bands (ev):

   -30.0982 -13.7429 -13.7387 -13.7365  -0.3703   5.7877   5.8040   6.0144
     6.7100

          k = 0.0000-0.1818 0.1818 (  2880 PWs)   bands (ev):

   -30.0971 -13.7602 -13.7444 -13.7365  -0.0574   5.2388   5.5175   6.2661
     6.6330

          k = 0.0000-0.2727 0.2727 (  2866 PWs)   bands (ev):

   -30.0956 -13.7824 -13.7519 -13.7365   0.4438   4.4577   5.2126   6.6752
     6.7014

          k = 0.0000-0.3636 0.3636 (  2854 PWs)   bands (ev):

   -30.0943 -13.8027 -13.7587 -13.7365   1.1025   3.6199   4.9771   6.6788
     7.0326

          k = 0.0000-0.4545 0.4545 (  2862 PWs)   bands (ev):

   -30.0935 -13.8147 -13.7627 -13.7365   1.8626   2.7789   4.8515   6.5559
     7.2837

          k =-0.0909-0.0909 0.1818 (  2867 PWs)   bands (ev):

   -30.0974 -13.7549 -13.7409 -13.7381  -0.1606   5.4775   5.5569   6.1749
     6.5393

          k =-0.0909-0.1818 0.2727 (  2870 PWs)   bands (ev):

   -30.0962 -13.7737 -13.7478 -13.7387   0.2469   4.8430   5.2242   6.4699
     6.5252

          k =-0.0909-0.2727 0.3636 (  2858 PWs)   bands (ev):

   -30.0948 -13.7936 -13.7561 -13.7389   0.8285   4.0624   4.9484   6.5544
     6.8833

          k =-0.0909-0.3636 0.4545 (  2861 PWs)   bands (ev):

   -30.0937 -13.8086 -13.7626 -13.7389   1.5460   3.2366   4.7696   6.4622
     7.1880

          k =-0.0909 0.5455-0.4545 (  2868 PWs)   bands (ev):

   -30.0933 -13.8141 -13.7651 -13.7389   2.2258   2.5233   4.7079   6.3752
     7.6787

          k =-0.1818-0.1818 0.3636 (  2858 PWs)   bands (ev):

   -30.0949 -13.7888 -13.7544 -13.7418   0.7360   4.3698   4.7834   6.5364
     6.6704

          k =-0.1818-0.2727 0.4545 (  2857 PWs)   bands (ev):

   -30.0938 -13.8009 -13.7639 -13.7431   1.3813   3.7287   4.4600   6.4863
     6.8022

          k =-0.1818 0.6364-0.4545 (  2859 PWs)   bands (ev):

   -30.0932 -13.8072 -13.7707 -13.7435   2.1359   2.9612   4.3050   6.2765
     7.0818

          k =-0.2727 0.7273-0.4545 (  2864 PWs)   bands (ev):

   -30.0931 -13.8015 -13.7757 -13.7455   2.0677   3.4206   3.8727   6.3494
     6.7913

          k =-0.2727 0.6364-0.3636 (  2868 PWs)   bands (ev):

   -30.0928 -13.7988 -13.7832 -13.7462   2.8105   2.8292   3.6395   6.2471
     6.9747

          k = 0.0000 0.0000 0.1818 (  2871 PWs)   bands (ev):

   -30.0978 -13.7448 -13.7408 -13.7408  -0.2649   5.7383   5.7383   6.0523
     6.3066

          k = 0.0000-0.0909 0.2727 (  2868 PWs)   bands (ev):

   -30.0967 -13.7603 -13.7466 -13.7418   0.0454   5.2728   5.5014   6.0813
     6.2773

          k = 0.0000-0.1818 0.3636 (  2870 PWs)   bands (ev):

   -30.0953 -13.7817 -13.7542 -13.7416   0.5426   4.4965   5.2240   6.1231
     6.6757

          k = 0.0000-0.2727 0.4545 (  2854 PWs)   bands (ev):

   -30.0940 -13.8013 -13.7611 -13.7413   1.1963   3.6722   5.0041   6.1311
     7.1749

          k = 0.0000-0.3636 0.5455 (  2850 PWs)   bands (ev):

   -30.0932 -13.8129 -13.7652 -13.7411   1.9553   2.8387   4.8856   6.0481
     7.2167

          k =-0.0909-0.0909 0.3636 (  2861 PWs)   bands (ev):

   -30.0955 -13.7748 -13.7531 -13.7455   0.4459   4.8101   5.2042   5.9525
     6.5336

          k =-0.0909-0.1818 0.4545 (  2852 PWs)   bands (ev):

   -30.0941 -13.7922 -13.7615 -13.7462   1.0178   4.1250   4.9025   6.0155
     6.8521

          k =-0.0909-0.2727 0.5455 (  2864 PWs)   bands (ev):

   -30.0931 -13.8058 -13.7684 -13.7461   1.7247   3.3483   4.7025   5.9700
     6.9682

          k =-0.0909 0.6364-0.3636 (  2878 PWs)   bands (ev):

   -30.0927 -13.8108 -13.7709 -13.7461   2.4387   2.6119   4.6310   5.9033
     7.0920

          k =-0.1818 0.1818 0.1818 (  2869 PWs)   bands (ev):

   -30.0965 -13.7711 -13.7413 -13.7413   0.1466   5.0944   5.0944   6.3983
     6.8301

          k =-0.1818-0.1818 0.5455 (  2868 PWs)   bands (ev):

   -30.0931 -13.8002 -13.7721 -13.7483   1.6449   3.7302   4.3582   6.1931
     6.6408

          k =-0.1818 0.7273-0.3636 (  2865 PWs)   bands (ev):

   -30.0925 -13.8034 -13.7807 -13.7488   2.3792   3.1359   4.0204   6.2269
     6.7652

          k =-0.2727 0.2727 0.1818 (  2877 PWs)   bands (ev):

   -30.0953 -13.7880 -13.7498 -13.7418   0.6401   4.4422   4.7727   6.6027
     6.8882

          k =-0.2727 0.7273-0.2727 (  2865 PWs)   bands (ev):

   -30.0922 -13.7940 -13.7940 -13.7494   2.9986   2.9986   3.4319   6.6464
     6.8080

          k =-0.3636 0.3636 0.1818 (  2867 PWs)   bands (ev):

   -30.0941 -13.8014 -13.7596 -13.7422   1.2909   3.6968   4.5485   6.5147
     7.0901

          k =-0.3636 0.2727 0.2727 (  2858 PWs)   bands (ev):

   -30.0943 -13.7978 -13.7562 -13.7465   1.2045   4.0397   4.3117   6.4076
     7.0040

          k = 0.5455-0.5455 0.1818 (  2865 PWs)   bands (ev):

   -30.0934 -13.8087 -13.7659 -13.7425   2.0487   2.8998   4.4342   6.2835
     7.3132

          k = 0.5455-0.6364 0.2727 (  2864 PWs)   bands (ev):

   -30.0935 -13.8015 -13.7668 -13.7483   1.9035   3.4307   4.0677   6.0045
     7.1348

          k = 0.4545-0.5455 0.2727 (  2867 PWs)   bands (ev):

   -30.0932 -13.8016 -13.7723 -13.7487   2.6393   2.7164   3.9971   5.8266
     7.2347

          k = 0.4545-0.6364 0.3636 (  2870 PWs)   bands (ev):

   -30.0931 -13.7942 -13.7789 -13.7515   2.6109   3.2152   3.5257   5.6326
     7.2174

          k = 0.0000 0.0000 0.3636 (  2871 PWs)   bands (ev):

   -30.0957 -13.7638 -13.7526 -13.7526   0.3478   5.2971   5.4055   5.4055
     6.4052

          k = 0.0000-0.0909 0.4545 (  2859 PWs)   bands (ev):

   -30.0943 -13.7802 -13.7604 -13.7548   0.8321   4.5677   5.2330   5.4876
     6.7304

          k = 0.0000-0.1818 0.5455 (  2862 PWs)   bands (ev):

   -30.0931 -13.7978 -13.7675 -13.7541   1.4686   3.8073   5.0705   5.4788
     6.7969

          k = 0.0000-0.2727 0.6364 (  2865 PWs)   bands (ev):

   -30.0923 -13.8083 -13.7717 -13.7536   2.2133   3.0187   4.9772   5.3525
     6.8522

          k =-0.0909-0.0909 0.5455 (  2860 PWs)   bands (ev):

   -30.0931 -13.7912 -13.7695 -13.7585   1.3819   4.1221   4.8961   5.5676
     6.5945

          k =-0.0909-0.1818 0.6364 (  2856 PWs)   bands (ev):

   -30.0921 -13.8013 -13.7773 -13.7586   2.0584   3.5270   4.5583   5.6486
     6.4909

          k =-0.0909 0.7273-0.2727 (  2853 PWs)   bands (ev):

   -30.0917 -13.8052 -13.7802 -13.7584   2.7870   2.8218   4.4325   5.6229
     6.6232

          k =-0.1818 0.8182-0.2727 (  2849 PWs)   bands (ev):

   -30.0915 -13.7995 -13.7889 -13.7592   2.7251   3.2729   3.9161   6.0346
     6.3387

          k = 0.6364-0.6364 0.3636 (  2866 PWs)   bands (ev):

   -30.0936 -13.7991 -13.7579 -13.7579   1.8237   3.8223   3.8223   5.7668
     7.2874

          k = 0.5455-0.5455 0.3636 (  2878 PWs)   bands (ev):

   -30.0933 -13.7939 -13.7706 -13.7589   2.5380   3.2431   3.7150   5.2800
     7.3401

          k = 0.4545-0.5455 0.4545 (  2871 PWs)   bands (ev):

   -30.0932 -13.7808 -13.7808 -13.7641   3.1137   3.1137   3.3708   4.9433
     7.4114

          k = 0.0000 0.0000 0.5455 (  2871 PWs)   bands (ev):

   -30.0931 -13.7817 -13.7685 -13.7685   1.2930   4.4002   5.2015   5.2015
     6.4680

          k = 0.0000-0.0909 0.6364 (  2846 PWs)   bands (ev):

   -30.0919 -13.7933 -13.7759 -13.7706   1.8921   3.9046   5.1161   5.1412
     6.1270

          k = 0.0000-0.1818 0.7273 (  2849 PWs)   bands (ev):

   -30.0912 -13.8023 -13.7802 -13.7697   2.5772   3.2876   4.8820   5.0965
     6.2865

          k =-0.0909-0.0909 0.7273 (  2859 PWs)   bands (ev):

   -30.0910 -13.7974 -13.7850 -13.7730   2.4990   3.5890   4.6014   5.4596
     5.9454

          k =-0.0909 0.8182-0.1818 (  2849 PWs)   bands (ev):

   -30.0907 -13.7991 -13.7893 -13.7728   3.0354   3.2076   4.3377   5.5545
     6.0327

          k = 0.0000 0.0000 0.7273 (  2847 PWs)   bands (ev):

   -30.0908 -13.7912 -13.7835 -13.7835   2.4194   3.7664   5.1867   5.1867
     5.4932

          k = 0.0000-0.0909 0.8182 (  2839 PWs)   bands (ev):

   -30.0901 -13.7967 -13.7881 -13.7844   2.9661   3.4680   4.8680   5.2041
     5.6822

          k =-0.0909 0.9091-0.0909 (  2835 PWs)   bands (ev):

   -30.0898 -13.7944 -13.7944 -13.7854   3.3048   3.3048   4.7172   5.5005
     5.5005

          k = 0.0000 0.0000 0.9091 (  2824 PWs)   bands (ev):

   -30.0895 -13.7938 -13.7927 -13.7927   3.2840   3.4420   5.2328   5.2664
     5.2664

     the Fermi energy is     1.7633 ev

!    total energy              =    -109.87152373 Ry
     Harris-Foulkes estimate   =    -109.87152373 Ry
     estimated scf accuracy    <          3.7E-09 Ry

     total all-electron energy =     -1201.196523 Ry

     The total energy is the sum of the following terms:

     one-electron contribution =     -35.36827264 Ry
     hartree contribution      =      18.82500698 Ry
     xc contribution           =     -11.01701668 Ry
     ewald contribution        =     -29.89633978 Ry
     one-center paw contrib.   =     -52.41446181 Ry
     smearing contrib. (-TS)   =      -0.00043979 Ry

     convergence has been achieved in   5 iterations

     Forces acting on atoms (cartesian axes, Ry/au):

     atom    1 type  1   force =     0.00000000    0.00000000    0.00000000

     Total force =     0.000000     Total SCF correction =     0.000000


     Computing stress (Cartesian axis) and pressure

          total   stress  (Ry/bohr**3)                   (kbar)     P=   -4.66
  -0.00003167  -0.00000000   0.00000000         -4.66     -0.00      0.00
  -0.00000000  -0.00003167  -0.00000000         -0.00     -4.66     -0.00
   0.00000000  -0.00000000  -0.00003167          0.00     -0.00     -4.66


     Writing output data file K.save/

     init_run     :      0.64s CPU      0.67s WALL (       1 calls)
     electrons    :      8.63s CPU      9.06s WALL (       1 calls)
     forces       :      0.13s CPU      0.13s WALL (       1 calls)
     stress       :      0.52s CPU      0.53s WALL (       1 calls)

     Called by init_run:
     wfcinit      :      0.38s CPU      0.40s WALL (       1 calls)
     potinit      :      0.05s CPU      0.05s WALL (       1 calls)
     hinit0       :      0.18s CPU      0.18s WALL (       1 calls)

     Called by electrons:
     c_bands      :      7.09s CPU      7.46s WALL (       6 calls)
     sum_band     :      1.22s CPU      1.27s WALL (       6 calls)
     v_of_rho     :      0.01s CPU      0.01s WALL (       6 calls)
     newd         :      0.13s CPU      0.13s WALL (       6 calls)
     PAW_pot      :      0.22s CPU      0.22s WALL (       6 calls)
     mix_rho      :      0.00s CPU      0.01s WALL (       6 calls)

     Called by c_bands:
     init_us_2    :      0.27s CPU      0.28s WALL (     840 calls)
     cegterg      :      6.76s CPU      7.11s WALL (     336 calls)

     Called by sum_band:
     sum_band:bec :      0.00s CPU      0.00s WALL (     336 calls)
     addusdens    :      0.12s CPU      0.13s WALL (       6 calls)

     Called by *egterg:
     h_psi        :      5.48s CPU      5.81s WALL (    1570 calls)
     s_psi        :      0.19s CPU      0.20s WALL (    1570 calls)
     g_psi        :      0.02s CPU      0.02s WALL (    1178 calls)
     cdiaghg      :      0.36s CPU      0.37s WALL (    1458 calls)

     Called by h_psi:
     h_psi:pot    :      5.44s CPU      5.78s WALL (    1570 calls)
     h_psi:calbec :      0.32s CPU      0.34s WALL (    1570 calls)
     vloc_psi     :      4.91s CPU      5.22s WALL (    1570 calls)
     add_vuspsi   :      0.20s CPU      0.21s WALL (    1570 calls)

     General routines
     calbec       :      0.51s CPU      0.53s WALL (    2186 calls)
     fft          :      0.02s CPU      0.02s WALL (      34 calls)
     ffts         :      0.00s CPU      0.00s WALL (       6 calls)
     fftw         :      5.38s CPU      5.71s WALL (   21204 calls)

     Parallel routines
     fft_scatt_xy :      0.44s CPU      0.46s WALL (   21244 calls)
     fft_scatt_yz :      1.34s CPU      1.42s WALL (   21244 calls)

     PWSCF        :    10.70s CPU        11.26s WALL


   This run was terminated on:   0:33:46   8Apr2024            

=------------------------------------------------------------------------------=
   JOB DONE.
=------------------------------------------------------------------------------=
