
     Program PWSCF v.6.3MaX starts on  8Apr2024 at  0:28:34 

     This program is part of the open-source Quantum ESPRESSO suite
     for quantum simulation of materials; please cite
         "P. Giannozzi et al., J. Phys.:Condens. Matter 21 395502 (2009);
         "P. Giannozzi et al., J. Phys.:Condens. Matter 29 465901 (2017);
          URL http://www.quantum-espresso.org", 
     in publications or presentations arising from this work. More details at
     http://www.quantum-espresso.org/quote

     Parallel version (MPI), running on     5 processors

     MPI processes distributed on     1 nodes
     R & G space division:  proc/nbgrp/npool/nimage =       5
     Waiting for input...
     Reading input from standard input

     Current dimensions of program PWSCF are:
     Max number of different atomic species (ntypx) = 10
     Max number of k-points (npk) =  40000
     Max angular momentum in pseudopotentials (lmaxx) =  3
               file K.pbe-spn-rrkjus_psl.1.0.0.UPF: wavefunction(s)  3S renormalized

     Subspace diagonalization in iterative solution of the eigenvalue problem:
     a serial algorithm will be used


     Parallelization info
     --------------------
     sticks:   dense  smooth     PW     G-vecs:    dense   smooth      PW
     Min         196     196     57                 3895     3895     630
     Max         197     197     59                 3897     3897     631
     Sum         981     981    291                19477    19477    3151



     bravais-lattice index     =            3
     lattice parameter (alat)  =       9.8600  a.u.
     unit-cell volume          =     479.2926 (a.u.)^3
     number of atoms/cell      =            1
     number of atomic types    =            1
     number of electrons       =         9.00
     number of Kohn-Sham states=            9
     kinetic-energy cutoff     =      45.0000  Ry
     charge density cutoff     =     180.0000  Ry
     convergence threshold     =      1.0E-08
     mixing beta               =       0.7000
     number of iterations used =            8  plain     mixing
     Exchange-correlation      = PBE ( 1  4  3  4 0 0)

     celldm(1)=   9.860000  celldm(2)=   0.000000  celldm(3)=   0.000000
     celldm(4)=   0.000000  celldm(5)=   0.000000  celldm(6)=   0.000000

     crystal axes: (cart. coord. in units of alat)
               a(1) = (   0.500000   0.500000   0.500000 )  
               a(2) = (  -0.500000   0.500000   0.500000 )  
               a(3) = (  -0.500000  -0.500000   0.500000 )  

     reciprocal axes: (cart. coord. in units 2 pi/alat)
               b(1) = (  1.000000  0.000000  1.000000 )  
               b(2) = ( -1.000000  1.000000  0.000000 )  
               b(3) = (  0.000000 -1.000000  1.000000 )  


     PseudoPot. # 1 for K  read from file:
     /home/lorenzo/pseudos/K/K.pbe-spn-rrkjus_psl.1.0.0.UPF
     MD5 check sum: 897b700350bb708b0563e904352feb48
     Pseudo is Ultrasoft + core correction, Zval =  9.0
     Generated using "atomic" code by A. Dal Corso v.6.2.2
     Using radial grid of 1165 points,  6 beta functions with: 
                l(1) =   0
                l(2) =   0
                l(3) =   1
                l(4) =   1
                l(5) =   2
                l(6) =   2
     Q(r) pseudized with 0 coefficients 


     atomic species   valence    mass     pseudopotential
        K              9.00    39.09830     K ( 1.00)

     48 Sym. Ops., with inversion, found



   Cartesian axes

     site n.     atom                  positions (alat units)
         1           K   tau(   1) = (   0.0000000   0.0000000   0.0000000  )

     number of k points=    47  gaussian smearing, width (Ry)=  0.0100
                       cart. coord. in units 2pi/alat
        k(    1) = (   0.0000000   0.0000000   0.0000000), wk =   0.0020000
        k(    2) = (   0.0000000  -0.1000000   0.1000000), wk =   0.0240000
        k(    3) = (   0.0000000  -0.2000000   0.2000000), wk =   0.0240000
        k(    4) = (   0.0000000  -0.3000000   0.3000000), wk =   0.0240000
        k(    5) = (   0.0000000  -0.4000000   0.4000000), wk =   0.0240000
        k(    6) = (   0.0000000   0.5000000  -0.5000000), wk =   0.0120000
        k(    7) = (  -0.1000000  -0.1000000   0.2000000), wk =   0.0480000
        k(    8) = (  -0.1000000  -0.2000000   0.3000000), wk =   0.0960000
        k(    9) = (  -0.1000000  -0.3000000   0.4000000), wk =   0.0960000
        k(   10) = (  -0.1000000   0.6000000  -0.5000000), wk =   0.0960000
        k(   11) = (  -0.2000000  -0.2000000   0.4000000), wk =   0.0480000
        k(   12) = (  -0.2000000   0.7000000  -0.5000000), wk =   0.0960000
        k(   13) = (  -0.2000000   0.6000000  -0.4000000), wk =   0.0480000
        k(   14) = (  -0.3000000   0.7000000  -0.4000000), wk =   0.0480000
        k(   15) = (   0.0000000   0.0000000   0.2000000), wk =   0.0120000
        k(   16) = (   0.0000000  -0.1000000   0.3000000), wk =   0.0480000
        k(   17) = (   0.0000000  -0.2000000   0.4000000), wk =   0.0480000
        k(   18) = (   0.0000000  -0.3000000   0.5000000), wk =   0.0480000
        k(   19) = (   0.0000000   0.6000000  -0.4000000), wk =   0.0240000
        k(   20) = (  -0.1000000  -0.1000000   0.4000000), wk =   0.0480000
        k(   21) = (  -0.1000000  -0.2000000   0.5000000), wk =   0.0960000
        k(   22) = (  -0.1000000   0.7000000  -0.4000000), wk =   0.0960000
        k(   23) = (  -0.2000000   0.2000000   0.2000000), wk =   0.0160000
        k(   24) = (  -0.2000000   0.8000000  -0.4000000), wk =   0.0480000
        k(   25) = (  -0.2000000   0.7000000  -0.3000000), wk =   0.0480000
        k(   26) = (  -0.3000000   0.3000000   0.2000000), wk =   0.0480000
        k(   27) = (   0.6000000  -0.6000000   0.2000000), wk =   0.0480000
        k(   28) = (   0.6000000  -0.7000000   0.3000000), wk =   0.0480000
        k(   29) = (   0.5000000  -0.5000000   0.2000000), wk =   0.0240000
        k(   30) = (   0.5000000  -0.6000000   0.3000000), wk =   0.0960000
        k(   31) = (   0.4000000  -0.6000000   0.4000000), wk =   0.0160000
        k(   32) = (   0.0000000   0.0000000   0.4000000), wk =   0.0120000
        k(   33) = (   0.0000000  -0.1000000   0.5000000), wk =   0.0480000
        k(   34) = (   0.0000000  -0.2000000   0.6000000), wk =   0.0480000
        k(   35) = (   0.0000000   0.7000000  -0.3000000), wk =   0.0240000
        k(   36) = (  -0.1000000  -0.1000000   0.6000000), wk =   0.0480000
        k(   37) = (  -0.1000000   0.8000000  -0.3000000), wk =   0.0960000
        k(   38) = (  -0.2000000   0.8000000  -0.2000000), wk =   0.0160000
        k(   39) = (   0.6000000  -0.6000000   0.4000000), wk =   0.0160000
        k(   40) = (   0.5000000  -0.5000000   0.4000000), wk =   0.0240000
        k(   41) = (   0.0000000   0.0000000   0.6000000), wk =   0.0120000
        k(   42) = (   0.0000000  -0.1000000   0.7000000), wk =   0.0480000
        k(   43) = (   0.0000000   0.8000000  -0.2000000), wk =   0.0240000
        k(   44) = (  -0.1000000   0.9000000  -0.2000000), wk =   0.0480000
        k(   45) = (   0.0000000   0.0000000   0.8000000), wk =   0.0120000
        k(   46) = (   0.0000000   0.9000000  -0.1000000), wk =   0.0240000
        k(   47) = (   0.0000000   0.0000000  -1.0000000), wk =   0.0020000

     Dense  grid:    19477 G-vectors     FFT dimensions: (  40,  40,  40)

     Estimated max dynamical RAM per process >      19.49 MB

     Estimated total dynamical RAM >      97.46 MB

     Check: negative/imaginary core charge=   -0.000010    0.000000

     Initial potential from superposition of free atoms

     starting charge    8.98117, renormalised to    9.00000
     Starting wfcs are    8 randomized atomic wfcs +    1 random wfcs

     total cpu time spent up to now is        1.2 secs

     Self-consistent Calculation

     iteration #  1     ecut=    45.00 Ry     beta= 0.70
     Davidson diagonalization with overlap
     ethr =  1.00E-02,  avg # of iterations =  6.8

     Threshold (ethr) on eigenvalues was too large:
     Diagonalizing with lowered threshold

     Davidson diagonalization with overlap
     ethr =  1.43E-05,  avg # of iterations =  6.5

     total cpu time spent up to now is        4.4 secs

     total energy              =     -58.77273836 Ry
     Harris-Foulkes estimate   =     -58.77325566 Ry
     estimated scf accuracy    <       0.00127825 Ry

     iteration #  2     ecut=    45.00 Ry     beta= 0.70
     Davidson diagonalization with overlap
     ethr =  1.42E-05,  avg # of iterations =  2.1

     total cpu time spent up to now is        5.5 secs

     total energy              =     -58.77297001 Ry
     Harris-Foulkes estimate   =     -58.77297232 Ry
     estimated scf accuracy    <       0.00010041 Ry

     iteration #  3     ecut=    45.00 Ry     beta= 0.70
     Davidson diagonalization with overlap
     ethr =  1.12E-06,  avg # of iterations =  1.9

     total cpu time spent up to now is        6.3 secs

     total energy              =     -58.77297986 Ry
     Harris-Foulkes estimate   =     -58.77297733 Ry
     estimated scf accuracy    <       0.00000682 Ry

     iteration #  4     ecut=    45.00 Ry     beta= 0.70
     Davidson diagonalization with overlap
     ethr =  7.58E-08,  avg # of iterations =  1.7

     total cpu time spent up to now is        7.3 secs

     total energy              =     -58.77298045 Ry
     Harris-Foulkes estimate   =     -58.77298044 Ry
     estimated scf accuracy    <       0.00000005 Ry

     iteration #  5     ecut=    45.00 Ry     beta= 0.70
     Davidson diagonalization with overlap
     ethr =  5.41E-10,  avg # of iterations =  2.2

     total cpu time spent up to now is        8.1 secs

     End of self-consistent calculation

          k = 0.0000 0.0000 0.0000 (  2491 PWs)   bands (ev):

   -30.1644 -13.6124 -13.6124 -13.6124  -0.2595   6.2653   6.2653   7.1831
     7.1832

          k = 0.0000-0.1000 0.1000 (  2439 PWs)   bands (ev):

   -30.1638 -13.6197 -13.6148 -13.6123  -0.1317   6.0679   6.1056   6.3675
     6.9892

          k = 0.0000-0.2000 0.2000 (  2433 PWs)   bands (ev):

   -30.1626 -13.6390 -13.6212 -13.6122   0.2429   5.3562   5.7624   6.6695
     6.9580

          k = 0.0000-0.3000 0.3000 (  2455 PWs)   bands (ev):

   -30.1611 -13.6627 -13.6292 -13.6122   0.8387   4.4381   5.4278   7.0387
     7.1581

          k = 0.0000-0.4000 0.4000 (  2437 PWs)   bands (ev):

   -30.1599 -13.6815 -13.6355 -13.6122   1.6119   3.4858   5.2013   6.9642
     7.4168

          k = 0.0000 0.5000-0.5000 (  2422 PWs)   bands (ev):

   -30.1594 -13.6887 -13.6379 -13.6121   2.3910   2.6513   5.1223   6.8727
     7.7039

          k =-0.1000-0.1000 0.2000 (  2442 PWs)   bands (ev):

   -30.1630 -13.6330 -13.6174 -13.6141   0.1196   5.6624   5.7893   6.5567
     6.8174

          k =-0.1000-0.2000 0.3000 (  2439 PWs)   bands (ev):

   -30.1616 -13.6532 -13.6251 -13.6148   0.6054   4.8964   5.4056   6.8241
     6.9051

          k =-0.1000-0.3000 0.4000 (  2437 PWs)   bands (ev):

   -30.1602 -13.6728 -13.6338 -13.6149   1.2923   3.9994   5.1214   6.8373
     7.3280

          k =-0.1000 0.6000-0.5000 (  2435 PWs)   bands (ev):

   -30.1594 -13.6846 -13.6393 -13.6149   2.1246   3.0710   4.9708   6.7082
     7.6038

          k =-0.2000-0.2000 0.4000 (  2438 PWs)   bands (ev):

   -30.1604 -13.6674 -13.6330 -13.6181   1.1839   4.3809   4.8759   6.8825
     7.0128

          k =-0.2000 0.7000-0.5000 (  2443 PWs)   bands (ev):

   -30.1594 -13.6764 -13.6432 -13.6194   1.9371   3.6646   4.5243   6.7243
     7.1712

          k =-0.2000 0.6000-0.4000 (  2441 PWs)   bands (ev):

   -30.1590 -13.6792 -13.6478 -13.6197   2.7690   2.8298   4.4161   6.5737
     7.4675

          k =-0.3000 0.7000-0.4000 (  2449 PWs)   bands (ev):

   -30.1589 -13.6716 -13.6566 -13.6216   2.7132   3.3932   3.8274   6.6180
     7.2139

          k = 0.0000 0.0000 0.2000 (  2423 PWs)   bands (ev):

   -30.1633 -13.6217 -13.6172 -13.6172  -0.0052   6.0210   6.0210   6.4144
     6.4742

          k = 0.0000-0.1000 0.3000 (  2446 PWs)   bands (ev):

   -30.1622 -13.6390 -13.6238 -13.6183   0.3655   5.3944   5.7428   6.2912
     6.6839

          k = 0.0000-0.2000 0.4000 (  2451 PWs)   bands (ev):

   -30.1607 -13.6616 -13.6319 -13.6180   0.9552   4.4878   5.4427   6.3472
     7.1579

          k = 0.0000-0.3000 0.5000 (  2443 PWs)   bands (ev):

   -30.1595 -13.6798 -13.6383 -13.6177   1.7211   3.5559   5.2337   6.3110
     7.4951

          k = 0.0000 0.6000-0.4000 (  2446 PWs)   bands (ev):

   -30.1590 -13.6867 -13.6408 -13.6175   2.5204   2.7067   5.1601   6.2443
     7.5506

          k =-0.1000-0.1000 0.4000 (  2446 PWs)   bands (ev):

   -30.1609 -13.6541 -13.6312 -13.6223   0.8409   4.8540   5.3799   6.1989
     6.9759

          k =-0.1000-0.2000 0.5000 (  2444 PWs)   bands (ev):

   -30.1596 -13.6707 -13.6403 -13.6229   1.5129   4.0907   5.0329   6.2712
     7.1843

          k =-0.1000 0.7000-0.4000 (  2447 PWs)   bands (ev):

   -30.1588 -13.6811 -13.6461 -13.6228   2.3297   3.2219   4.8447   6.2004
     7.3041

          k =-0.2000 0.2000 0.2000 (  2430 PWs)   bands (ev):

   -30.1619 -13.6503 -13.6179 -13.6179   0.4864   5.2191   5.2191   6.7929
     7.1865

          k =-0.2000 0.8000-0.4000 (  2439 PWs)   bands (ev):

   -30.1586 -13.6748 -13.6523 -13.6247   2.2369   3.7041   4.3555   6.5446
     6.9079

          k =-0.2000 0.7000-0.3000 (  2459 PWs)   bands (ev):

   -30.1583 -13.6745 -13.6593 -13.6251   3.0013   3.0941   4.0642   6.6022
     7.1018

          k =-0.3000 0.3000 0.2000 (  2427 PWs)   bands (ev):

   -30.1607 -13.6666 -13.6276 -13.6185   1.0715   4.4602   4.8795   6.9126
     7.2880

          k = 0.6000-0.6000 0.2000 (  2441 PWs)   bands (ev):

   -30.1597 -13.6774 -13.6377 -13.6190   1.8327   3.6112   4.6704   6.6710
     7.5175

          k = 0.6000-0.7000 0.3000 (  2438 PWs)   bands (ev):

   -30.1598 -13.6732 -13.6352 -13.6238   1.7328   4.0432   4.3569   6.4967
     7.4168

          k = 0.5000-0.5000 0.2000 (  2440 PWs)   bands (ev):

   -30.1593 -13.6811 -13.6420 -13.6191   2.6462   2.7724   4.6001   6.5028
     7.6589

          k = 0.5000-0.6000 0.3000 (  2430 PWs)   bands (ev):

   -30.1592 -13.6725 -13.6461 -13.6255   2.5319   3.3631   4.1220   6.0886
     7.5525

          k = 0.4000-0.6000 0.4000 (  2427 PWs)   bands (ev):

   -30.1591 -13.6601 -13.6601 -13.6280   3.2065   3.2065   3.5819   5.8413
     7.6448

          k = 0.0000 0.0000 0.4000 (  2447 PWs)   bands (ev):

   -30.1610 -13.6423 -13.6305 -13.6305   0.7245   5.3282   5.6368   5.6368
     6.8378

          k = 0.0000-0.1000 0.5000 (  2449 PWs)   bands (ev):

   -30.1597 -13.6591 -13.6389 -13.6327   1.2945   4.5719   5.4605   5.6747
     7.1689

          k = 0.0000-0.2000 0.6000 (  2465 PWs)   bands (ev):

   -30.1586 -13.6752 -13.6456 -13.6319   2.0325   3.7420   5.3139   5.5833
     6.9978

          k = 0.0000 0.7000-0.3000 (  2454 PWs)   bands (ev):

   -30.1581 -13.6814 -13.6481 -13.6315   2.8713   2.8801   5.2590   5.4779
     7.0918

          k =-0.1000-0.1000 0.6000 (  2455 PWs)   bands (ev):

   -30.1585 -13.6685 -13.6489 -13.6363   1.9309   4.1105   5.0093   5.8360
     6.6972

          k =-0.1000 0.8000-0.3000 (  2452 PWs)   bands (ev):

   -30.1577 -13.6754 -13.6562 -13.6362   2.6896   3.4819   4.6316   5.9309
     6.7193

          k =-0.2000 0.8000-0.2000 (  2451 PWs)   bands (ev):

   -30.1574 -13.6685 -13.6685 -13.6366   3.2784   3.2784   4.0876   6.4257
     6.4257

          k = 0.6000-0.6000 0.4000 (  2418 PWs)   bands (ev):

   -30.1593 -13.6692 -13.6370 -13.6370   2.4401   3.8436   3.8436   5.7305
     7.7002

          k = 0.5000-0.5000 0.4000 (  2422 PWs)   bands (ev):

   -30.1591 -13.6614 -13.6484 -13.6377   3.1448   3.2599   3.7778   5.3804
     7.7324

          k = 0.0000 0.0000 0.6000 (  2446 PWs)   bands (ev):

   -30.1584 -13.6592 -13.6475 -13.6475   1.8264   4.3896   5.4420   5.4420
     6.4326

          k = 0.0000-0.1000 0.7000 (  2444 PWs)   bands (ev):

   -30.1573 -13.6695 -13.6545 -13.6492   2.4979   3.8980   5.2497   5.4009
     6.2467

          k = 0.0000 0.8000-0.2000 (  2456 PWs)   bands (ev):

   -30.1570 -13.6747 -13.6572 -13.6485   3.1334   3.3391   5.0422   5.3806
     6.4300

          k =-0.1000 0.9000-0.2000 (  2456 PWs)   bands (ev):

   -30.1567 -13.6706 -13.6636 -13.6511   3.1153   3.6115   4.7460   5.7692
     6.0926

          k = 0.0000 0.0000 0.8000 (  2454 PWs)   bands (ev):

   -30.1564 -13.6662 -13.6618 -13.6618   3.0335   3.8008   5.4587   5.4587
     5.5713

          k = 0.0000 0.9000-0.1000 (  2450 PWs)   bands (ev):

   -30.1560 -13.6694 -13.6645 -13.6621   3.4379   3.5828   5.1922   5.4774
     5.7997

          k = 0.0000 0.0000-1.0000 (  2454 PWs)   bands (ev):

   -30.1556 -13.6673 -13.6673 -13.6673   3.6015   5.5137   5.5137   5.5137
     7.6767

     the Fermi energy is     1.9457 ev

!    total energy              =     -58.77298046 Ry
     Harris-Foulkes estimate   =     -58.77298046 Ry
     estimated scf accuracy    <          1.0E-09 Ry

     The total energy is the sum of the following terms:

     one-electron contribution =     -36.58500132 Ry
     hartree contribution      =      18.87944871 Ry
     xc contribution           =     -11.17044050 Ry
     ewald contribution        =     -29.89633975 Ry
     smearing contrib. (-TS)   =      -0.00064760 Ry

     convergence has been achieved in   5 iterations

     Forces acting on atoms (cartesian axes, Ry/au):

     atom    1 type  1   force =     0.00000000    0.00000000    0.00000000

     Total force =     0.000000     Total SCF correction =     0.000000


     Computing stress (Cartesian axis) and pressure

          total   stress  (Ry/bohr**3)                   (kbar)     P=    0.52
   0.00000357   0.00000000  -0.00000000          0.52      0.00     -0.00
   0.00000000   0.00000357   0.00000000          0.00      0.52      0.00
  -0.00000000   0.00000000   0.00000357         -0.00      0.00      0.52


     Writing output data file K.save/

     init_run     :      0.52s CPU      0.54s WALL (       1 calls)
     electrons    :      6.54s CPU      6.90s WALL (       1 calls)
     forces       :      0.12s CPU      0.13s WALL (       1 calls)
     stress       :      0.42s CPU      0.42s WALL (       1 calls)

     Called by init_run:
     wfcinit      :      0.30s CPU      0.32s WALL (       1 calls)
     potinit      :      0.02s CPU      0.02s WALL (       1 calls)
     hinit0       :      0.16s CPU      0.16s WALL (       1 calls)

     Called by electrons:
     c_bands      :      5.40s CPU      5.71s WALL (       6 calls)
     sum_band     :      0.98s CPU      1.03s WALL (       6 calls)
     v_of_rho     :      0.07s CPU      0.07s WALL (       6 calls)
     newd         :      0.10s CPU      0.11s WALL (       6 calls)
     mix_rho      :      0.00s CPU      0.00s WALL (       6 calls)

     Called by c_bands:
     init_us_2    :      0.19s CPU      0.20s WALL (     705 calls)
     cegterg      :      5.16s CPU      5.46s WALL (     282 calls)

     Called by sum_band:
     sum_band:bec :      0.00s CPU      0.00s WALL (     282 calls)
     addusdens    :      0.10s CPU      0.11s WALL (       6 calls)

     Called by *egterg:
     h_psi        :      4.27s CPU      4.54s WALL (    1330 calls)
     s_psi        :      0.13s CPU      0.14s WALL (    1330 calls)
     g_psi        :      0.01s CPU      0.01s WALL (    1001 calls)
     cdiaghg      :      0.28s CPU      0.29s WALL (    1236 calls)

     Called by h_psi:
     h_psi:pot    :      4.25s CPU      4.51s WALL (    1330 calls)
     h_psi:calbec :      0.23s CPU      0.24s WALL (    1330 calls)
     vloc_psi     :      3.88s CPU      4.12s WALL (    1330 calls)
     add_vuspsi   :      0.13s CPU      0.14s WALL (    1330 calls)

     General routines
     calbec       :      0.38s CPU      0.39s WALL (    1847 calls)
     fft          :      0.04s CPU      0.05s WALL (      93 calls)
     ffts         :      0.00s CPU      0.00s WALL (       6 calls)
     fftw         :      4.28s CPU      4.54s WALL (   17244 calls)

     Parallel routines
     fft_scatt_xy :      0.33s CPU      0.35s WALL (   17343 calls)
     fft_scatt_yz :      1.15s CPU      1.22s WALL (   17343 calls)

     PWSCF        :     8.31s CPU         8.78s WALL


   This run was terminated on:   0:28:42   8Apr2024            

=------------------------------------------------------------------------------=
   JOB DONE.
=------------------------------------------------------------------------------=
