
     Program PWSCF v.6.3MaX starts on 26Mar2024 at 22:30:52 

     This program is part of the open-source Quantum ESPRESSO suite
     for quantum simulation of materials; please cite
         "P. Giannozzi et al., J. Phys.:Condens. Matter 21 395502 (2009);
         "P. Giannozzi et al., J. Phys.:Condens. Matter 29 465901 (2017);
          URL http://www.quantum-espresso.org", 
     in publications or presentations arising from this work. More details at
     http://www.quantum-espresso.org/quote

     Parallel version (MPI), running on     5 processors

     MPI processes distributed on     1 nodes
     R & G space division:  proc/nbgrp/npool/nimage =       5
     Waiting for input...
     Reading input from standard input

     Current dimensions of program PWSCF are:
     Max number of different atomic species (ntypx) = 10
     Max number of k-points (npk) =  40000
     Max angular momentum in pseudopotentials (lmaxx) =  3

     Subspace diagonalization in iterative solution of the eigenvalue problem:
     a serial algorithm will be used


     Parallelization info
     --------------------
     sticks:   dense  smooth     PW     G-vecs:    dense   smooth      PW
     Min          37      37     12                  327      327      67
     Max          38      38     13                  329      329      70
     Sum         187     187     61                 1639     1639     339



     bravais-lattice index     =            2
     lattice parameter (alat)  =       6.6500  a.u.
     unit-cell volume          =      73.5199 (a.u.)^3
     number of atoms/cell      =            1
     number of atomic types    =            1
     number of electrons       =        18.00
     number of Kohn-Sham states=           13
     kinetic-energy cutoff     =      30.0000  Ry
     charge density cutoff     =     120.0000  Ry
     convergence threshold     =      1.0E-08
     mixing beta               =       0.7000
     number of iterations used =            8  plain     mixing
     Exchange-correlation      = PBE ( 1  4  3  4 0 0)

     celldm(1)=   6.650000  celldm(2)=   0.000000  celldm(3)=   0.000000
     celldm(4)=   0.000000  celldm(5)=   0.000000  celldm(6)=   0.000000

     crystal axes: (cart. coord. in units of alat)
               a(1) = (  -0.500000   0.000000   0.500000 )  
               a(2) = (   0.000000   0.500000   0.500000 )  
               a(3) = (  -0.500000   0.500000   0.000000 )  

     reciprocal axes: (cart. coord. in units 2 pi/alat)
               b(1) = ( -1.000000 -1.000000  1.000000 )  
               b(2) = (  1.000000  1.000000  1.000000 )  
               b(3) = ( -1.000000  1.000000 -1.000000 )  


     PseudoPot. # 1 for Ni read from file:
     /home/lorenzo/pseudos/Ni/Ni.pbe-spn-rrkjus_psl.1.0.0.UPF
     MD5 check sum: 8b3fc9aac6dafe35f580d41bb18c3945
     Pseudo is Ultrasoft + core correction, Zval = 18.0
     Generated using "atomic" code by A. Dal Corso v.6.3
     Using radial grid of 1195 points,  6 beta functions with: 
                l(1) =   0
                l(2) =   0
                l(3) =   1
                l(4) =   1
                l(5) =   2
                l(6) =   2
     Q(r) pseudized with 0 coefficients 


     atomic species   valence    mass     pseudopotential
        Ni            18.00    58.69340     Ni( 1.00)

     48 Sym. Ops., with inversion, found



   Cartesian axes

     site n.     atom                  positions (alat units)
         1           Ni  tau(   1) = (   0.0000000   0.0000000   0.0000000  )

     number of k points=    10  gaussian smearing, width (Ry)=  0.0100
                       cart. coord. in units 2pi/alat
        k(    1) = (   0.0000000   0.0000000   0.0000000), wk =   0.0160000
        k(    2) = (  -0.2000000   0.2000000  -0.2000000), wk =   0.1280000
        k(    3) = (  -0.4000000   0.4000000  -0.4000000), wk =   0.1280000
        k(    4) = (   0.0000000   0.4000000   0.0000000), wk =   0.0960000
        k(    5) = (  -0.2000000   0.6000000  -0.2000000), wk =   0.3840000
        k(    6) = (   0.6000000  -0.2000000   0.6000000), wk =   0.3840000
        k(    7) = (   0.4000000   0.0000000   0.4000000), wk =   0.1920000
        k(    8) = (   0.0000000   0.8000000   0.0000000), wk =   0.0960000
        k(    9) = (   0.8000000   0.0000000   0.8000000), wk =   0.1920000
        k(   10) = (   0.6000000  -0.2000000   1.0000000), wk =   0.3840000

     Dense  grid:     1639 G-vectors     FFT dimensions: (  18,  18,  18)

     Estimated max dynamical RAM per process >       2.26 MB

     Estimated total dynamical RAM >      11.32 MB

     Check: negative/imaginary core charge=   -0.000069    0.000000

     Initial potential from superposition of free atoms

     starting charge   17.99975, renormalised to   18.00000
     Starting wfcs are   10 randomized atomic wfcs +    3 random wfcs

     total cpu time spent up to now is        0.8 secs

     Self-consistent Calculation

     iteration #  1     ecut=    30.00 Ry     beta= 0.70
     Davidson diagonalization with overlap
     ethr =  1.00E-02,  avg # of iterations =  4.2

     total cpu time spent up to now is        0.9 secs

     total energy              =    -334.78273886 Ry
     Harris-Foulkes estimate   =    -335.64224583 Ry
     estimated scf accuracy    <       1.14280223 Ry

     iteration #  2     ecut=    30.00 Ry     beta= 0.70
     Davidson diagonalization with overlap
     ethr =  6.35E-03,  avg # of iterations =  2.0

     total cpu time spent up to now is        0.9 secs

     total energy              =    -334.77680466 Ry
     Harris-Foulkes estimate   =    -336.05664252 Ry
     estimated scf accuracy    <       3.29122600 Ry

     iteration #  3     ecut=    30.00 Ry     beta= 0.70
     Davidson diagonalization with overlap
     ethr =  6.35E-03,  avg # of iterations =  1.9

     total cpu time spent up to now is        1.0 secs

     total energy              =    -335.31355143 Ry
     Harris-Foulkes estimate   =    -335.31931789 Ry
     estimated scf accuracy    <       0.01460549 Ry

     iteration #  4     ecut=    30.00 Ry     beta= 0.70
     Davidson diagonalization with overlap
     ethr =  8.11E-05,  avg # of iterations =  2.0

     total cpu time spent up to now is        1.1 secs

     total energy              =    -335.31525251 Ry
     Harris-Foulkes estimate   =    -335.31530253 Ry
     estimated scf accuracy    <       0.00026667 Ry

     iteration #  5     ecut=    30.00 Ry     beta= 0.70
     Davidson diagonalization with overlap
     ethr =  1.48E-06,  avg # of iterations =  2.2

     total cpu time spent up to now is        1.1 secs

     total energy              =    -335.31529200 Ry
     Harris-Foulkes estimate   =    -335.31530279 Ry
     estimated scf accuracy    <       0.00002883 Ry

     iteration #  6     ecut=    30.00 Ry     beta= 0.70
     Davidson diagonalization with overlap
     ethr =  1.60E-07,  avg # of iterations =  1.1

     total cpu time spent up to now is        1.1 secs

     total energy              =    -335.31529559 Ry
     Harris-Foulkes estimate   =    -335.31529558 Ry
     estimated scf accuracy    <       0.00000010 Ry

     iteration #  7     ecut=    30.00 Ry     beta= 0.70
     Davidson diagonalization with overlap
     ethr =  5.74E-10,  avg # of iterations =  2.0

     total cpu time spent up to now is        1.2 secs

     End of self-consistent calculation

          k = 0.0000 0.0000 0.0000 (   181 PWs)   bands (ev):

   -88.9400 -41.7471 -41.7471 -41.7471   9.6581  19.1012  19.1012  19.1012
    19.6069  19.6069  42.0463  46.0227  46.0227

          k =-0.2000 0.2000-0.2000 (   193 PWs)   bands (ev):

   -88.9805 -44.1995 -42.3205 -42.3205  11.1209  16.9308  18.1127  18.1127
    18.9084  18.9084  34.8781  42.6127  43.8971

          k =-0.4000 0.4000-0.4000 (   204 PWs)   bands (ev):

   -89.0262 -44.6164 -43.7427 -43.7427  14.2382  16.9805  17.2513  17.2513
    17.7995  17.7995  26.5356  40.8465  42.8226

          k = 0.0000 0.4000 0.0000 (   202 PWs)   bands (ev):

   -89.0330 -44.6062 -43.4270 -43.4270  11.5822  17.0124  17.0124  17.5120
    17.5679  18.1092  38.7563  38.7563  39.4818

          k =-0.2000 0.6000-0.2000 (   205 PWs)   bands (ev):

   -89.0349 -44.8935 -43.9361 -43.6639  14.0889  15.7618  16.9914  17.4188
    18.0565  18.6278  29.5889  36.2465  37.0333

          k = 0.6000-0.2000 0.6000 (   206 PWs)   bands (ev):

   -89.0337 -44.8873 -44.0485 -43.8474  14.9882  15.9853  16.7564  17.2775
    17.7704  21.1112  24.8242  33.2605  38.8277

          k = 0.4000 0.0000 0.4000 (   200 PWs)   bands (ev):

   -89.0113 -44.6849 -43.5480 -42.8640  13.2926  15.9452  17.2636  17.6262
    18.6158  18.7012  32.0436  33.5774  43.6330

          k = 0.0000 0.8000 0.0000 (   206 PWs)   bands (ev):

   -89.0446 -44.7640 -44.1845 -44.1845  14.5787  15.5873  17.5966  17.5966
    18.1753  18.9348  30.4329  33.7526  33.7526

          k = 0.8000 0.0000 0.8000 (   208 PWs)   bands (ev):

   -89.0504 -44.8854 -44.4155 -44.3162  14.6404  15.3978  16.7795  17.7994
    17.9792  22.7901  26.9886  28.4633  34.3576

          k = 0.6000-0.2000 1.0000 (   210 PWs)   bands (ev):

   -89.0658 -45.1107 -44.5901 -44.3987  14.9316  15.8164  16.1273  17.1636
    17.4718  21.7268  27.9120  29.8528  32.0065

     the Fermi energy is    18.5600 ev

!    total energy              =    -335.31529562 Ry
     Harris-Foulkes estimate   =    -335.31529562 Ry
     estimated scf accuracy    <          9.2E-10 Ry

     The total energy is the sum of the following terms:

     one-electron contribution =    -179.00712395 Ry
     hartree contribution      =     101.12740331 Ry
     xc contribution           =     -34.05133260 Ry
     ewald contribution        =    -223.38275371 Ry
     smearing contrib. (-TS)   =      -0.00148867 Ry

     convergence has been achieved in   7 iterations

     Forces acting on atoms (cartesian axes, Ry/au):

     atom    1 type  1   force =     0.00000000    0.00000000    0.00000000

     Total force =     0.000000     Total SCF correction =     0.000000


     Computing stress (Cartesian axis) and pressure

          total   stress  (Ry/bohr**3)                   (kbar)     P=********
  -0.23285228  -0.00000000  -0.00000000     -34253.75     -0.00     -0.00
  -0.00000000  -0.23285228   0.00000000         -0.00 -34253.75      0.00
  -0.00000000   0.00000000  -0.23285228         -0.00      0.00 -34253.75


     Writing output data file Ni.save/

     init_run     :      0.11s CPU      0.11s WALL (       1 calls)
     electrons    :      0.36s CPU      0.39s WALL (       1 calls)
     forces       :      0.01s CPU      0.01s WALL (       1 calls)
     stress       :      0.02s CPU      0.02s WALL (       1 calls)

     Called by init_run:
     wfcinit      :      0.01s CPU      0.02s WALL (       1 calls)
     potinit      :      0.00s CPU      0.00s WALL (       1 calls)
     hinit0       :      0.09s CPU      0.09s WALL (       1 calls)

     Called by electrons:
     c_bands      :      0.28s CPU      0.31s WALL (       7 calls)
     sum_band     :      0.05s CPU      0.06s WALL (       7 calls)
     v_of_rho     :      0.01s CPU      0.01s WALL (       8 calls)
     newd         :      0.01s CPU      0.01s WALL (       8 calls)
     mix_rho      :      0.00s CPU      0.00s WALL (       7 calls)

     Called by c_bands:
     init_us_2    :      0.01s CPU      0.01s WALL (     170 calls)
     cegterg      :      0.28s CPU      0.30s WALL (      70 calls)

     Called by sum_band:
     sum_band:bec :      0.00s CPU      0.00s WALL (      70 calls)
     addusdens    :      0.01s CPU      0.01s WALL (       7 calls)

     Called by *egterg:
     h_psi        :      0.18s CPU      0.20s WALL (     234 calls)
     s_psi        :      0.01s CPU      0.01s WALL (     234 calls)
     g_psi        :      0.00s CPU      0.00s WALL (     154 calls)
     cdiaghg      :      0.07s CPU      0.08s WALL (     224 calls)

     Called by h_psi:
     h_psi:pot    :      0.17s CPU      0.19s WALL (     234 calls)
     h_psi:calbec :      0.01s CPU      0.01s WALL (     234 calls)
     vloc_psi     :      0.16s CPU      0.18s WALL (     234 calls)
     add_vuspsi   :      0.01s CPU      0.01s WALL (     234 calls)

     General routines
     calbec       :      0.01s CPU      0.01s WALL (     354 calls)
     fft          :      0.01s CPU      0.01s WALL (     114 calls)
     ffts         :      0.00s CPU      0.00s WALL (       7 calls)
     fftw         :      0.18s CPU      0.20s WALL (    5594 calls)

     Parallel routines
     fft_scatt_xy :      0.02s CPU      0.02s WALL (    5715 calls)
     fft_scatt_yz :      0.05s CPU      0.06s WALL (    5715 calls)

     PWSCF        :     1.20s CPU         1.28s WALL


   This run was terminated on:  22:30:53  26Mar2024            

=------------------------------------------------------------------------------=
   JOB DONE.
=------------------------------------------------------------------------------=
