
     Program PWSCF v.6.3MaX starts on 26Mar2024 at 22:48:36 

     This program is part of the open-source Quantum ESPRESSO suite
     for quantum simulation of materials; please cite
         "P. Giannozzi et al., J. Phys.:Condens. Matter 21 395502 (2009);
         "P. Giannozzi et al., J. Phys.:Condens. Matter 29 465901 (2017);
          URL http://www.quantum-espresso.org", 
     in publications or presentations arising from this work. More details at
     http://www.quantum-espresso.org/quote

     Parallel version (MPI), running on     5 processors

     MPI processes distributed on     1 nodes
     R & G space division:  proc/nbgrp/npool/nimage =       5
     Waiting for input...
     Reading input from standard input

     Current dimensions of program PWSCF are:
     Max number of different atomic species (ntypx) = 10
     Max number of k-points (npk) =  40000
     Max angular momentum in pseudopotentials (lmaxx) =  3
               file Ni.pbesol-spn-kjpaw_psl.1.0.0.UPF: wavefunction(s)  3P 3D renormalized

     Subspace diagonalization in iterative solution of the eigenvalue problem:
     a serial algorithm will be used


     Parallelization info
     --------------------
     sticks:   dense  smooth     PW     G-vecs:    dense   smooth      PW
     Min          85      85     27                 1163     1163     213
     Max          87      87     28                 1164     1164     214
     Sum         433     433    139                 5817     5817    1067



     bravais-lattice index     =            2
     lattice parameter (alat)  =       6.6500  a.u.
     unit-cell volume          =      73.5199 (a.u.)^3
     number of atoms/cell      =            1
     number of atomic types    =            1
     number of electrons       =        18.00
     number of Kohn-Sham states=           13
     kinetic-energy cutoff     =      70.0000  Ry
     charge density cutoff     =     280.0000  Ry
     convergence threshold     =      1.0E-08
     mixing beta               =       0.7000
     number of iterations used =            8  plain     mixing
     Exchange-correlation      = SLA PW PSX PSC ( 1  4 10  8 0 0)

     celldm(1)=   6.650000  celldm(2)=   0.000000  celldm(3)=   0.000000
     celldm(4)=   0.000000  celldm(5)=   0.000000  celldm(6)=   0.000000

     crystal axes: (cart. coord. in units of alat)
               a(1) = (  -0.500000   0.000000   0.500000 )  
               a(2) = (   0.000000   0.500000   0.500000 )  
               a(3) = (  -0.500000   0.500000   0.000000 )  

     reciprocal axes: (cart. coord. in units 2 pi/alat)
               b(1) = ( -1.000000 -1.000000  1.000000 )  
               b(2) = (  1.000000  1.000000  1.000000 )  
               b(3) = ( -1.000000  1.000000 -1.000000 )  


     PseudoPot. # 1 for Ni read from file:
     /home/lorenzo/pseudos/Ni/Ni.pbesol-spn-kjpaw_psl.1.0.0.UPF
     MD5 check sum: ef06ee83099c2673f0516457bd731f51
     Pseudo is Projector augmented-wave + core cor, Zval = 18.0
     Generated using "atomic" code by A. Dal Corso v.6.3
     Shape of augmentation charge: PSQ
     Using radial grid of 1195 points,  6 beta functions with: 
                l(1) =   0
                l(2) =   0
                l(3) =   1
                l(4) =   1
                l(5) =   2
                l(6) =   2
     Q(r) pseudized with 0 coefficients 


     atomic species   valence    mass     pseudopotential
        Ni            18.00    58.69340     Ni( 1.00)

     48 Sym. Ops., with inversion, found



   Cartesian axes

     site n.     atom                  positions (alat units)
         1           Ni  tau(   1) = (   0.0000000   0.0000000   0.0000000  )

     number of k points=    56  gaussian smearing, width (Ry)=  0.0100
                       cart. coord. in units 2pi/alat
        k(    1) = (   0.0000000   0.0000000   0.0000000), wk =   0.0015026
        k(    2) = (  -0.0909091   0.0909091  -0.0909091), wk =   0.0120210
        k(    3) = (  -0.1818182   0.1818182  -0.1818182), wk =   0.0120210
        k(    4) = (  -0.2727273   0.2727273  -0.2727273), wk =   0.0120210
        k(    5) = (  -0.3636364   0.3636364  -0.3636364), wk =   0.0120210
        k(    6) = (  -0.4545455   0.4545455  -0.4545455), wk =   0.0120210
        k(    7) = (   0.0000000   0.1818182   0.0000000), wk =   0.0090158
        k(    8) = (  -0.0909091   0.2727273  -0.0909091), wk =   0.0360631
        k(    9) = (  -0.1818182   0.3636364  -0.1818182), wk =   0.0360631
        k(   10) = (  -0.2727273   0.4545455  -0.2727273), wk =   0.0360631
        k(   11) = (  -0.3636364   0.5454545  -0.3636364), wk =   0.0360631
        k(   12) = (   0.5454545  -0.3636364   0.5454545), wk =   0.0360631
        k(   13) = (   0.4545455  -0.2727273   0.4545455), wk =   0.0360631
        k(   14) = (   0.3636364  -0.1818182   0.3636364), wk =   0.0360631
        k(   15) = (   0.2727273  -0.0909091   0.2727273), wk =   0.0360631
        k(   16) = (   0.1818182  -0.0000000   0.1818182), wk =   0.0180316
        k(   17) = (   0.0000000   0.3636364   0.0000000), wk =   0.0090158
        k(   18) = (  -0.0909091   0.4545455  -0.0909091), wk =   0.0360631
        k(   19) = (  -0.1818182   0.5454545  -0.1818182), wk =   0.0360631
        k(   20) = (  -0.2727273   0.6363636  -0.2727273), wk =   0.0360631
        k(   21) = (   0.6363636  -0.2727273   0.6363636), wk =   0.0360631
        k(   22) = (   0.5454545  -0.1818182   0.5454545), wk =   0.0360631
        k(   23) = (   0.4545455  -0.0909091   0.4545455), wk =   0.0360631
        k(   24) = (   0.3636364   0.0000000   0.3636364), wk =   0.0180316
        k(   25) = (   0.0000000   0.5454545   0.0000000), wk =   0.0090158
        k(   26) = (  -0.0909091   0.6363636  -0.0909091), wk =   0.0360631
        k(   27) = (  -0.1818182   0.7272727  -0.1818182), wk =   0.0360631
        k(   28) = (   0.7272727  -0.1818182   0.7272727), wk =   0.0360631
        k(   29) = (   0.6363636  -0.0909091   0.6363636), wk =   0.0360631
        k(   30) = (   0.5454545   0.0000000   0.5454545), wk =   0.0180316
        k(   31) = (   0.0000000   0.7272727   0.0000000), wk =   0.0090158
        k(   32) = (  -0.0909091   0.8181818  -0.0909091), wk =   0.0360631
        k(   33) = (   0.8181818  -0.0909091   0.8181818), wk =   0.0360631
        k(   34) = (   0.7272727   0.0000000   0.7272727), wk =   0.0180316
        k(   35) = (   0.0000000   0.9090909   0.0000000), wk =   0.0090158
        k(   36) = (   0.9090909  -0.0000000   0.9090909), wk =   0.0180316
        k(   37) = (  -0.1818182   0.3636364   0.0000000), wk =   0.0360631
        k(   38) = (  -0.2727273   0.4545455  -0.0909091), wk =   0.0721262
        k(   39) = (  -0.3636364   0.5454545  -0.1818182), wk =   0.0721262
        k(   40) = (   0.5454545  -0.3636364   0.7272727), wk =   0.0721262
        k(   41) = (  -0.1818182   0.5454545   0.0000000), wk =   0.0360631
        k(   42) = (  -0.2727273   0.6363636  -0.0909091), wk =   0.0721262
        k(   43) = (   0.6363636  -0.2727273   0.8181818), wk =   0.0721262
        k(   44) = (   0.5454545  -0.1818182   0.7272727), wk =   0.0721262
        k(   45) = (   0.4545455  -0.0909091   0.6363636), wk =   0.0721262
        k(   46) = (   0.3636364   0.0000000   0.5454545), wk =   0.0360631
        k(   47) = (  -0.1818182   0.7272727   0.0000000), wk =   0.0360631
        k(   48) = (   0.7272727  -0.1818182   0.9090909), wk =   0.0721262
        k(   49) = (   0.6363636  -0.0909091   0.8181818), wk =   0.0721262
        k(   50) = (   0.5454545   0.0000000   0.7272727), wk =   0.0360631
        k(   51) = (   0.8181818  -0.0909091   1.0000000), wk =   0.0360631
        k(   52) = (   0.7272727   0.0000000   0.9090909), wk =   0.0360631
        k(   53) = (   0.6363636  -0.2727273   1.0000000), wk =   0.0360631
        k(   54) = (   0.5454545  -0.1818182   0.9090909), wk =   0.0721262
        k(   55) = (   0.6363636  -0.0909091   1.0000000), wk =   0.0360631
        k(   56) = (   0.5454545   0.0000000   0.9090909), wk =   0.0360631

     Dense  grid:     5817 G-vectors     FFT dimensions: (  25,  25,  25)

     Estimated max dynamical RAM per process >       7.37 MB

     Estimated total dynamical RAM >      36.85 MB

     Check: negative/imaginary core charge=   -0.000011    0.000000

     Initial potential from superposition of free atoms

     starting charge   17.99977, renormalised to   18.00000
     Starting wfcs are   10 randomized atomic wfcs +    3 random wfcs
     Checking if some PAW data can be deallocated... 

     total cpu time spent up to now is        1.2 secs

     Self-consistent Calculation

     iteration #  1     ecut=    70.00 Ry     beta= 0.70
     Davidson diagonalization with overlap
     ethr =  1.00E-02,  avg # of iterations =  3.6

     Threshold (ethr) on eigenvalues was too large:
     Diagonalizing with lowered threshold

     Davidson diagonalization with overlap
     ethr =  9.61E-06,  avg # of iterations =  3.1

     total cpu time spent up to now is        2.7 secs

     total energy              =    -426.56641808 Ry
     Harris-Foulkes estimate   =    -426.56703869 Ry
     estimated scf accuracy    <       0.00169856 Ry

     iteration #  2     ecut=    70.00 Ry     beta= 0.70
     Davidson diagonalization with overlap
     ethr =  9.44E-06,  avg # of iterations =  2.0

     total cpu time spent up to now is        3.4 secs

     total energy              =    -426.56606465 Ry
     Harris-Foulkes estimate   =    -426.56711358 Ry
     estimated scf accuracy    <       0.00225543 Ry

     iteration #  3     ecut=    70.00 Ry     beta= 0.70
     Davidson diagonalization with overlap
     ethr =  9.44E-06,  avg # of iterations =  2.0

     total cpu time spent up to now is        4.2 secs

     total energy              =    -426.56661590 Ry
     Harris-Foulkes estimate   =    -426.56681283 Ry
     estimated scf accuracy    <       0.00060502 Ry

     iteration #  4     ecut=    70.00 Ry     beta= 0.70
     Davidson diagonalization with overlap
     ethr =  3.36E-06,  avg # of iterations =  1.4

     total cpu time spent up to now is        4.7 secs

     total energy              =    -426.56670428 Ry
     Harris-Foulkes estimate   =    -426.56670403 Ry
     estimated scf accuracy    <       0.00000027 Ry

     iteration #  5     ecut=    70.00 Ry     beta= 0.70
     Davidson diagonalization with overlap
     ethr =  1.51E-09,  avg # of iterations =  3.1

     total cpu time spent up to now is        5.6 secs

     total energy              =    -426.56670616 Ry
     Harris-Foulkes estimate   =    -426.56670625 Ry
     estimated scf accuracy    <       0.00000032 Ry

     iteration #  6     ecut=    70.00 Ry     beta= 0.70
     Davidson diagonalization with overlap
     ethr =  1.51E-09,  avg # of iterations =  1.0

     total cpu time spent up to now is        6.1 secs

     total energy              =    -426.56670616 Ry
     Harris-Foulkes estimate   =    -426.56670617 Ry
     estimated scf accuracy    <       0.00000005 Ry

     iteration #  7     ecut=    70.00 Ry     beta= 0.70
     Davidson diagonalization with overlap
     ethr =  2.88E-10,  avg # of iterations =  1.1

     total cpu time spent up to now is        6.7 secs

     End of self-consistent calculation

          k = 0.0000 0.0000 0.0000 (   725 PWs)   bands (ev):

   -85.2091 -45.6030 -45.6030 -45.6030   8.6036  15.6939  15.6939  15.6939
    16.8210  16.8210  41.2812  45.2009  45.2009

          k =-0.0909 0.0909-0.0909 (   728 PWs)   bands (ev):

   -85.2064 -45.6210 -45.6056 -45.6056   8.9262  15.6067  15.7646  15.7646
    16.7920  16.7920  39.9201  42.7221  44.4970

          k =-0.1818 0.1818-0.1818 (   718 PWs)   bands (ev):

   -85.1989 -45.6685 -45.6124 -45.6124   9.8546  15.4097  15.8929  15.8929
    16.7878  16.7878  35.5616  41.9439  43.5409

          k =-0.2727 0.2727-0.2727 (   739 PWs)   bands (ev):

   -85.1897 -45.7312 -45.6220 -45.6220  11.2196  15.3122  15.8835  15.8835
    16.9820  16.9820  31.0424  41.1740  42.8588

          k =-0.3636 0.3636-0.3636 (   745 PWs)   bands (ev):

   -85.1810 -45.7881 -45.6304 -45.6304  12.5011  15.7614  15.7614  15.7880
    17.3016  17.3016  27.0037  40.3551  42.4759

          k =-0.4545 0.4545-0.4545 (   730 PWs)   bands (ev):

   -85.1755 -45.8214 -45.6349 -45.6349  13.0327  15.6683  15.6683  17.0282
    17.5266  17.5266  24.0641  39.8546  42.3351

          k = 0.0000 0.1818 0.0000 (   729 PWs)   bands (ev):

   -85.2055 -45.6207 -45.6097 -45.6097   9.0331  15.5342  15.8165  15.8165
    16.6758  16.8773  40.4811  42.5820  42.5820

          k =-0.0909 0.2727-0.0909 (   722 PWs)   bands (ev):

   -85.1996 -45.6559 -45.6177 -45.6148   9.7584  15.3420  15.9495  15.9629
    16.5697  16.9351  37.3099  40.9827  41.1107

          k =-0.1818 0.3636-0.1818 (   727 PWs)   bands (ev):

   -85.1909 -45.7122 -45.6274 -45.6230  10.9894  15.1627  15.9003  16.0231
    16.7777  17.0990  32.7184  40.1387  40.2356

          k =-0.2727 0.4545-0.2727 (   735 PWs)   bands (ev):

   -85.1820 -45.7693 -45.6359 -45.6334  12.3610  15.2715  15.7110  15.9366
    17.3351  17.3688  28.4606  39.4391  39.7108

          k =-0.3636 0.5455-0.3636 (   731 PWs)   bands (ev):

   -85.1755 -45.8090 -45.6430 -45.6396  13.1330  15.5188  15.8226  16.0096
    17.5537  18.2122  24.9642  38.6066  39.9078

          k = 0.5455-0.3636 0.5455 (   727 PWs)   bands (ev):

   -85.1737 -45.8195 -45.6481 -45.6382  13.2656  15.5045  15.7748  16.3608
    17.5150  18.8144  23.6801  37.8688  40.8131

          k = 0.4545-0.2727 0.4545 (   738 PWs)   bands (ev):

   -85.1774 -45.7980 -45.6475 -45.6322  12.9769  15.6011  15.7869  15.8272
    17.2441  18.0735  26.0082  37.4794  41.3636

          k = 0.3636-0.1818 0.3636 (   731 PWs)   bands (ev):

   -85.1848 -45.7507 -45.6406 -45.6227  11.9377  15.2254  15.7793  15.9575
    16.8558  17.4913  29.8305  37.5633  42.5664

          k = 0.2727-0.0909 0.2727 (   728 PWs)   bands (ev):

   -85.1941 -45.6931 -45.6295 -45.6134  10.5381  15.2510  15.9073  16.0260
    16.5842  17.0904  34.2334  38.1151  44.0140

          k = 0.1818-0.0000 0.1818 (   719 PWs)   bands (ev):

   -85.2019 -45.6442 -45.6165 -45.6070   9.4517  15.4577  15.8729  15.8747
    16.6484  16.8831  38.4247  39.5667  44.1081

          k = 0.0000 0.3636 0.0000 (   725 PWs)   bands (ev):

   -85.1957 -45.6669 -45.6273 -45.6273  10.2552  15.1176  16.1717  16.1717
    16.3301  17.0303  39.2078  39.2078  39.2228

          k =-0.0909 0.4545-0.0909 (   729 PWs)   bands (ev):

   -85.1885 -45.7064 -45.6383 -45.6378  11.2633  14.8813  15.9782  16.3408
    16.6788  17.1726  34.7884  37.8876  38.8330

          k =-0.1818 0.5455-0.1818 (   726 PWs)   bands (ev):

   -85.1802 -45.7537 -45.6506 -45.6470  12.5269  14.7673  15.6757  16.3228
    17.4179  17.4861  30.3887  37.2183  37.2187

          k =-0.2727 0.6364-0.2727 (   726 PWs)   bands (ev):

   -85.1735 -45.7899 -45.6658 -45.6509  13.4548  14.9025  15.5590  16.2101
    17.5860  18.8269  26.4832  35.5304  37.2808

          k = 0.6364-0.2727 0.6364 (   724 PWs)   bands (ev):

   -85.1705 -45.8041 -45.6783 -45.6485  13.7408  15.0277  15.7155  16.1184
    17.5248  20.4069  23.8734  34.1849  38.1254

          k = 0.5455-0.1818 0.5455 (   727 PWs)   bands (ev):

   -85.1723 -45.7932 -45.6828 -45.6408  13.6690  15.1778  15.5114  16.1078
    17.2254  19.6031  25.4205  33.3650  39.7160

          k = 0.4545-0.0909 0.4545 (   736 PWs)   bands (ev):

   -85.1783 -45.7632 -45.6757 -45.6302  12.9914  15.0548  15.4780  16.1960
    16.7878  18.3800  29.0679  33.1440  41.9225

          k = 0.3636 0.0000 0.3636 (   732 PWs)   bands (ev):

   -85.1864 -45.7256 -45.6557 -45.6200  11.7025  15.0531  15.7554  16.3422
    16.3753  17.6094  33.0311  33.8106  43.6250

          k = 0.0000 0.5455 0.0000 (   721 PWs)   bands (ev):

   -85.1829 -45.7256 -45.6506 -45.6506  11.9496  14.5962  16.1723  16.7033
    16.7033  17.2333  36.2116  36.2116  36.5596

          k =-0.0909 0.6364-0.0909 (   724 PWs)   bands (ev):

   -85.1762 -45.7575 -45.6647 -45.6607  12.8197  14.3981  16.0857  16.8304
    17.4291  17.4792  32.6178  34.3977  35.2279

          k =-0.1818 0.7273-0.1818 (   724 PWs)   bands (ev):

   -85.1703 -45.7816 -45.6852 -45.6651  13.5519  14.3667  15.8700  16.7453
    17.6127  19.1156  28.6160  32.3497  35.0526

          k = 0.7273-0.1818 0.7273 (   721 PWs)   bands (ev):

   -85.1671 -45.7868 -45.7089 -45.6624  14.0114  14.4695  15.6719  16.6204
    17.5587  21.4418  25.1406  30.7661  35.7383

          k = 0.6364-0.0909 0.6364 (   720 PWs)   bands (ev):

   -85.1676 -45.7746 -45.7256 -45.6537  14.2464  14.6596  15.3836  16.5168
    17.2742  21.6904  25.0637  29.7573  37.2204

          k = 0.5455 0.0000 0.5455 (   724 PWs)   bands (ev):

   -85.1718 -45.7662 -45.7129 -45.6417  13.9620  15.0427  15.0523  16.4173
    16.9257  19.7330  28.1199  29.8048  39.3425

          k = 0.0000 0.7273 0.0000 (   717 PWs)   bands (ev):

   -85.1712 -45.7786 -45.6720 -45.6720  13.0850  14.1390  17.2591  17.2811
    17.2811  17.4234  31.7243  33.9080  33.9080

          k =-0.0909 0.8182-0.0909 (   726 PWs)   bands (ev):

   -85.1670 -45.7952 -45.6862 -45.6777  13.3521  14.0421  16.8947  17.2741
    17.6262  19.1582  29.6080  31.1820  33.4288

          k = 0.8182-0.0909 0.8182 (   721 PWs)   bands (ev):

   -85.1645 -45.7928 -45.7106 -45.6757  13.6826  14.1320  16.3800  17.1346
    17.6175  21.5581  27.4417  28.3222  33.8841

          k = 0.7273 0.0000 0.7273 (   724 PWs)   bands (ev):

   -85.1648 -45.7713 -45.7393 -45.6669  14.0936  14.3343  15.7884  16.8986
    17.4242  23.9606  24.3423  27.8290  35.2086

          k = 0.0000 0.9091 0.0000 (   740 PWs)   bands (ev):

   -85.1647 -45.8099 -45.6854 -45.6854  13.2525  13.8755  17.5372  17.6797
    17.6797  19.5362  27.7648  32.6213  32.6213

          k = 0.9091-0.0000 0.9091 (   728 PWs)   bands (ev):

   -85.1636 -45.8087 -45.6941 -45.6846  13.3658  13.9123  17.2519  17.4576
    17.7010  20.7722  27.0827  30.5914  32.7825

          k =-0.1818 0.3636 0.0000 (   721 PWs)   bands (ev):

   -85.1930 -45.6886 -45.6349 -45.6195  10.6384  15.1228  15.9463  16.1875
    16.4969  17.1255  35.8822  36.5972  42.5618

          k =-0.2727 0.4545-0.0909 (   727 PWs)   bands (ev):

   -85.1846 -45.7351 -45.6519 -45.6276  11.9233  14.9666  15.7179  16.2495
    16.7579  17.5649  31.6511  35.5742  40.5253

          k =-0.3636 0.5455-0.1818 (   728 PWs)   bands (ev):

   -85.1768 -45.7793 -45.6631 -45.6376  13.1098  15.1054  15.4954  16.1279
    17.2134  18.3362  27.5527  35.3719  38.6071

          k = 0.5455-0.3636 0.7273 (   727 PWs)   bands (ev):

   -85.1721 -45.8057 -45.6684 -45.6446  13.5737  15.1993  15.7433  16.0299
    17.4744  19.6381  24.3569  35.6587  37.1953

          k =-0.1818 0.5455 0.0000 (   727 PWs)   bands (ev):

   -85.1815 -45.7374 -45.6594 -45.6437  12.2734  14.6645  15.7752  16.7047
    16.8169  17.5501  33.5992  34.1242  37.3529

          k =-0.2727 0.6364-0.0909 (   732 PWs)   bands (ev):

   -85.1745 -45.7683 -45.6787 -45.6528  13.3251  14.5955  15.5071  16.6490
    17.2628  18.5139  29.5997  33.4902  35.2124

          k = 0.6364-0.2727 0.8182 (   729 PWs)   bands (ev):

   -85.1695 -45.7872 -45.6945 -45.6586  13.9434  14.6759  15.4191  16.4942
    17.4998  20.2912  25.8824  33.1020  34.1042

          k = 0.5455-0.1818 0.7273 (   727 PWs)   bands (ev):

   -85.1683 -45.7888 -45.7048 -45.6565  14.1418  14.7235  15.4274  16.3951
    17.4402  21.6070  24.1509  31.9769  34.9080

          k = 0.4545-0.0909 0.6364 (   719 PWs)   bands (ev):

   -85.1710 -45.7758 -45.7024 -45.6474  13.9545  14.9105  15.1489  16.4446
    17.1492  19.8261  27.0582  31.3304  36.4010

          k = 0.3636 0.0000 0.5455 (   726 PWs)   bands (ev):

   -85.1773 -45.7568 -45.6825 -45.6363  13.1024  14.8438  15.3873  16.5345
    16.7450  18.4348  30.6447  31.6506  38.3564

          k =-0.1818 0.7273 0.0000 (   727 PWs)   bands (ev):

   -85.1707 -45.7781 -45.6818 -45.6689  13.3540  14.2551  16.1241  17.2529
    17.2785  18.6128  31.7578  31.7758  32.6795

          k = 0.7273-0.1818 0.9091 (   728 PWs)   bands (ev):

   -85.1666 -45.7855 -45.7036 -45.6742  13.7823  14.2933  15.8887  17.0274
    17.5624  20.6126  28.1689  30.1783  32.2823

          k = 0.6364-0.0909 0.8182 (   722 PWs)   bands (ev):

   -85.1651 -45.7740 -45.7305 -45.6706  14.1619  14.4264  15.5610  16.8000
    17.5291  23.1980  24.8859  28.8833  33.0845

          k = 0.5455 0.0000 0.7273 (   724 PWs)   bands (ev):

   -85.1668 -45.7606 -45.7406 -45.6602  14.4463  14.5810  15.1560  16.6483
    17.3037  21.9101  26.1471  28.6545  34.5153

          k = 0.8182-0.0909 1.0000 (   732 PWs)   bands (ev):

   -85.1645 -45.8009 -45.6952 -45.6850  13.4800  14.0178  16.7600  17.3682
    17.6795  20.7380  27.9247  30.6855  31.3676

          k = 0.7273 0.0000 0.9091 (   729 PWs)   bands (ev):

   -85.1637 -45.7895 -45.7152 -45.6823  13.7610  14.1881  16.1999  17.1230
    17.6770  22.5650  27.1224  27.8996  31.7609

          k = 0.6364-0.2727 1.0000 (   727 PWs)   bands (ev):

   -85.1690 -45.7734 -45.7073 -45.6627  14.0002  14.6027  15.2213  16.8641
    17.2777  20.1065  28.8064  30.1416  33.0572

          k = 0.5455-0.1818 0.9091 (   725 PWs)   bands (ev):

   -85.1659 -45.7707 -45.7274 -45.6713  14.3199  14.6577  15.1190  16.7035
    17.5112  22.3866  25.6788  30.1613  31.4480

          k = 0.6364-0.0909 1.0000 (   724 PWs)   bands (ev):

   -85.1641 -45.7767 -45.7221 -45.6843  13.9932  14.4508  15.6044  16.9306
    17.6787  22.7609  27.7513  28.4116  29.6007

          k = 0.5455 0.0000 0.9091 (   727 PWs)   bands (ev):

   -85.1639 -45.7571 -45.7451 -45.6833  14.1926  14.7341  15.1860  16.7531
    17.6769  24.9844  25.0244  28.0380  29.9590

     the Fermi energy is    17.5592 ev

!    total energy              =    -426.56670616 Ry
     Harris-Foulkes estimate   =    -426.56670616 Ry
     estimated scf accuracy    <          3.4E-10 Ry

     total all-electron energy =     -3039.025051 Ry

     The total energy is the sum of the following terms:

     one-electron contribution =    -184.93186224 Ry
     hartree contribution      =     104.51496362 Ry
     xc contribution           =     -33.91768977 Ry
     ewald contribution        =    -223.38275369 Ry
     one-center paw contrib.   =     -88.84656844 Ry
     smearing contrib. (-TS)   =      -0.00279564 Ry

     convergence has been achieved in   7 iterations

     Forces acting on atoms (cartesian axes, Ry/au):

     atom    1 type  1   force =     0.00000000    0.00000000    0.00000000

     Total force =     0.000000     Total SCF correction =     0.000000


     Computing stress (Cartesian axis) and pressure

          total   stress  (Ry/bohr**3)                   (kbar)     P= -147.58
  -0.00100324   0.00000000   0.00000000       -147.58      0.00      0.00
   0.00000000  -0.00100324  -0.00000000          0.00   -147.58     -0.00
   0.00000000  -0.00000000  -0.00100324          0.00     -0.00   -147.58


     Writing output data file Ni.save/

     init_run     :      0.42s CPU      0.45s WALL (       1 calls)
     electrons    :      5.16s CPU      5.48s WALL (       1 calls)
     forces       :      0.04s CPU      0.05s WALL (       1 calls)
     stress       :      0.15s CPU      0.15s WALL (       1 calls)

     Called by init_run:
     wfcinit      :      0.16s CPU      0.17s WALL (       1 calls)
     potinit      :      0.09s CPU      0.10s WALL (       1 calls)
     hinit0       :      0.14s CPU      0.14s WALL (       1 calls)

     Called by electrons:
     c_bands      :      3.80s CPU      4.00s WALL (       8 calls)
     sum_band     :      0.64s CPU      0.68s WALL (       8 calls)
     v_of_rho     :      0.02s CPU      0.03s WALL (       8 calls)
     newd         :      0.05s CPU      0.05s WALL (       8 calls)
     PAW_pot      :      0.73s CPU      0.82s WALL (       8 calls)
     mix_rho      :      0.00s CPU      0.00s WALL (       8 calls)

     Called by c_bands:
     init_us_2    :      0.09s CPU      0.10s WALL (    1064 calls)
     cegterg      :      3.66s CPU      3.85s WALL (     448 calls)

     Called by sum_band:
     sum_band:bec :      0.00s CPU      0.01s WALL (     448 calls)
     addusdens    :      0.04s CPU      0.05s WALL (       8 calls)

     Called by *egterg:
     h_psi        :      2.71s CPU      2.87s WALL (    1471 calls)
     s_psi        :      0.08s CPU      0.09s WALL (    1471 calls)
     g_psi        :      0.01s CPU      0.01s WALL (     967 calls)
     cdiaghg      :      0.47s CPU      0.49s WALL (    1359 calls)

     Called by h_psi:
     h_psi:pot    :      2.70s CPU      2.86s WALL (    1471 calls)
     h_psi:calbec :      0.12s CPU      0.13s WALL (    1471 calls)
     vloc_psi     :      2.48s CPU      2.62s WALL (    1471 calls)
     add_vuspsi   :      0.09s CPU      0.09s WALL (    1471 calls)

     General routines
     calbec       :      0.19s CPU      0.20s WALL (    2199 calls)
     fft          :      0.02s CPU      0.02s WALL (     115 calls)
     ffts         :      0.00s CPU      0.00s WALL (       8 calls)
     fftw         :      2.78s CPU      2.94s WALL (   35398 calls)

     Parallel routines
     fft_scatt_xy :      0.23s CPU      0.24s WALL (   35521 calls)
     fft_scatt_yz :      0.71s CPU      0.75s WALL (   35521 calls)

     PWSCF        :     6.60s CPU         7.06s WALL


   This run was terminated on:  22:48:43  26Mar2024            

=------------------------------------------------------------------------------=
   JOB DONE.
=------------------------------------------------------------------------------=
