
     Program PWSCF v.6.3MaX starts on 26Mar2024 at 22:44: 0 

     This program is part of the open-source Quantum ESPRESSO suite
     for quantum simulation of materials; please cite
         "P. Giannozzi et al., J. Phys.:Condens. Matter 21 395502 (2009);
         "P. Giannozzi et al., J. Phys.:Condens. Matter 29 465901 (2017);
          URL http://www.quantum-espresso.org", 
     in publications or presentations arising from this work. More details at
     http://www.quantum-espresso.org/quote

     Parallel version (MPI), running on     5 processors

     MPI processes distributed on     1 nodes
     R & G space division:  proc/nbgrp/npool/nimage =       5
     Waiting for input...
     Reading input from standard input

     Current dimensions of program PWSCF are:
     Max number of different atomic species (ntypx) = 10
     Max number of k-points (npk) =  40000
     Max angular momentum in pseudopotentials (lmaxx) =  3

     Subspace diagonalization in iterative solution of the eigenvalue problem:
     a serial algorithm will be used


     Parallelization info
     --------------------
     sticks:   dense  smooth     PW     G-vecs:    dense   smooth      PW
     Min          73      73     24                  928      928     164
     Max          74      74     25                  930      930     165
     Sum         367     367    121                 4645     4645     821



     bravais-lattice index     =            2
     lattice parameter (alat)  =       6.6500  a.u.
     unit-cell volume          =      73.5199 (a.u.)^3
     number of atoms/cell      =            1
     number of atomic types    =            1
     number of electrons       =        18.00
     number of Kohn-Sham states=           13
     kinetic-energy cutoff     =      60.0000  Ry
     charge density cutoff     =     240.0000  Ry
     convergence threshold     =      1.0E-08
     mixing beta               =       0.7000
     number of iterations used =            8  plain     mixing
     Exchange-correlation      = PBESOL ( 1  4 10  8 0 0)

     celldm(1)=   6.650000  celldm(2)=   0.000000  celldm(3)=   0.000000
     celldm(4)=   0.000000  celldm(5)=   0.000000  celldm(6)=   0.000000

     crystal axes: (cart. coord. in units of alat)
               a(1) = (  -0.500000   0.000000   0.500000 )  
               a(2) = (   0.000000   0.500000   0.500000 )  
               a(3) = (  -0.500000   0.500000   0.000000 )  

     reciprocal axes: (cart. coord. in units 2 pi/alat)
               b(1) = ( -1.000000 -1.000000  1.000000 )  
               b(2) = (  1.000000  1.000000  1.000000 )  
               b(3) = ( -1.000000  1.000000 -1.000000 )  


     PseudoPot. # 1 for Ni read from file:
     /home/lorenzo/pseudos/Ni/Ni.pbesol-spn-rrkjus_psl.1.0.0.UPF
     MD5 check sum: 6fc0a587bf949a08f2faed986b854013
     Pseudo is Ultrasoft + core correction, Zval = 18.0
     Generated using "atomic" code by A. Dal Corso v.6.3
     Using radial grid of 1195 points,  6 beta functions with: 
                l(1) =   0
                l(2) =   0
                l(3) =   1
                l(4) =   1
                l(5) =   2
                l(6) =   2
     Q(r) pseudized with 0 coefficients 


     atomic species   valence    mass     pseudopotential
        Ni            18.00    58.69340     Ni( 1.00)

     48 Sym. Ops., with inversion, found



   Cartesian axes

     site n.     atom                  positions (alat units)
         1           Ni  tau(   1) = (   0.0000000   0.0000000   0.0000000  )

     number of k points=     4  gaussian smearing, width (Ry)=  0.0100
                       cart. coord. in units 2pi/alat
        k(    1) = (   0.0000000   0.0000000   0.0000000), wk =   0.0740741
        k(    2) = (  -0.3333333   0.3333333  -0.3333333), wk =   0.5925926
        k(    3) = (   0.0000000   0.6666667   0.0000000), wk =   0.4444444
        k(    4) = (   0.6666667  -0.0000000   0.6666667), wk =   0.8888889

     Dense  grid:     4645 G-vectors     FFT dimensions: (  24,  24,  24)

     Estimated max dynamical RAM per process >       4.90 MB

     Estimated total dynamical RAM >      24.49 MB

     Check: negative/imaginary core charge=   -0.000009    0.000000

     Initial potential from superposition of free atoms

     starting charge   17.99977, renormalised to   18.00000
     Starting wfcs are   10 randomized atomic wfcs +    3 random wfcs

     total cpu time spent up to now is        0.8 secs

     Self-consistent Calculation

     iteration #  1     ecut=    60.00 Ry     beta= 0.70
     Davidson diagonalization with overlap
     ethr =  1.00E-02,  avg # of iterations =  4.2

     Threshold (ethr) on eigenvalues was too large:
     Diagonalizing with lowered threshold

     Davidson diagonalization with overlap
     ethr =  2.49E-05,  avg # of iterations =  3.8

     total cpu time spent up to now is        0.9 secs

     total energy              =    -339.36125077 Ry
     Harris-Foulkes estimate   =    -339.36428164 Ry
     estimated scf accuracy    <       0.00427699 Ry

     iteration #  2     ecut=    60.00 Ry     beta= 0.70
     Davidson diagonalization with overlap
     ethr =  2.38E-05,  avg # of iterations =  3.0

     total cpu time spent up to now is        1.0 secs

     total energy              =    -339.36118605 Ry
     Harris-Foulkes estimate   =    -339.36654104 Ry
     estimated scf accuracy    <       0.01365161 Ry

     iteration #  3     ecut=    60.00 Ry     beta= 0.70
     Davidson diagonalization with overlap
     ethr =  2.38E-05,  avg # of iterations =  2.2

     total cpu time spent up to now is        1.0 secs

     total energy              =    -339.36359013 Ry
     Harris-Foulkes estimate   =    -339.36358220 Ry
     estimated scf accuracy    <       0.00002437 Ry

     iteration #  4     ecut=    60.00 Ry     beta= 0.70
     Davidson diagonalization with overlap
     ethr =  1.35E-07,  avg # of iterations =  2.2

     total cpu time spent up to now is        1.1 secs

     total energy              =    -339.36359977 Ry
     Harris-Foulkes estimate   =    -339.36359989 Ry
     estimated scf accuracy    <       0.00000031 Ry

     iteration #  5     ecut=    60.00 Ry     beta= 0.70
     Davidson diagonalization with overlap
     ethr =  1.70E-09,  avg # of iterations =  2.5

     total cpu time spent up to now is        1.1 secs

     total energy              =    -339.36359982 Ry
     Harris-Foulkes estimate   =    -339.36359983 Ry
     estimated scf accuracy    <       0.00000002 Ry

     iteration #  6     ecut=    60.00 Ry     beta= 0.70
     Davidson diagonalization with overlap
     ethr =  1.38E-10,  avg # of iterations =  2.5

     total cpu time spent up to now is        1.2 secs

     End of self-consistent calculation

          k = 0.0000 0.0000 0.0000 (   561 PWs)   bands (ev):

   -85.6041 -45.9902 -45.9902 -45.9902   8.5990  15.4001  15.4001  15.4001
    16.4730  16.4730  41.3029  45.1763  45.1763

          k =-0.3333 0.3333-0.3333 (   589 PWs)   bands (ev):

   -85.5798 -46.1555 -46.0145 -46.0145  12.0719  15.3327  15.4983  15.4983
    16.8569  16.8569  28.1716  40.6245  42.5073

          k = 0.0000 0.6667 0.0000 (   576 PWs)   bands (ev):

   -85.5709 -46.1476 -46.0522 -46.0522  12.7320  14.0204  16.5007  16.7758
    16.7758  17.0061  33.2352  34.5307  34.5307

          k = 0.6667-0.0000 0.6667 (   572 PWs)   bands (ev):

   -85.5623 -46.1390 -46.1380 -46.0453  14.0878  14.2614  15.2008  16.3636
    16.9503  22.4165  25.1464  28.1877  36.3724

     the Fermi energy is    16.9374 ev

!    total energy              =    -339.36359983 Ry
     Harris-Foulkes estimate   =    -339.36359983 Ry
     estimated scf accuracy    <          9.6E-10 Ry

     The total energy is the sum of the following terms:

     one-electron contribution =    -186.17703142 Ry
     hartree contribution      =     104.07093472 Ry
     xc contribution           =     -33.86832477 Ry
     ewald contribution        =    -223.38275372 Ry
     smearing contrib. (-TS)   =      -0.00642464 Ry

     convergence has been achieved in   6 iterations

     Forces acting on atoms (cartesian axes, Ry/au):

     atom    1 type  1   force =     0.00000000    0.00000000    0.00000000

     Total force =     0.000000     Total SCF correction =     0.000000


     Computing stress (Cartesian axis) and pressure

          total   stress  (Ry/bohr**3)                   (kbar)     P=  -45.94
  -0.00031228   0.00000000   0.00000000        -45.94      0.00      0.00
   0.00000000  -0.00031228  -0.00000000          0.00    -45.94     -0.00
   0.00000000  -0.00000000  -0.00031228          0.00     -0.00    -45.94


     Writing output data file Ni.save/

     init_run     :      0.15s CPU      0.16s WALL (       1 calls)
     electrons    :      0.31s CPU      0.33s WALL (       1 calls)
     forces       :      0.01s CPU      0.01s WALL (       1 calls)
     stress       :      0.05s CPU      0.05s WALL (       1 calls)

     Called by init_run:
     wfcinit      :      0.01s CPU      0.01s WALL (       1 calls)
     potinit      :      0.01s CPU      0.01s WALL (       1 calls)
     hinit0       :      0.13s CPU      0.13s WALL (       1 calls)

     Called by electrons:
     c_bands      :      0.20s CPU      0.21s WALL (       7 calls)
     sum_band     :      0.06s CPU      0.07s WALL (       7 calls)
     v_of_rho     :      0.02s CPU      0.02s WALL (       7 calls)
     newd         :      0.03s CPU      0.03s WALL (       7 calls)
     mix_rho      :      0.00s CPU      0.00s WALL (       7 calls)

     Called by c_bands:
     init_us_2    :      0.01s CPU      0.01s WALL (      68 calls)
     cegterg      :      0.19s CPU      0.21s WALL (      28 calls)

     Called by sum_band:
     sum_band:bec :      0.00s CPU      0.00s WALL (      28 calls)
     addusdens    :      0.03s CPU      0.03s WALL (       7 calls)

     Called by *egterg:
     h_psi        :      0.13s CPU      0.14s WALL (     114 calls)
     s_psi        :      0.00s CPU      0.00s WALL (     114 calls)
     g_psi        :      0.00s CPU      0.00s WALL (      82 calls)
     cdiaghg      :      0.04s CPU      0.04s WALL (     106 calls)

     Called by h_psi:
     h_psi:pot    :      0.13s CPU      0.14s WALL (     114 calls)
     h_psi:calbec :      0.01s CPU      0.01s WALL (     114 calls)
     vloc_psi     :      0.12s CPU      0.13s WALL (     114 calls)
     add_vuspsi   :      0.00s CPU      0.00s WALL (     114 calls)

     General routines
     calbec       :      0.01s CPU      0.01s WALL (     162 calls)
     fft          :      0.01s CPU      0.01s WALL (     104 calls)
     ffts         :      0.00s CPU      0.00s WALL (       7 calls)
     fftw         :      0.13s CPU      0.14s WALL (    2358 calls)

     Parallel routines
     fft_scatt_xy :      0.01s CPU      0.02s WALL (    2469 calls)
     fft_scatt_yz :      0.04s CPU      0.04s WALL (    2469 calls)

     PWSCF        :     1.22s CPU         1.28s WALL


   This run was terminated on:  22:44: 1  26Mar2024            

=------------------------------------------------------------------------------=
   JOB DONE.
=------------------------------------------------------------------------------=
