
     Program PWSCF v.6.3MaX starts on 26Mar2024 at 22:40:25 

     This program is part of the open-source Quantum ESPRESSO suite
     for quantum simulation of materials; please cite
         "P. Giannozzi et al., J. Phys.:Condens. Matter 21 395502 (2009);
         "P. Giannozzi et al., J. Phys.:Condens. Matter 29 465901 (2017);
          URL http://www.quantum-espresso.org", 
     in publications or presentations arising from this work. More details at
     http://www.quantum-espresso.org/quote

     Parallel version (MPI), running on     5 processors

     MPI processes distributed on     1 nodes
     R & G space division:  proc/nbgrp/npool/nimage =       5
     Waiting for input...
     Reading input from standard input

     Current dimensions of program PWSCF are:
     Max number of different atomic species (ntypx) = 10
     Max number of k-points (npk) =  40000
     Max angular momentum in pseudopotentials (lmaxx) =  3

     Subspace diagonalization in iterative solution of the eigenvalue problem:
     a serial algorithm will be used


     Parallelization info
     --------------------
     sticks:   dense  smooth     PW     G-vecs:    dense   smooth      PW
     Min          62      62     21                  705      705     144
     Max          63      63     22                  706      706     146
     Sum         313     313    109                 3527     3527     725



     bravais-lattice index     =            2
     lattice parameter (alat)  =       6.6500  a.u.
     unit-cell volume          =      73.5199 (a.u.)^3
     number of atoms/cell      =            1
     number of atomic types    =            1
     number of electrons       =        18.00
     number of Kohn-Sham states=           13
     kinetic-energy cutoff     =      50.0000  Ry
     charge density cutoff     =     200.0000  Ry
     convergence threshold     =      1.0E-08
     mixing beta               =       0.7000
     number of iterations used =            8  plain     mixing
     Exchange-correlation      = PBE ( 1  4  3  4 0 0)

     celldm(1)=   6.650000  celldm(2)=   0.000000  celldm(3)=   0.000000
     celldm(4)=   0.000000  celldm(5)=   0.000000  celldm(6)=   0.000000

     crystal axes: (cart. coord. in units of alat)
               a(1) = (  -0.500000   0.000000   0.500000 )  
               a(2) = (   0.000000   0.500000   0.500000 )  
               a(3) = (  -0.500000   0.500000   0.000000 )  

     reciprocal axes: (cart. coord. in units 2 pi/alat)
               b(1) = ( -1.000000 -1.000000  1.000000 )  
               b(2) = (  1.000000  1.000000  1.000000 )  
               b(3) = ( -1.000000  1.000000 -1.000000 )  


     PseudoPot. # 1 for Ni read from file:
     /home/lorenzo/pseudos/Ni/Ni.pbe-spn-rrkjus_psl.1.0.0.UPF
     MD5 check sum: 8b3fc9aac6dafe35f580d41bb18c3945
     Pseudo is Ultrasoft + core correction, Zval = 18.0
     Generated using "atomic" code by A. Dal Corso v.6.3
     Using radial grid of 1195 points,  6 beta functions with: 
                l(1) =   0
                l(2) =   0
                l(3) =   1
                l(4) =   1
                l(5) =   2
                l(6) =   2
     Q(r) pseudized with 0 coefficients 


     atomic species   valence    mass     pseudopotential
        Ni            18.00    58.69340     Ni( 1.00)

     48 Sym. Ops., with inversion, found



   Cartesian axes

     site n.     atom                  positions (alat units)
         1           Ni  tau(   1) = (   0.0000000   0.0000000   0.0000000  )

     number of k points=    35  gaussian smearing, width (Ry)=  0.0100
                       cart. coord. in units 2pi/alat
        k(    1) = (   0.0000000   0.0000000   0.0000000), wk =   0.0027435
        k(    2) = (  -0.1111111   0.1111111  -0.1111111), wk =   0.0219479
        k(    3) = (  -0.2222222   0.2222222  -0.2222222), wk =   0.0219479
        k(    4) = (  -0.3333333   0.3333333  -0.3333333), wk =   0.0219479
        k(    5) = (  -0.4444444   0.4444444  -0.4444444), wk =   0.0219479
        k(    6) = (   0.0000000   0.2222222   0.0000000), wk =   0.0164609
        k(    7) = (  -0.1111111   0.3333333  -0.1111111), wk =   0.0658436
        k(    8) = (  -0.2222222   0.4444444  -0.2222222), wk =   0.0658436
        k(    9) = (  -0.3333333   0.5555556  -0.3333333), wk =   0.0658436
        k(   10) = (   0.5555556  -0.3333333   0.5555556), wk =   0.0658436
        k(   11) = (   0.4444444  -0.2222222   0.4444444), wk =   0.0658436
        k(   12) = (   0.3333333  -0.1111111   0.3333333), wk =   0.0658436
        k(   13) = (   0.2222222  -0.0000000   0.2222222), wk =   0.0329218
        k(   14) = (   0.0000000   0.4444444   0.0000000), wk =   0.0164609
        k(   15) = (  -0.1111111   0.5555556  -0.1111111), wk =   0.0658436
        k(   16) = (  -0.2222222   0.6666667  -0.2222222), wk =   0.0658436
        k(   17) = (   0.6666667  -0.2222222   0.6666667), wk =   0.0658436
        k(   18) = (   0.5555556  -0.1111111   0.5555556), wk =   0.0658436
        k(   19) = (   0.4444444   0.0000000   0.4444444), wk =   0.0329218
        k(   20) = (   0.0000000   0.6666667   0.0000000), wk =   0.0164609
        k(   21) = (  -0.1111111   0.7777778  -0.1111111), wk =   0.0658436
        k(   22) = (   0.7777778  -0.1111111   0.7777778), wk =   0.0658436
        k(   23) = (   0.6666667  -0.0000000   0.6666667), wk =   0.0329218
        k(   24) = (   0.0000000   0.8888889   0.0000000), wk =   0.0164609
        k(   25) = (   0.8888889   0.0000000   0.8888889), wk =   0.0329218
        k(   26) = (  -0.2222222   0.4444444   0.0000000), wk =   0.0658436
        k(   27) = (  -0.3333333   0.5555556  -0.1111111), wk =   0.1316872
        k(   28) = (   0.5555556  -0.3333333   0.7777778), wk =   0.1316872
        k(   29) = (  -0.2222222   0.6666667   0.0000000), wk =   0.0658436
        k(   30) = (   0.6666667  -0.2222222   0.8888889), wk =   0.1316872
        k(   31) = (   0.5555556  -0.1111111   0.7777778), wk =   0.1316872
        k(   32) = (   0.4444444   0.0000000   0.6666667), wk =   0.0658436
        k(   33) = (   0.7777778  -0.1111111   1.0000000), wk =   0.0658436
        k(   34) = (   0.6666667  -0.0000000   0.8888889), wk =   0.0658436
        k(   35) = (   0.5555556  -0.1111111   1.0000000), wk =   0.0658436

     Dense  grid:     3527 G-vectors     FFT dimensions: (  24,  24,  24)

     Estimated max dynamical RAM per process >       4.50 MB

     Estimated total dynamical RAM >      22.52 MB

     Check: negative/imaginary core charge=   -0.000020    0.000000

     Initial potential from superposition of free atoms

     starting charge   17.99975, renormalised to   18.00000
     Starting wfcs are   10 randomized atomic wfcs +    3 random wfcs

     total cpu time spent up to now is        0.9 secs

     Self-consistent Calculation

     iteration #  1     ecut=    50.00 Ry     beta= 0.70
     Davidson diagonalization with overlap
     ethr =  1.00E-02,  avg # of iterations =  3.7

     Threshold (ethr) on eigenvalues was too large:
     Diagonalizing with lowered threshold

     Davidson diagonalization with overlap
     ethr =  1.90E-05,  avg # of iterations =  2.7

     total cpu time spent up to now is        1.7 secs

     total energy              =    -339.55674289 Ry
     Harris-Foulkes estimate   =    -339.55810989 Ry
     estimated scf accuracy    <       0.00345560 Ry

     iteration #  2     ecut=    50.00 Ry     beta= 0.70
     Davidson diagonalization with overlap
     ethr =  1.92E-05,  avg # of iterations =  2.0

     total cpu time spent up to now is        2.0 secs

     total energy              =    -339.55608917 Ry
     Harris-Foulkes estimate   =    -339.55854810 Ry
     estimated scf accuracy    <       0.00567733 Ry

     iteration #  3     ecut=    50.00 Ry     beta= 0.70
     Davidson diagonalization with overlap
     ethr =  1.92E-05,  avg # of iterations =  2.1

     total cpu time spent up to now is        2.3 secs

     total energy              =    -339.55739409 Ry
     Harris-Foulkes estimate   =    -339.55765027 Ry
     estimated scf accuracy    <       0.00081455 Ry

     iteration #  4     ecut=    50.00 Ry     beta= 0.70
     Davidson diagonalization with overlap
     ethr =  4.53E-06,  avg # of iterations =  1.5

     total cpu time spent up to now is        2.5 secs

     total energy              =    -339.55751780 Ry
     Harris-Foulkes estimate   =    -339.55751716 Ry
     estimated scf accuracy    <       0.00000101 Ry

     iteration #  5     ecut=    50.00 Ry     beta= 0.70
     Davidson diagonalization with overlap
     ethr =  5.64E-09,  avg # of iterations =  3.1

     total cpu time spent up to now is        2.9 secs

     total energy              =    -339.55752019 Ry
     Harris-Foulkes estimate   =    -339.55752029 Ry
     estimated scf accuracy    <       0.00000032 Ry

     iteration #  6     ecut=    50.00 Ry     beta= 0.70
     Davidson diagonalization with overlap
     ethr =  1.75E-09,  avg # of iterations =  1.1

     total cpu time spent up to now is        3.1 secs

     total energy              =    -339.55752019 Ry
     Harris-Foulkes estimate   =    -339.55752020 Ry
     estimated scf accuracy    <       0.00000004 Ry

     iteration #  7     ecut=    50.00 Ry     beta= 0.70
     Davidson diagonalization with overlap
     ethr =  2.00E-10,  avg # of iterations =  1.5

     total cpu time spent up to now is        3.3 secs

     End of self-consistent calculation

          k = 0.0000 0.0000 0.0000 (   459 PWs)   bands (ev):

   -85.3113 -45.5323 -45.5323 -45.5323   8.8756  15.9065  15.9065  15.9065
    17.0069  17.0069  41.4895  45.4372  45.4372

          k =-0.1111 0.1111-0.1111 (   429 PWs)   bands (ev):

   -85.3071 -45.5354 -45.5003 -45.5003   9.3726  15.7970  16.0244  16.0244
    16.9786  16.9786  39.2886  42.6910  44.4989

          k =-0.2222 0.2222-0.2222 (   435 PWs)   bands (ev):

   -85.2970 -45.6177 -45.5160 -45.5160  10.7081  15.5580  16.1364  16.1364
    17.0378  17.0378  33.7510  41.8573  43.4258

          k =-0.3333 0.3333-0.3333 (   437 PWs)   bands (ev):

   -85.2855 -45.6920 -45.5387 -45.5387  12.4060  15.7490  16.0177  16.0177
    17.3894  17.3894  28.5243  40.8265  42.8034

          k =-0.4444 0.4444-0.4444 (   428 PWs)   bands (ev):

   -85.2780 -45.7318 -45.5385 -45.5385  13.2640  15.8914  15.8914  17.1200
    17.7063  17.7063  24.5710  40.1032  42.5824

          k = 0.0000 0.2222 0.0000 (   443 PWs)   bands (ev):

   -85.3058 -45.5555 -45.5225 -45.5225   9.5212  15.6850  16.0958  16.0958
    16.7941  17.0950  40.3973  42.0471  42.0471

          k =-0.1111 0.3333-0.1111 (   447 PWs)   bands (ev):

   -85.2978 -45.6074 -45.5416 -45.5388  10.5688  15.4221  16.2003  16.2706
    16.7559  17.1990  35.9238  40.3346  40.6129

          k =-0.2222 0.4444-0.2222 (   441 PWs)   bands (ev):

   -85.2867 -45.6702 -45.5571 -45.5482  12.2056  15.3041  15.9655  16.2483
    17.3397  17.4823  30.4702  39.4383  39.5846

          k =-0.3333 0.5556-0.3333 (   439 PWs)   bands (ev):

   -85.2779 -45.7216 -45.5655 -45.5645  13.3908  15.6268  15.9867  16.1062
    17.7421  18.4477  25.8528  38.3362  39.4755

          k = 0.5556-0.3333 0.5556 (   444 PWs)   bands (ev):

   -85.2754 -45.7465 -45.5771 -45.5677  13.5878  15.6339  16.0362  16.3840
    17.6861  19.3428  24.0110  37.2145  40.5841

          k = 0.4444-0.2222 0.4444 (   439 PWs)   bands (ev):

   -85.2804 -45.7015 -45.5804 -45.5470  13.1423  15.6866  15.8160  16.1142
    17.3075  18.2859  27.2638  36.7257  41.8362

          k = 0.3333-0.1111 0.3333 (   439 PWs)   bands (ev):

   -85.2906 -45.6438 -45.5575 -45.5276  11.6480  15.3682  16.0410  16.2834
    16.8324  17.5704  32.2418  37.0095  43.7130

          k = 0.2222-0.0000 0.2222 (   447 PWs)   bands (ev):

   -85.3011 -45.5952 -45.5412 -45.5201  10.1296  15.5746  16.1260  16.1778
    16.7690  17.1455  37.4413  38.4155  44.7054

          k = 0.0000 0.4444 0.0000 (   443 PWs)   bands (ev):

   -85.2924 -45.6157 -45.5566 -45.5566  11.2589  15.1098  16.3949  16.5996
    16.5996  17.3060  38.0375  38.0375  38.9488

          k =-0.1111 0.5556-0.1111 (   445 PWs)   bands (ev):

   -85.2834 -45.6662 -45.5807 -45.5759  12.5310  14.8425  16.0711  16.7562
    17.3713  17.5293  33.0312  36.6764  36.8481

          k =-0.2222 0.6667-0.2222 (   438 PWs)   bands (ev):

   -85.2750 -45.7022 -45.5877 -45.5838  13.7193  14.8333  15.8187  16.6518
    17.7800  19.0061  28.0297  34.4966  36.4206

          k = 0.6667-0.2222 0.6667 (   443 PWs)   bands (ev):

   -85.2712 -45.7230 -45.6165 -45.5843  14.1798  14.9795  15.8064  16.5174
    17.7084  21.3448  24.3486  32.7044  37.3746

          k = 0.5556-0.1111 0.5556 (   439 PWs)   bands (ev):

   -85.2737 -45.7002 -45.6210 -45.5668  14.1282  15.2384  15.4943  16.4815
    17.3055  20.1003  26.5962  31.7352  39.4460

          k = 0.4444 0.0000 0.4444 (   441 PWs)   bands (ev):

   -85.2813 -45.6716 -45.6061 -45.5467  13.1145  15.1867  15.6929  16.5367
    16.8123  18.5092  30.9701  32.0548  42.3597

          k = 0.0000 0.6667 0.0000 (   444 PWs)   bands (ev):

   -85.2771 -45.6839 -45.5988 -45.5988  13.0818  14.4905  16.9086  17.2997
    17.2997  17.5429  33.5425  34.8090  34.8090

          k =-0.1111 0.7778-0.1111 (   443 PWs)   bands (ev):

   -85.2708 -45.7153 -45.6102 -45.6030  13.5963  14.3505  16.7658  17.3194
    17.7962  19.1331  30.6456  31.2322  34.1171

          k = 0.7778-0.1111 0.7778 (   440 PWs)   bands (ev):

   -85.2675 -45.7166 -45.6340 -45.5957  14.0734  14.4676  16.2541  17.1493
    17.7718  22.1280  26.5130  29.0744  34.7733

          k = 0.6667-0.0000 0.6667 (   443 PWs)   bands (ev):

   -85.2686 -45.6843 -45.6769 -45.5860  14.5441  14.6886  15.6584  16.8877
    17.4859  22.7797  25.4641  28.5698  36.6585

          k = 0.0000 0.8889 0.0000 (   452 PWs)   bands (ev):

   -85.2672 -45.7478 -45.6224 -45.6224  13.4623  14.1090  17.7039  17.8477
    17.8477  19.5308  28.3343  32.9370  32.9370

          k = 0.8889 0.0000 0.8889 (   446 PWs)   bands (ev):

   -85.2659 -45.7306 -45.6324 -45.6166  13.6308  14.1651  17.2804  17.5871
    17.8846  21.2655  27.3613  30.1803  33.1751

          k =-0.2222 0.4444 0.0000 (   439 PWs)   bands (ev):

   -85.2892 -45.6407 -45.5605 -45.5416  11.7891  15.1547  16.0117  16.6267
    16.7576  17.5914  34.3504  35.0563  40.7795

          k =-0.3333 0.5556-0.1111 (   437 PWs)   bands (ev):

   -85.2795 -45.6836 -45.5939 -45.5516  13.2958  15.0943  15.6628  16.5505
    17.2546  18.4975  29.3848  34.2349  38.1824

          k = 0.5556-0.3333 0.7778 (   436 PWs)   bands (ev):

   -85.2732 -45.7177 -45.6040 -45.5604  14.0153  15.2068  15.7432  16.4051
    17.6376  20.2524  25.0871  34.5203  36.1996

          k =-0.2222 0.6667 0.0000 (   443 PWs)   bands (ev):

   -85.2758 -45.6922 -45.6070 -45.5842  13.5016  14.6465  15.9426  17.2575
    17.2998  18.5966  31.8435  32.4719  34.3101

          k = 0.6667-0.2222 0.8889 (   442 PWs)   bands (ev):

   -85.2699 -45.7096 -45.6312 -45.5896  14.1868  14.6952  15.7057  17.0072
    17.6942  20.8423  27.4031  31.6417  32.6510

          k = 0.5556-0.1111 0.7778 (   431 PWs)   bands (ev):

   -85.2686 -45.6945 -45.6380 -45.5706  14.6486  14.6958  15.5057  16.8169
    17.6576  22.8980  24.8122  30.2289  33.6521

          k = 0.4444 0.0000 0.6667 (   433 PWs)   bands (ev):

   -85.2724 -45.6853 -45.6340 -45.5588  14.3542  15.0881  15.1740  16.8254
    17.3234  20.3020  28.3412  30.0541  35.6030

          k = 0.7778-0.1111 1.0000 (   442 PWs)   bands (ev):

   -85.2670 -45.7202 -45.6301 -45.6059  13.7972  14.3221  16.6519  17.4645
    17.8518  21.1345  28.5984  30.3252  31.2836

          k = 0.6667-0.0000 0.8889 (   435 PWs)   bands (ev):

   -85.2661 -45.7034 -45.6420 -45.5934  14.1673  14.5685  16.0362  17.1532
    17.8488  23.6223  26.4553  27.9811  31.8368

          k = 0.5556-0.1111 1.0000 (   438 PWs)   bands (ev):

   -85.2666 -45.6863 -45.6637 -45.5934  14.3923  14.9679  15.3654  16.9716
    17.8476  23.6339  26.7700  28.8277  30.0163

     the Fermi energy is    17.7558 ev

!    total energy              =    -339.55752020 Ry
     Harris-Foulkes estimate   =    -339.55752020 Ry
     estimated scf accuracy    <          8.6E-10 Ry

     The total energy is the sum of the following terms:

     one-electron contribution =    -186.60351332 Ry
     hartree contribution      =     104.75725264 Ry
     xc contribution           =     -34.32607580 Ry
     ewald contribution        =    -223.38275374 Ry
     smearing contrib. (-TS)   =      -0.00242997 Ry

     convergence has been achieved in   7 iterations

     Forces acting on atoms (cartesian axes, Ry/au):

     atom    1 type  1   force =     0.00000000    0.00000000    0.00000000

     Total force =     0.000000     Total SCF correction =     0.000000


     Computing stress (Cartesian axis) and pressure

          total   stress  (Ry/bohr**3)                   (kbar)     P= -766.51
  -0.00521061   0.00000000   0.00000000       -766.51      0.00      0.00
   0.00000000  -0.00521061  -0.00000000          0.00   -766.51     -0.00
   0.00000000  -0.00000000  -0.00521061          0.00     -0.00   -766.51


     Writing output data file Ni.save/

     init_run     :      0.19s CPU      0.21s WALL (       1 calls)
     electrons    :      2.26s CPU      2.42s WALL (       1 calls)
     forces       :      0.02s CPU      0.02s WALL (       1 calls)
     stress       :      0.07s CPU      0.07s WALL (       1 calls)

     Called by init_run:
     wfcinit      :      0.07s CPU      0.08s WALL (       1 calls)
     potinit      :      0.01s CPU      0.01s WALL (       1 calls)
     hinit0       :      0.12s CPU      0.12s WALL (       1 calls)

     Called by electrons:
     c_bands      :      1.88s CPU      2.01s WALL (       8 calls)
     sum_band     :      0.34s CPU      0.36s WALL (       8 calls)
     v_of_rho     :      0.02s CPU      0.02s WALL (       8 calls)
     newd         :      0.03s CPU      0.03s WALL (       8 calls)
     mix_rho      :      0.00s CPU      0.00s WALL (       8 calls)

     Called by c_bands:
     init_us_2    :      0.04s CPU      0.04s WALL (     665 calls)
     cegterg      :      1.82s CPU      1.95s WALL (     280 calls)

     Called by sum_band:
     sum_band:bec :      0.00s CPU      0.00s WALL (     280 calls)
     addusdens    :      0.03s CPU      0.03s WALL (       8 calls)

     Called by *egterg:
     h_psi        :      1.29s CPU      1.40s WALL (     935 calls)
     s_psi        :      0.04s CPU      0.04s WALL (     935 calls)
     g_psi        :      0.00s CPU      0.00s WALL (     620 calls)
     cdiaghg      :      0.31s CPU      0.32s WALL (     865 calls)

     Called by h_psi:
     h_psi:pot    :      1.29s CPU      1.39s WALL (     935 calls)
     h_psi:calbec :      0.05s CPU      0.06s WALL (     935 calls)
     vloc_psi     :      1.19s CPU      1.29s WALL (     935 calls)
     add_vuspsi   :      0.04s CPU      0.04s WALL (     935 calls)

     General routines
     calbec       :      0.08s CPU      0.08s WALL (    1390 calls)
     fft          :      0.01s CPU      0.01s WALL (     115 calls)
     ffts         :      0.00s CPU      0.00s WALL (       8 calls)
     fftw         :      1.32s CPU      1.43s WALL (   21908 calls)

     Parallel routines
     fft_scatt_xy :      0.13s CPU      0.14s WALL (   22031 calls)
     fft_scatt_yz :      0.30s CPU      0.33s WALL (   22031 calls)

     PWSCF        :     3.27s CPU         3.50s WALL


   This run was terminated on:  22:40:29  26Mar2024            

=------------------------------------------------------------------------------=
   JOB DONE.
=------------------------------------------------------------------------------=
