
     Program PWSCF v.6.3MaX starts on 26Mar2024 at 22:24:19 

     This program is part of the open-source Quantum ESPRESSO suite
     for quantum simulation of materials; please cite
         "P. Giannozzi et al., J. Phys.:Condens. Matter 21 395502 (2009);
         "P. Giannozzi et al., J. Phys.:Condens. Matter 29 465901 (2017);
          URL http://www.quantum-espresso.org", 
     in publications or presentations arising from this work. More details at
     http://www.quantum-espresso.org/quote

     Parallel version (MPI), running on     5 processors

     MPI processes distributed on     1 nodes
     R & G space division:  proc/nbgrp/npool/nimage =       5
     Waiting for input...
     Reading input from standard input

     Current dimensions of program PWSCF are:
     Max number of different atomic species (ntypx) = 10
     Max number of k-points (npk) =  40000
     Max angular momentum in pseudopotentials (lmaxx) =  3
               file Ni.pbesol-spn-kjpaw_psl.1.0.0.UPF: wavefunction(s)  3P 3D renormalized

     Subspace diagonalization in iterative solution of the eigenvalue problem:
     a serial algorithm will be used


     Parallelization info
     --------------------
     sticks:   dense  smooth     PW     G-vecs:    dense   smooth      PW
     Min          17      17      3                  112      112      11
     Max          19      19      4                  113      113      14
     Sum          91      91     19                  561      561      65



     bravais-lattice index     =            2
     lattice parameter (alat)  =       6.6500  a.u.
     unit-cell volume          =      73.5199 (a.u.)^3
     number of atoms/cell      =            1
     number of atomic types    =            1
     number of electrons       =        18.00
     number of Kohn-Sham states=           13
     kinetic-energy cutoff     =      15.0000  Ry
     charge density cutoff     =      60.0000  Ry
     convergence threshold     =      1.0E-08
     mixing beta               =       0.7000
     number of iterations used =            8  plain     mixing
     Exchange-correlation      = SLA PW PSX PSC ( 1  4 10  8 0 0)

     celldm(1)=   6.650000  celldm(2)=   0.000000  celldm(3)=   0.000000
     celldm(4)=   0.000000  celldm(5)=   0.000000  celldm(6)=   0.000000

     crystal axes: (cart. coord. in units of alat)
               a(1) = (  -0.500000   0.000000   0.500000 )  
               a(2) = (   0.000000   0.500000   0.500000 )  
               a(3) = (  -0.500000   0.500000   0.000000 )  

     reciprocal axes: (cart. coord. in units 2 pi/alat)
               b(1) = ( -1.000000 -1.000000  1.000000 )  
               b(2) = (  1.000000  1.000000  1.000000 )  
               b(3) = ( -1.000000  1.000000 -1.000000 )  


     PseudoPot. # 1 for Ni read from file:
     /home/lorenzo/pseudos/Ni/Ni.pbesol-spn-kjpaw_psl.1.0.0.UPF
     MD5 check sum: ef06ee83099c2673f0516457bd731f51
     Pseudo is Projector augmented-wave + core cor, Zval = 18.0
     Generated using "atomic" code by A. Dal Corso v.6.3
     Shape of augmentation charge: PSQ
     Using radial grid of 1195 points,  6 beta functions with: 
                l(1) =   0
                l(2) =   0
                l(3) =   1
                l(4) =   1
                l(5) =   2
                l(6) =   2
     Q(r) pseudized with 0 coefficients 


     atomic species   valence    mass     pseudopotential
        Ni            18.00    58.69340     Ni( 1.00)

     48 Sym. Ops., with inversion, found



   Cartesian axes

     site n.     atom                  positions (alat units)
         1           Ni  tau(   1) = (   0.0000000   0.0000000   0.0000000  )

     number of k points=     1  gaussian smearing, width (Ry)=  0.0100
                       cart. coord. in units 2pi/alat
        k(    1) = (   0.0000000   0.0000000   0.0000000), wk =   2.0000000

     Dense  grid:      561 G-vectors     FFT dimensions: (  12,  12,  12)

     Estimated max dynamical RAM per process >       1.09 MB

     Estimated total dynamical RAM >       5.45 MB

     Check: negative/imaginary core charge=   -0.001444    0.000000

     Initial potential from superposition of free atoms
     Check: negative starting charge=   -0.123834

     starting charge   17.99977, renormalised to   18.00000

     negative rho (up, down):  1.238E-01 0.000E+00
     Starting wfcs are   10 randomized atomic wfcs +    3 random wfcs
     Checking if some PAW data can be deallocated... 

     total cpu time spent up to now is        1.3 secs

     Self-consistent Calculation

     iteration #  1     ecut=    15.00 Ry     beta= 0.70
     Davidson diagonalization with overlap
     ethr =  1.00E-02,  avg # of iterations =  4.0

     total cpu time spent up to now is        1.4 secs

     total energy              =    -351.47664765 Ry
     Harris-Foulkes estimate   =    -393.39564170 Ry
     estimated scf accuracy    <      49.07246261 Ry

     iteration #  2     ecut=    15.00 Ry     beta= 0.70
     Davidson diagonalization with overlap
     ethr =  1.00E-02,  avg # of iterations =  3.0

     negative rho (up, down):  4.138E-03 0.000E+00

     total cpu time spent up to now is        1.6 secs

     total energy              =    -357.59605975 Ry
     Harris-Foulkes estimate   =    -358.95045047 Ry
     estimated scf accuracy    <       2.45671926 Ry

     iteration #  3     ecut=    15.00 Ry     beta= 0.70
     Davidson diagonalization with overlap
     ethr =  1.00E-02,  avg # of iterations =  1.0

     negative rho (up, down):  9.413E-03 0.000E+00

     total cpu time spent up to now is        1.7 secs

     total energy              =    -357.48834357 Ry
     Harris-Foulkes estimate   =    -357.61986669 Ry
     estimated scf accuracy    <       0.18335103 Ry

     iteration #  4     ecut=    15.00 Ry     beta= 0.70
     Davidson diagonalization with overlap
     ethr =  1.02E-03,  avg # of iterations =  1.0

     negative rho (up, down):  8.822E-03 0.000E+00

     total cpu time spent up to now is        1.8 secs

     total energy              =    -357.49386271 Ry
     Harris-Foulkes estimate   =    -357.49412464 Ry
     estimated scf accuracy    <       0.00047268 Ry

     iteration #  5     ecut=    15.00 Ry     beta= 0.70
     Davidson diagonalization with overlap
     ethr =  2.63E-06,  avg # of iterations =  2.0

     negative rho (up, down):  9.134E-03 0.000E+00

     total cpu time spent up to now is        1.9 secs

     total energy              =    -357.49393247 Ry
     Harris-Foulkes estimate   =    -357.49400821 Ry
     estimated scf accuracy    <       0.00008168 Ry

     iteration #  6     ecut=    15.00 Ry     beta= 0.70
     Davidson diagonalization with overlap
     ethr =  4.54E-07,  avg # of iterations =  2.0

     negative rho (up, down):  9.152E-03 0.000E+00

     total cpu time spent up to now is        2.0 secs

     total energy              =    -357.49394981 Ry
     Harris-Foulkes estimate   =    -357.49394986 Ry
     estimated scf accuracy    <       0.00000074 Ry

     iteration #  7     ecut=    15.00 Ry     beta= 0.70
     Davidson diagonalization with overlap
     ethr =  4.12E-09,  avg # of iterations =  1.0

     negative rho (up, down):  9.140E-03 0.000E+00

     total cpu time spent up to now is        2.1 secs

     End of self-consistent calculation

          k = 0.0000 0.0000 0.0000 (    65 PWs)   bands (ev):

  -175.2762 -50.4449 -50.4449 -50.4449  13.4617  34.3309  34.3309  34.8628
    34.8628  34.8628  48.6884  52.7910  52.7910

     the Fermi energy is    34.9042 ev

!    total energy              =    -357.49394982 Ry
     Harris-Foulkes estimate   =    -357.49394983 Ry
     estimated scf accuracy    <          7.2E-09 Ry

     total all-electron energy =     -2969.952294 Ry

     The total energy is the sum of the following terms:

     one-electron contribution =     -53.69477060 Ry
     hartree contribution      =      32.01717577 Ry
     xc contribution           =     -24.95491834 Ry
     ewald contribution        =    -223.38275371 Ry
     one-center paw contrib.   =     -87.46325671 Ry
     smearing contrib. (-TS)   =      -0.01542623 Ry

     convergence has been achieved in   7 iterations

     negative rho (up, down):  9.140E-03 0.000E+00

     Forces acting on atoms (cartesian axes, Ry/au):

     atom    1 type  1   force =     0.00000000    0.00000000    0.00000000

     Total force =     0.000000     Total SCF correction =     0.000000


     Computing stress (Cartesian axis) and pressure


     negative rho (up, down):  9.140E-03 0.000E+00
          total   stress  (Ry/bohr**3)                   (kbar)     P=********
  -0.81106584   0.00000000   0.00000000    -119311.88      0.00      0.00
   0.00000000  -0.81106584  -0.00000000          0.00-119311.88     -0.00
   0.00000000  -0.00000000  -0.81106584          0.00     -0.00-119311.88


     Writing output data file Ni.save/

     init_run     :      0.19s CPU      0.21s WALL (       1 calls)
     electrons    :      0.69s CPU      0.79s WALL (       1 calls)
     forces       :      0.00s CPU      0.00s WALL (       1 calls)
     stress       :      0.01s CPU      0.01s WALL (       1 calls)

     Called by init_run:
     wfcinit      :      0.00s CPU      0.00s WALL (       1 calls)
     potinit      :      0.11s CPU      0.13s WALL (       1 calls)
     hinit0       :      0.06s CPU      0.06s WALL (       1 calls)

     Called by electrons:
     c_bands      :      0.02s CPU      0.02s WALL (       7 calls)
     sum_band     :      0.01s CPU      0.01s WALL (       7 calls)
     v_of_rho     :      0.00s CPU      0.00s WALL (       8 calls)
     newd         :      0.01s CPU      0.01s WALL (       8 calls)
     PAW_pot      :      0.74s CPU      0.85s WALL (       8 calls)
     mix_rho      :      0.00s CPU      0.00s WALL (       7 calls)

     Called by c_bands:
     init_us_2    :      0.00s CPU      0.00s WALL (      15 calls)
     cegterg      :      0.02s CPU      0.02s WALL (       7 calls)

     Called by sum_band:
     sum_band:bec :      0.00s CPU      0.00s WALL (       7 calls)
     addusdens    :      0.00s CPU      0.01s WALL (       7 calls)

     Called by *egterg:
     h_psi        :      0.01s CPU      0.01s WALL (      22 calls)
     s_psi        :      0.00s CPU      0.00s WALL (      22 calls)
     g_psi        :      0.00s CPU      0.00s WALL (      14 calls)
     cdiaghg      :      0.01s CPU      0.01s WALL (      21 calls)

     Called by h_psi:
     h_psi:pot    :      0.01s CPU      0.01s WALL (      22 calls)
     h_psi:calbec :      0.00s CPU      0.00s WALL (      22 calls)
     vloc_psi     :      0.01s CPU      0.01s WALL (      22 calls)
     add_vuspsi   :      0.00s CPU      0.00s WALL (      22 calls)

     General routines
     calbec       :      0.00s CPU      0.00s WALL (      34 calls)
     fft          :      0.01s CPU      0.01s WALL (     114 calls)
     ffts         :      0.00s CPU      0.00s WALL (       7 calls)
     fftw         :      0.01s CPU      0.01s WALL (     581 calls)

     Parallel routines
     fft_scatt_xy :      0.00s CPU      0.00s WALL (     702 calls)
     fft_scatt_yz :      0.01s CPU      0.01s WALL (     702 calls)

     PWSCF        :     2.00s CPU         2.18s WALL


   This run was terminated on:  22:24:21  26Mar2024            

=------------------------------------------------------------------------------=
   JOB DONE.
=------------------------------------------------------------------------------=
