
     Program PWSCF v.6.3MaX starts on 26Mar2024 at 23: 6:11 

     This program is part of the open-source Quantum ESPRESSO suite
     for quantum simulation of materials; please cite
         "P. Giannozzi et al., J. Phys.:Condens. Matter 21 395502 (2009);
         "P. Giannozzi et al., J. Phys.:Condens. Matter 29 465901 (2017);
          URL http://www.quantum-espresso.org", 
     in publications or presentations arising from this work. More details at
     http://www.quantum-espresso.org/quote

     Parallel version (MPI), running on     5 processors

     MPI processes distributed on     1 nodes
     R & G space division:  proc/nbgrp/npool/nimage =       5
     Waiting for input...
     Reading input from standard input

     Current dimensions of program PWSCF are:
     Max number of different atomic species (ntypx) = 10
     Max number of k-points (npk) =  40000
     Max angular momentum in pseudopotentials (lmaxx) =  3

     Subspace diagonalization in iterative solution of the eigenvalue problem:
     a serial algorithm will be used


     Parallelization info
     --------------------
     sticks:   dense  smooth     PW     G-vecs:    dense   smooth      PW
     Min         116     116     37                 1850     1850     327
     Max         117     117     38                 1853     1853     329
     Sum         583     583    187                 9257     9257    1639



     bravais-lattice index     =            2
     lattice parameter (alat)  =       6.6500  a.u.
     unit-cell volume          =      73.5199 (a.u.)^3
     number of atoms/cell      =            1
     number of atomic types    =            1
     number of electrons       =        18.00
     number of Kohn-Sham states=           13
     kinetic-energy cutoff     =      95.0000  Ry
     charge density cutoff     =     380.0000  Ry
     convergence threshold     =      1.0E-08
     mixing beta               =       0.7000
     number of iterations used =            8  plain     mixing
     Exchange-correlation      = PBESOL ( 1  4 10  8 0 0)

     celldm(1)=   6.650000  celldm(2)=   0.000000  celldm(3)=   0.000000
     celldm(4)=   0.000000  celldm(5)=   0.000000  celldm(6)=   0.000000

     crystal axes: (cart. coord. in units of alat)
               a(1) = (  -0.500000   0.000000   0.500000 )  
               a(2) = (   0.000000   0.500000   0.500000 )  
               a(3) = (  -0.500000   0.500000   0.000000 )  

     reciprocal axes: (cart. coord. in units 2 pi/alat)
               b(1) = ( -1.000000 -1.000000  1.000000 )  
               b(2) = (  1.000000  1.000000  1.000000 )  
               b(3) = ( -1.000000  1.000000 -1.000000 )  


     PseudoPot. # 1 for Ni read from file:
     /home/lorenzo/pseudos/Ni/Ni.pbesol-spn-rrkjus_psl.1.0.0.UPF
     MD5 check sum: 6fc0a587bf949a08f2faed986b854013
     Pseudo is Ultrasoft + core correction, Zval = 18.0
     Generated using "atomic" code by A. Dal Corso v.6.3
     Using radial grid of 1195 points,  6 beta functions with: 
                l(1) =   0
                l(2) =   0
                l(3) =   1
                l(4) =   1
                l(5) =   2
                l(6) =   2
     Q(r) pseudized with 0 coefficients 


     atomic species   valence    mass     pseudopotential
        Ni            18.00    58.69340     Ni( 1.00)

     48 Sym. Ops., with inversion, found



   Cartesian axes

     site n.     atom                  positions (alat units)
         1           Ni  tau(   1) = (   0.0000000   0.0000000   0.0000000  )

     number of k points=    20  gaussian smearing, width (Ry)=  0.0100
                       cart. coord. in units 2pi/alat
        k(    1) = (   0.0000000   0.0000000   0.0000000), wk =   0.0058309
        k(    2) = (  -0.1428571   0.1428571  -0.1428571), wk =   0.0466472
        k(    3) = (  -0.2857143   0.2857143  -0.2857143), wk =   0.0466472
        k(    4) = (  -0.4285714   0.4285714  -0.4285714), wk =   0.0466472
        k(    5) = (   0.0000000   0.2857143   0.0000000), wk =   0.0349854
        k(    6) = (  -0.1428571   0.4285714  -0.1428571), wk =   0.1399417
        k(    7) = (  -0.2857143   0.5714286  -0.2857143), wk =   0.1399417
        k(    8) = (   0.5714286  -0.2857143   0.5714286), wk =   0.1399417
        k(    9) = (   0.4285714  -0.1428571   0.4285714), wk =   0.1399417
        k(   10) = (   0.2857143  -0.0000000   0.2857143), wk =   0.0699708
        k(   11) = (   0.0000000   0.5714286   0.0000000), wk =   0.0349854
        k(   12) = (  -0.1428571   0.7142857  -0.1428571), wk =   0.1399417
        k(   13) = (   0.7142857  -0.1428571   0.7142857), wk =   0.1399417
        k(   14) = (   0.5714286   0.0000000   0.5714286), wk =   0.0699708
        k(   15) = (   0.0000000   0.8571429   0.0000000), wk =   0.0349854
        k(   16) = (   0.8571429  -0.0000000   0.8571429), wk =   0.0699708
        k(   17) = (  -0.2857143   0.5714286   0.0000000), wk =   0.1399417
        k(   18) = (   0.5714286  -0.2857143   0.8571429), wk =   0.2798834
        k(   19) = (   0.7142857  -0.1428571   1.0000000), wk =   0.1399417
        k(   20) = (   0.5714286   0.0000000   0.8571429), wk =   0.1399417

     Dense  grid:     9257 G-vectors     FFT dimensions: (  30,  30,  30)

     Estimated max dynamical RAM per process >       9.49 MB

     Estimated total dynamical RAM >      47.47 MB

     Check: negative/imaginary core charge=   -0.000003    0.000000

     Initial potential from superposition of free atoms

     starting charge   17.99977, renormalised to   18.00000
     Starting wfcs are   10 randomized atomic wfcs +    3 random wfcs

     total cpu time spent up to now is        1.1 secs

     Self-consistent Calculation

     iteration #  1     ecut=    95.00 Ry     beta= 0.70
     Davidson diagonalization with overlap
     ethr =  1.00E-02,  avg # of iterations =  3.5

     Threshold (ethr) on eigenvalues was too large:
     Diagonalizing with lowered threshold

     Davidson diagonalization with overlap
     ethr =  1.28E-05,  avg # of iterations =  3.2

     total cpu time spent up to now is        1.9 secs

     total energy              =    -339.40123412 Ry
     Harris-Foulkes estimate   =    -339.40234570 Ry
     estimated scf accuracy    <       0.00224800 Ry

     iteration #  2     ecut=    95.00 Ry     beta= 0.70
     Davidson diagonalization with overlap
     ethr =  1.25E-05,  avg # of iterations =  2.1

     total cpu time spent up to now is        2.2 secs

     total energy              =    -339.40078772 Ry
     Harris-Foulkes estimate   =    -339.40249391 Ry
     estimated scf accuracy    <       0.00392543 Ry

     iteration #  3     ecut=    95.00 Ry     beta= 0.70
     Davidson diagonalization with overlap
     ethr =  1.25E-05,  avg # of iterations =  2.1

     total cpu time spent up to now is        2.5 secs

     total energy              =    -339.40167700 Ry
     Harris-Foulkes estimate   =    -339.40183577 Ry
     estimated scf accuracy    <       0.00047423 Ry

     iteration #  4     ecut=    95.00 Ry     beta= 0.70
     Davidson diagonalization with overlap
     ethr =  2.63E-06,  avg # of iterations =  1.8

     total cpu time spent up to now is        2.8 secs

     total energy              =    -339.40174700 Ry
     Harris-Foulkes estimate   =    -339.40174683 Ry
     estimated scf accuracy    <       0.00000027 Ry

     iteration #  5     ecut=    95.00 Ry     beta= 0.70
     Davidson diagonalization with overlap
     ethr =  1.47E-09,  avg # of iterations =  3.5

     total cpu time spent up to now is        3.2 secs

     total energy              =    -339.40174862 Ry
     Harris-Foulkes estimate   =    -339.40174869 Ry
     estimated scf accuracy    <       0.00000020 Ry

     iteration #  6     ecut=    95.00 Ry     beta= 0.70
     Davidson diagonalization with overlap
     ethr =  1.10E-09,  avg # of iterations =  1.0

     total cpu time spent up to now is        3.5 secs

     total energy              =    -339.40174862 Ry
     Harris-Foulkes estimate   =    -339.40174863 Ry
     estimated scf accuracy    <       0.00000003 Ry

     iteration #  7     ecut=    95.00 Ry     beta= 0.70
     Davidson diagonalization with overlap
     ethr =  1.56E-10,  avg # of iterations =  1.2

     total cpu time spent up to now is        3.8 secs

     End of self-consistent calculation

          k = 0.0000 0.0000 0.0000 (  1139 PWs)   bands (ev):

   -85.1407 -45.5533 -45.5533 -45.5533   8.6043  15.7274  15.7274  15.7274
    16.8541  16.8541  41.2791  45.2003  45.2003

          k =-0.1429 0.1429-0.1429 (  1173 PWs)   bands (ev):

   -85.1342 -45.5961 -45.5599 -45.5599   9.3894  15.5301  15.8772  15.8772
    16.8074  16.8074  37.5415  42.2015  43.9260

          k =-0.2857 0.2857-0.2857 (  1155 PWs)   bands (ev):

   -85.1196 -45.6908 -45.5734 -45.5734  11.4303  15.3561  15.9024  15.9024
    17.0605  17.0605  30.4350  41.0474  42.7890

          k =-0.4286 0.4286-0.4286 (  1155 PWs)   bands (ev):

   -85.1079 -45.7665 -45.5844 -45.5844  12.9712  15.7191  15.7191  16.6791
    17.5180  17.5180  24.7271  39.9474  42.3590

          k = 0.0000 0.2857 0.0000 (  1155 PWs)   bands (ev):

   -85.1320 -45.5947 -45.5693 -45.5693   9.6460  15.3512  16.0270  16.0270
    16.5210  16.9885  39.7425  40.6310  40.6310

          k =-0.1429 0.4286-0.1429 (  1139 PWs)   bands (ev):

   -85.1202 -45.6643 -45.5852 -45.5827  11.2785  15.0158  15.9213  16.2231
    16.8310  17.2144  33.2249  38.6728  39.3491

          k =-0.2857 0.5714-0.2857 (  1157 PWs)   bands (ev):

   -85.1075 -45.7403 -45.6024 -45.5956  13.1555  15.1649  15.6242  16.0842
    17.5787  18.2396  26.7439  37.3283  38.2599

          k = 0.5714-0.2857 0.5714 (  1152 PWs)   bands (ev):

   -85.1036 -45.7623 -45.6160 -45.5923  13.5372  15.3162  15.9468  15.9730
    17.4920  19.6787  23.8942  35.5310  39.6539

          k = 0.4286-0.1429 0.4286 (  1146 PWs)   bands (ev):

   -85.1114 -45.7163 -45.6115 -45.5779  12.6956  15.1865  15.6270  16.0929
    16.9006  18.0886  28.7747  34.9784  42.0844

          k = 0.2857-0.0000 0.2857 (  1153 PWs)   bands (ev):

   -85.1250 -45.6420 -45.5868 -45.5636  10.6166  15.2406  15.9306  16.1493
    16.5082  17.2023  35.3303  36.0998  45.2865

          k = 0.0000 0.5714 0.0000 (  1146 PWs)   bands (ev):

   -85.1127 -45.6848 -45.6048 -45.6048  12.1847  14.5529  16.2440  16.8221
    16.8221  17.2966  35.8357  35.8357  35.8819

          k =-0.1429 0.7143-0.1429 (  1144 PWs)   bands (ev):

   -85.1027 -45.7288 -45.6306 -45.6171  13.3765  14.3330  16.0773  16.8918
    17.6171  18.5944  30.0749  32.4881  34.7542

          k = 0.7143-0.1429 0.7143 (  1147 PWs)   bands (ev):

   -85.0979 -45.7345 -45.6697 -45.6131  14.1199  14.4709  15.6833  16.6942
    17.5408  22.2266  24.6382  29.9855  35.7804

          k = 0.5714 0.0000 0.5714 (  1137 PWs)   bands (ev):

   -85.1017 -45.7174 -45.6725 -45.5956  14.1490  14.9537  15.1258  16.4938
    17.0418  20.2568  27.4878  29.4073  38.6766

          k = 0.0000 0.8571 0.0000 (  1146 PWs)   bands (ev):

   -85.0971 -45.7553 -45.6333 -45.6333  13.2654  13.9543  17.5501  17.6366
    17.6366  18.9184  28.6896  32.8679  32.8679

          k = 0.8571-0.0000 0.8571 (  1150 PWs)   bands (ev):

   -85.0950 -45.7530 -45.6557 -45.6315  13.5447  14.0375  16.8261  17.3637
    17.6866  21.5530  27.1408  28.8836  33.2571

          k =-0.2857 0.5714 0.0000 (  1142 PWs)   bands (ev):

   -85.1093 -45.7045 -45.6257 -45.5926  12.9203  14.7352  15.5233  16.7660
    16.8319  18.1850  31.5765  32.3802  37.0823

          k = 0.5714-0.2857 0.8571 (  1146 PWs)   bands (ev):

   -85.1005 -45.7348 -45.6532 -45.6074  14.1055  14.7645  15.2912  16.5269
    17.4306  20.5986  25.8258  32.2144  34.1232

          k = 0.7143-0.1429 1.0000 (  1150 PWs)   bands (ev):

   -85.0967 -45.7379 -45.6570 -45.6315  13.8009  14.2944  15.9764  17.1611
    17.6341  21.1674  29.1640  29.2154  30.4921

          k = 0.5714 0.0000 0.8571 (  1162 PWs)   bands (ev):

   -85.0957 -45.7104 -45.6968 -45.6282  14.2509  14.6270  15.3312  16.7985
    17.6312  24.4161  24.8574  28.0689  31.3757

     the Fermi energy is    17.6218 ev

!    total energy              =    -339.40174862 Ry
     Harris-Foulkes estimate   =    -339.40174862 Ry
     estimated scf accuracy    <          8.4E-10 Ry

     The total energy is the sum of the following terms:

     one-electron contribution =    -186.66333012 Ry
     hartree contribution      =     104.57528315 Ry
     xc contribution           =     -33.92828654 Ry
     ewald contribution        =    -223.38275369 Ry
     smearing contrib. (-TS)   =      -0.00266143 Ry

     convergence has been achieved in   7 iterations

     Forces acting on atoms (cartesian axes, Ry/au):

     atom    1 type  1   force =     0.00000000    0.00000000    0.00000000

     Total force =     0.000000     Total SCF correction =     0.000000


     Computing stress (Cartesian axis) and pressure

          total   stress  (Ry/bohr**3)                   (kbar)     P= -114.36
  -0.00077738   0.00000000   0.00000000       -114.36      0.00      0.00
   0.00000000  -0.00077738   0.00000000          0.00   -114.36      0.00
   0.00000000   0.00000000  -0.00077738          0.00      0.00   -114.36


     Writing output data file Ni.save/

     init_run     :      0.31s CPU      0.33s WALL (       1 calls)
     electrons    :      2.65s CPU      2.76s WALL (       1 calls)
     forces       :      0.06s CPU      0.06s WALL (       1 calls)
     stress       :      0.21s CPU      0.21s WALL (       1 calls)

     Called by init_run:
     wfcinit      :      0.11s CPU      0.11s WALL (       1 calls)
     potinit      :      0.01s CPU      0.01s WALL (       1 calls)
     hinit0       :      0.18s CPU      0.19s WALL (       1 calls)

     Called by electrons:
     c_bands      :      2.10s CPU      2.19s WALL (       8 calls)
     sum_band     :      0.43s CPU      0.45s WALL (       8 calls)
     v_of_rho     :      0.05s CPU      0.05s WALL (       8 calls)
     newd         :      0.07s CPU      0.07s WALL (       8 calls)
     mix_rho      :      0.00s CPU      0.00s WALL (       8 calls)

     Called by c_bands:
     init_us_2    :      0.06s CPU      0.06s WALL (     380 calls)
     cegterg      :      2.02s CPU      2.11s WALL (     160 calls)

     Called by sum_band:
     sum_band:bec :      0.00s CPU      0.00s WALL (     160 calls)
     addusdens    :      0.07s CPU      0.07s WALL (       8 calls)

     Called by *egterg:
     h_psi        :      1.56s CPU      1.64s WALL (     548 calls)
     s_psi        :      0.05s CPU      0.05s WALL (     548 calls)
     g_psi        :      0.00s CPU      0.00s WALL (     368 calls)
     cdiaghg      :      0.19s CPU      0.20s WALL (     508 calls)

     Called by h_psi:
     h_psi:pot    :      1.56s CPU      1.63s WALL (     548 calls)
     h_psi:calbec :      0.08s CPU      0.08s WALL (     548 calls)
     vloc_psi     :      1.43s CPU      1.49s WALL (     548 calls)
     add_vuspsi   :      0.05s CPU      0.05s WALL (     548 calls)

     General routines
     calbec       :      0.13s CPU      0.13s WALL (     808 calls)
     fft          :      0.04s CPU      0.04s WALL (     115 calls)
     ffts         :      0.00s CPU      0.00s WALL (       8 calls)
     fftw         :      1.62s CPU      1.69s WALL (   12694 calls)

     Parallel routines
     fft_scatt_xy :      0.13s CPU      0.14s WALL (   12817 calls)
     fft_scatt_yz :      0.49s CPU      0.51s WALL (   12817 calls)

     PWSCF        :     4.02s CPU         4.19s WALL


   This run was terminated on:  23: 6:15  26Mar2024            

=------------------------------------------------------------------------------=
   JOB DONE.
=------------------------------------------------------------------------------=
