
     Program PWSCF v.6.3MaX starts on 26Mar2024 at 23: 3:27 

     This program is part of the open-source Quantum ESPRESSO suite
     for quantum simulation of materials; please cite
         "P. Giannozzi et al., J. Phys.:Condens. Matter 21 395502 (2009);
         "P. Giannozzi et al., J. Phys.:Condens. Matter 29 465901 (2017);
          URL http://www.quantum-espresso.org", 
     in publications or presentations arising from this work. More details at
     http://www.quantum-espresso.org/quote

     Parallel version (MPI), running on     5 processors

     MPI processes distributed on     1 nodes
     R & G space division:  proc/nbgrp/npool/nimage =       5
     Waiting for input...
     Reading input from standard input

     Current dimensions of program PWSCF are:
     Max number of different atomic species (ntypx) = 10
     Max number of k-points (npk) =  40000
     Max angular momentum in pseudopotentials (lmaxx) =  3
               file Ni.pbe-spn-kjpaw_psl.1.0.0.UPF: wavefunction(s)  3P 3D renormalized

     Subspace diagonalization in iterative solution of the eigenvalue problem:
     a serial algorithm will be used


     Parallelization info
     --------------------
     sticks:   dense  smooth     PW     G-vecs:    dense   smooth      PW
     Min         111     111     32                 1688     1688     290
     Max         112     112     33                 1689     1689     293
     Sum         559     559    163                 8441     8441    1459



     bravais-lattice index     =            2
     lattice parameter (alat)  =       6.6500  a.u.
     unit-cell volume          =      73.5199 (a.u.)^3
     number of atoms/cell      =            1
     number of atomic types    =            1
     number of electrons       =        18.00
     number of Kohn-Sham states=           13
     kinetic-energy cutoff     =      90.0000  Ry
     charge density cutoff     =     360.0000  Ry
     convergence threshold     =      1.0E-08
     mixing beta               =       0.7000
     number of iterations used =            8  plain     mixing
     Exchange-correlation      = SLA PW PBX PBC ( 1  4  3  4 0 0)

     celldm(1)=   6.650000  celldm(2)=   0.000000  celldm(3)=   0.000000
     celldm(4)=   0.000000  celldm(5)=   0.000000  celldm(6)=   0.000000

     crystal axes: (cart. coord. in units of alat)
               a(1) = (  -0.500000   0.000000   0.500000 )  
               a(2) = (   0.000000   0.500000   0.500000 )  
               a(3) = (  -0.500000   0.500000   0.000000 )  

     reciprocal axes: (cart. coord. in units 2 pi/alat)
               b(1) = ( -1.000000 -1.000000  1.000000 )  
               b(2) = (  1.000000  1.000000  1.000000 )  
               b(3) = ( -1.000000  1.000000 -1.000000 )  


     PseudoPot. # 1 for Ni read from file:
     /home/lorenzo/pseudos/Ni/Ni.pbe-spn-kjpaw_psl.1.0.0.UPF
     MD5 check sum: 6e86b733589c3ad8389697b807d86aa7
     Pseudo is Projector augmented-wave + core cor, Zval = 18.0
     Generated using "atomic" code by A. Dal Corso v.6.3
     Shape of augmentation charge: PSQ
     Using radial grid of 1195 points,  6 beta functions with: 
                l(1) =   0
                l(2) =   0
                l(3) =   1
                l(4) =   1
                l(5) =   2
                l(6) =   2
     Q(r) pseudized with 0 coefficients 


     atomic species   valence    mass     pseudopotential
        Ni            18.00    58.69340     Ni( 1.00)

     48 Sym. Ops., with inversion, found



   Cartesian axes

     site n.     atom                  positions (alat units)
         1           Ni  tau(   1) = (   0.0000000   0.0000000   0.0000000  )

     number of k points=    35  gaussian smearing, width (Ry)=  0.0100
                       cart. coord. in units 2pi/alat
        k(    1) = (   0.0000000   0.0000000   0.0000000), wk =   0.0027435
        k(    2) = (  -0.1111111   0.1111111  -0.1111111), wk =   0.0219479
        k(    3) = (  -0.2222222   0.2222222  -0.2222222), wk =   0.0219479
        k(    4) = (  -0.3333333   0.3333333  -0.3333333), wk =   0.0219479
        k(    5) = (  -0.4444444   0.4444444  -0.4444444), wk =   0.0219479
        k(    6) = (   0.0000000   0.2222222   0.0000000), wk =   0.0164609
        k(    7) = (  -0.1111111   0.3333333  -0.1111111), wk =   0.0658436
        k(    8) = (  -0.2222222   0.4444444  -0.2222222), wk =   0.0658436
        k(    9) = (  -0.3333333   0.5555556  -0.3333333), wk =   0.0658436
        k(   10) = (   0.5555556  -0.3333333   0.5555556), wk =   0.0658436
        k(   11) = (   0.4444444  -0.2222222   0.4444444), wk =   0.0658436
        k(   12) = (   0.3333333  -0.1111111   0.3333333), wk =   0.0658436
        k(   13) = (   0.2222222  -0.0000000   0.2222222), wk =   0.0329218
        k(   14) = (   0.0000000   0.4444444   0.0000000), wk =   0.0164609
        k(   15) = (  -0.1111111   0.5555556  -0.1111111), wk =   0.0658436
        k(   16) = (  -0.2222222   0.6666667  -0.2222222), wk =   0.0658436
        k(   17) = (   0.6666667  -0.2222222   0.6666667), wk =   0.0658436
        k(   18) = (   0.5555556  -0.1111111   0.5555556), wk =   0.0658436
        k(   19) = (   0.4444444   0.0000000   0.4444444), wk =   0.0329218
        k(   20) = (   0.0000000   0.6666667   0.0000000), wk =   0.0164609
        k(   21) = (  -0.1111111   0.7777778  -0.1111111), wk =   0.0658436
        k(   22) = (   0.7777778  -0.1111111   0.7777778), wk =   0.0658436
        k(   23) = (   0.6666667  -0.0000000   0.6666667), wk =   0.0329218
        k(   24) = (   0.0000000   0.8888889   0.0000000), wk =   0.0164609
        k(   25) = (   0.8888889   0.0000000   0.8888889), wk =   0.0329218
        k(   26) = (  -0.2222222   0.4444444   0.0000000), wk =   0.0658436
        k(   27) = (  -0.3333333   0.5555556  -0.1111111), wk =   0.1316872
        k(   28) = (   0.5555556  -0.3333333   0.7777778), wk =   0.1316872
        k(   29) = (  -0.2222222   0.6666667   0.0000000), wk =   0.0658436
        k(   30) = (   0.6666667  -0.2222222   0.8888889), wk =   0.1316872
        k(   31) = (   0.5555556  -0.1111111   0.7777778), wk =   0.1316872
        k(   32) = (   0.4444444   0.0000000   0.6666667), wk =   0.0658436
        k(   33) = (   0.7777778  -0.1111111   1.0000000), wk =   0.0658436
        k(   34) = (   0.6666667  -0.0000000   0.8888889), wk =   0.0658436
        k(   35) = (   0.5555556  -0.1111111   1.0000000), wk =   0.0658436

     Dense  grid:     8441 G-vectors     FFT dimensions: (  30,  30,  30)

     Estimated max dynamical RAM per process >       9.43 MB

     Estimated total dynamical RAM >      47.17 MB

     Check: negative/imaginary core charge=   -0.000002    0.000000

     Initial potential from superposition of free atoms

     starting charge   17.99975, renormalised to   18.00000
     Starting wfcs are   10 randomized atomic wfcs +    3 random wfcs
     Checking if some PAW data can be deallocated... 

     total cpu time spent up to now is        1.2 secs

     Self-consistent Calculation

     iteration #  1     ecut=    90.00 Ry     beta= 0.70
     Davidson diagonalization with overlap
     ethr =  1.00E-02,  avg # of iterations =  3.5

     Threshold (ethr) on eigenvalues was too large:
     Diagonalizing with lowered threshold

     Davidson diagonalization with overlap
     ethr =  1.98E-05,  avg # of iterations =  2.8

     total cpu time spent up to now is        2.4 secs

     total energy              =    -429.15817452 Ry
     Harris-Foulkes estimate   =    -429.16016439 Ry
     estimated scf accuracy    <       0.00354354 Ry

     iteration #  2     ecut=    90.00 Ry     beta= 0.70
     Davidson diagonalization with overlap
     ethr =  1.97E-05,  avg # of iterations =  2.3

     total cpu time spent up to now is        3.2 secs

     total energy              =    -429.15743396 Ry
     Harris-Foulkes estimate   =    -429.16145173 Ry
     estimated scf accuracy    <       0.01062877 Ry

     iteration #  3     ecut=    90.00 Ry     beta= 0.70
     Davidson diagonalization with overlap
     ethr =  1.97E-05,  avg # of iterations =  2.1

     total cpu time spent up to now is        3.8 secs

     total energy              =    -429.15941486 Ry
     Harris-Foulkes estimate   =    -429.15948719 Ry
     estimated scf accuracy    <       0.00024544 Ry

     iteration #  4     ecut=    90.00 Ry     beta= 0.70
     Davidson diagonalization with overlap
     ethr =  1.36E-06,  avg # of iterations =  1.5

     total cpu time spent up to now is        4.4 secs

     total energy              =    -429.15945041 Ry
     Harris-Foulkes estimate   =    -429.15945021 Ry
     estimated scf accuracy    <       0.00000036 Ry

     iteration #  5     ecut=    90.00 Ry     beta= 0.70
     Davidson diagonalization with overlap
     ethr =  2.02E-09,  avg # of iterations =  3.7

     total cpu time spent up to now is        5.3 secs

     total energy              =    -429.15945144 Ry
     Harris-Foulkes estimate   =    -429.15945148 Ry
     estimated scf accuracy    <       0.00000012 Ry

     iteration #  6     ecut=    90.00 Ry     beta= 0.70
     Davidson diagonalization with overlap
     ethr =  6.58E-10,  avg # of iterations =  1.0

     total cpu time spent up to now is        5.8 secs

     End of self-consistent calculation

          k = 0.0000 0.0000 0.0000 (  1067 PWs)   bands (ev):

   -85.3100 -45.5720 -45.5720 -45.5720   8.8217  15.8934  15.8934  15.8934
    17.0005  17.0005  41.4862  45.4342  45.4342

          k =-0.1111 0.1111-0.1111 (  1046 PWs)   bands (ev):

   -85.3061 -45.5973 -45.5754 -45.5754   9.3013  15.7675  15.9938  15.9938
    16.9630  16.9630  39.2845  42.6717  44.5025

          k =-0.2222 0.2222-0.2222 (  1059 PWs)   bands (ev):

   -85.2961 -45.6638 -45.5850 -45.5850  10.6436  15.5356  16.1079  16.1079
    17.0282  17.0282  33.7318  41.8370  43.4329

          k =-0.3333 0.3333-0.3333 (  1059 PWs)   bands (ev):

   -85.2847 -45.7384 -45.5956 -45.5956  12.3541  15.7285  15.9976  15.9976
    17.3819  17.3819  28.4851  40.8113  42.8112

          k =-0.4444 0.4444-0.4444 (  1062 PWs)   bands (ev):

   -85.2772 -45.7867 -45.6027 -45.6027  13.2186  15.8666  15.8666  17.1115
    17.6969  17.6969  24.4985  40.0908  42.5885

          k = 0.0000 0.2222 0.0000 (  1046 PWs)   bands (ev):

   -85.3048 -45.5968 -45.5813 -45.5813   9.4594  15.6597  16.0757  16.0757
    16.7905  17.0834  40.3993  42.0520  42.0521

          k =-0.1111 0.3333-0.1111 (  1048 PWs)   bands (ev):

   -85.2968 -45.6458 -45.5924 -45.5888  10.5132  15.4041  16.1876  16.2538
    16.7448  17.1919  35.9149  40.3406  40.5987

          k =-0.2222 0.4444-0.2222 (  1058 PWs)   bands (ev):

   -85.2858 -45.7148 -45.6036 -45.6011  12.1568  15.2873  15.9494  16.2351
    17.3225  17.4775  30.4425  39.4451  39.5790

          k =-0.3333 0.5556-0.3333 (  1059 PWs)   bands (ev):

   -85.2771 -45.7688 -45.6144 -45.6096  13.3569  15.6136  15.9703  16.0930
    17.7356  18.4364  25.7995  38.3337  39.4830

          k = 0.5556-0.3333 0.5556 (  1060 PWs)   bands (ev):

   -85.2746 -45.7840 -45.6222 -45.6075  13.5624  15.6220  16.0225  16.3769
    17.6806  19.3397  23.9495  37.2066  40.5929

          k = 0.4444-0.2222 0.4444 (  1060 PWs)   bands (ev):

   -85.2796 -45.7530 -45.6207 -45.5986  13.1057  15.6715  15.8027  16.0989
    17.2950  18.2743  27.2193  36.7143  41.8212

          k = 0.3333-0.1111 0.3333 (  1060 PWs)   bands (ev):

   -85.2896 -45.6918 -45.6093 -45.5867  11.5930  15.3529  16.0247  16.2646
    16.8153  17.5576  32.2196  36.9947  43.7061

          k = 0.2222-0.0000 0.2222 (  1043 PWs)   bands (ev):

   -85.3001 -45.6297 -45.5914 -45.5774  10.0719  15.5628  16.1076  16.1557
    16.7620  17.1369  37.4475  38.3895  44.7028

          k = 0.0000 0.4444 0.0000 (  1054 PWs)   bands (ev):

   -85.2914 -45.6604 -45.6058 -45.6058  11.2062  15.0902  16.3788  16.5884
    16.5884  17.2958  38.0427  38.0427  38.9558

          k =-0.1111 0.5556-0.1111 (  1055 PWs)   bands (ev):

   -85.2825 -45.7066 -45.6211 -45.6188  12.4901  14.8278  16.0595  16.7466
    17.3551  17.5255  33.0206  36.6817  36.8459

          k =-0.2222 0.6667-0.2222 (  1054 PWs)   bands (ev):

   -85.2742 -45.7482 -45.6424 -45.6250  13.6913  14.8143  15.8010  16.6391
    17.7747  18.9900  27.9948  34.4779  36.4264

          k = 0.6667-0.2222 0.6667 (  1069 PWs)   bands (ev):

   -85.2704 -45.7628 -45.6634 -45.6222  14.1613  14.9686  15.7942  16.5069
    17.7011  21.3439  24.2914  32.6761  37.3821

          k = 0.5556-0.1111 0.5556 (  1062 PWs)   bands (ev):

   -85.2729 -45.7474 -45.6692 -45.6110  14.1031  15.2300  15.4787  16.4689
    17.2919  20.0796  26.5641  31.6975  39.4557

          k = 0.4444 0.0000 0.4444 (  1061 PWs)   bands (ev):

   -85.2805 -45.7198 -45.6477 -45.5970  13.0749  15.1730  15.6842  16.5205
    16.7952  18.4944  30.9768  31.9980  42.3717

          k = 0.0000 0.6667 0.0000 (  1058 PWs)   bands (ev):

   -85.2763 -45.7303 -45.6340 -45.6340  13.0547  14.4783  16.8860  17.2893
    17.2893  17.5423  33.5285  34.8134  34.8134

          k =-0.1111 0.7778-0.1111 (  1054 PWs)   bands (ev):

   -85.2700 -45.7554 -45.6527 -45.6416  13.5769  14.3377  16.7497  17.3083
    17.7935  19.1198  30.6464  31.1827  34.1212

          k = 0.7778-0.1111 0.7778 (  1065 PWs)   bands (ev):

   -85.2667 -45.7539 -45.6854 -45.6391  14.0571  14.4513  16.2430  17.1380
    17.7645  22.1220  26.4897  29.0121  34.7786

          k = 0.6667-0.0000 0.6667 (  1063 PWs)   bands (ev):

   -85.2678 -45.7218 -45.7207 -45.6269  14.5302  14.6790  15.6480  16.8819
    17.4703  22.7598  25.4689  28.4905  36.6660

          k = 0.0000 0.8889 0.0000 (  1066 PWs)   bands (ev):

   -85.2664 -45.7754 -45.6521 -45.6521  13.4492  14.0975  17.7063  17.8437
    17.8437  19.5259  28.2907  32.9404  32.9404

          k = 0.8889 0.0000 0.8889 (  1063 PWs)   bands (ev):

   -85.2651 -45.7737 -45.6659 -45.6510  13.6164  14.1504  17.2736  17.5901
    17.8748  21.2683  27.3013  30.1591  33.1790

          k =-0.2222 0.4444 0.0000 (  1058 PWs)   bands (ev):

   -85.2883 -45.6851 -45.6177 -45.5957  11.7359  15.1387  15.9978  16.6043
    16.7434  17.5802  34.3571  35.0215  40.7728

          k =-0.3333 0.5556-0.1111 (  1058 PWs)   bands (ev):

   -85.2787 -45.7323 -45.6395 -45.6072  13.2565  15.0767  15.6475  16.5355
    17.2423  18.4824  29.3567  34.2179  38.1613

          k = 0.5556-0.3333 0.7778 (  1065 PWs)   bands (ev):

   -85.2724 -45.7646 -45.6500 -45.6170  13.9867  15.1945  15.7288  16.3872
    17.6278  20.2419  25.0330  34.5136  36.1638

          k =-0.2222 0.6667 0.0000 (  1056 PWs)   bands (ev):

   -85.2750 -45.7346 -45.6474 -45.6275  13.4729  14.6311  15.9293  17.2523
    17.2869  18.5824  31.8496  32.4530  34.2656

          k = 0.6667-0.2222 0.8889 (  1059 PWs)   bands (ev):

   -85.2692 -45.7485 -45.6735 -45.6360  14.1696  14.6779  15.6920  16.9982
    17.6868  20.8281  27.3783  31.6323  32.5964

          k = 0.5556-0.1111 0.7778 (  1070 PWs)   bands (ev):

   -85.2678 -45.7417 -45.6950 -45.6332  14.6250  14.6805  15.4860  16.8007
    17.6442  22.8891  24.7724  30.1815  33.6156

          k = 0.4444 0.0000 0.6667 (  1058 PWs)   bands (ev):

   -85.2716 -45.7361 -45.6817 -45.6202  14.3286  15.0684  15.1559  16.8108
    17.3093  20.2787  28.3462  29.9853  35.5729

          k = 0.7778-0.1111 1.0000 (  1055 PWs)   bands (ev):

   -85.2663 -45.7627 -45.6666 -45.6516  13.7823  14.3072  16.6387  17.4611
    17.8430  21.1251  28.5583  30.3303  31.2296

          k = 0.6667-0.0000 0.8889 (  1070 PWs)   bands (ev):

   -85.2654 -45.7462 -45.6947 -45.6487  14.1511  14.5456  16.0217  17.1432
    17.8397  23.6248  26.4505  27.8939  31.7998

          k = 0.5556-0.1111 1.0000 (  1056 PWs)   bands (ev):

   -85.2658 -45.7314 -45.7038 -45.6501  14.3801  14.9488  15.3488  16.9584
    17.8405  23.6215  26.7738  28.8095  29.9124

     the Fermi energy is    17.7483 ev

!    total energy              =    -429.15945144 Ry
     Harris-Foulkes estimate   =    -429.15945144 Ry
     estimated scf accuracy    <          1.0E-08 Ry

     total all-electron energy =     -3041.591559 Ry

     The total energy is the sum of the following terms:

     one-electron contribution =    -185.13092334 Ry
     hartree contribution      =     104.77330977 Ry
     xc contribution           =     -34.32578148 Ry
     ewald contribution        =    -223.38275369 Ry
     one-center paw contrib.   =     -91.09089096 Ry
     smearing contrib. (-TS)   =      -0.00241174 Ry

     convergence has been achieved in   6 iterations

     Forces acting on atoms (cartesian axes, Ry/au):

     atom    1 type  1   force =     0.00000000    0.00000000    0.00000000

     Total force =     0.000000     Total SCF correction =     0.000000


     Computing stress (Cartesian axis) and pressure

          total   stress  (Ry/bohr**3)                   (kbar)     P=  -41.37
  -0.00028122   0.00000000  -0.00000000        -41.37      0.00     -0.00
   0.00000000  -0.00028122  -0.00000000          0.00    -41.37     -0.00
   0.00000000  -0.00000000  -0.00028122          0.00     -0.00    -41.37


     Writing output data file Ni.save/

     init_run     :      0.43s CPU      0.46s WALL (       1 calls)
     electrons    :      4.40s CPU      4.64s WALL (       1 calls)
     forces       :      0.06s CPU      0.06s WALL (       1 calls)
     stress       :      0.17s CPU      0.17s WALL (       1 calls)

     Called by init_run:
     wfcinit      :      0.14s CPU      0.15s WALL (       1 calls)
     potinit      :      0.10s CPU      0.11s WALL (       1 calls)
     hinit0       :      0.17s CPU      0.17s WALL (       1 calls)

     Called by electrons:
     c_bands      :      3.08s CPU      3.20s WALL (       7 calls)
     sum_band     :      0.67s CPU      0.69s WALL (       7 calls)
     v_of_rho     :      0.04s CPU      0.04s WALL (       7 calls)
     newd         :      0.06s CPU      0.07s WALL (       7 calls)
     PAW_pot      :      0.65s CPU      0.74s WALL (       7 calls)
     mix_rho      :      0.00s CPU      0.00s WALL (       7 calls)

     Called by c_bands:
     init_us_2    :      0.08s CPU      0.08s WALL (     595 calls)
     cegterg      :      2.97s CPU      3.09s WALL (     245 calls)

     Called by sum_band:
     sum_band:bec :      0.00s CPU      0.00s WALL (     245 calls)
     addusdens    :      0.06s CPU      0.06s WALL (       7 calls)

     Called by *egterg:
     h_psi        :      2.26s CPU      2.35s WALL (     872 calls)
     s_psi        :      0.07s CPU      0.07s WALL (     872 calls)
     g_psi        :      0.01s CPU      0.01s WALL (     592 calls)
     cdiaghg      :      0.33s CPU      0.34s WALL (     802 calls)

     Called by h_psi:
     h_psi:pot    :      2.24s CPU      2.34s WALL (     872 calls)
     h_psi:calbec :      0.11s CPU      0.11s WALL (     872 calls)
     vloc_psi     :      2.06s CPU      2.14s WALL (     872 calls)
     add_vuspsi   :      0.07s CPU      0.07s WALL (     872 calls)

     General routines
     calbec       :      0.20s CPU      0.21s WALL (    1292 calls)
     fft          :      0.03s CPU      0.03s WALL (     104 calls)
     ffts         :      0.00s CPU      0.00s WALL (       7 calls)
     fftw         :      2.36s CPU      2.46s WALL (   19885 calls)

     Parallel routines
     fft_scatt_xy :      0.19s CPU      0.20s WALL (   19996 calls)
     fft_scatt_yz :      0.68s CPU      0.70s WALL (   19996 calls)

     PWSCF        :     5.80s CPU         6.12s WALL


   This run was terminated on:  23: 3:33  26Mar2024            

=------------------------------------------------------------------------------=
   JOB DONE.
=------------------------------------------------------------------------------=
