
     Program PWSCF v.6.3MaX starts on 26Mar2024 at 23: 2:19 

     This program is part of the open-source Quantum ESPRESSO suite
     for quantum simulation of materials; please cite
         "P. Giannozzi et al., J. Phys.:Condens. Matter 21 395502 (2009);
         "P. Giannozzi et al., J. Phys.:Condens. Matter 29 465901 (2017);
          URL http://www.quantum-espresso.org", 
     in publications or presentations arising from this work. More details at
     http://www.quantum-espresso.org/quote

     Parallel version (MPI), running on     5 processors

     MPI processes distributed on     1 nodes
     R & G space division:  proc/nbgrp/npool/nimage =       5
     Waiting for input...
     Reading input from standard input

     Current dimensions of program PWSCF are:
     Max number of different atomic species (ntypx) = 10
     Max number of k-points (npk) =  40000
     Max angular momentum in pseudopotentials (lmaxx) =  3
               file Ni.pbesol-spn-kjpaw_psl.1.0.0.UPF: wavefunction(s)  3P 3D renormalized

     Subspace diagonalization in iterative solution of the eigenvalue problem:
     a serial algorithm will be used


     Parallelization info
     --------------------
     sticks:   dense  smooth     PW     G-vecs:    dense   smooth      PW
     Min         111     111     32                 1688     1688     290
     Max         112     112     33                 1689     1689     293
     Sum         559     559    163                 8441     8441    1459



     bravais-lattice index     =            2
     lattice parameter (alat)  =       6.6500  a.u.
     unit-cell volume          =      73.5199 (a.u.)^3
     number of atoms/cell      =            1
     number of atomic types    =            1
     number of electrons       =        18.00
     number of Kohn-Sham states=           13
     kinetic-energy cutoff     =      90.0000  Ry
     charge density cutoff     =     360.0000  Ry
     convergence threshold     =      1.0E-08
     mixing beta               =       0.7000
     number of iterations used =            8  plain     mixing
     Exchange-correlation      = SLA PW PSX PSC ( 1  4 10  8 0 0)

     celldm(1)=   6.650000  celldm(2)=   0.000000  celldm(3)=   0.000000
     celldm(4)=   0.000000  celldm(5)=   0.000000  celldm(6)=   0.000000

     crystal axes: (cart. coord. in units of alat)
               a(1) = (  -0.500000   0.000000   0.500000 )  
               a(2) = (   0.000000   0.500000   0.500000 )  
               a(3) = (  -0.500000   0.500000   0.000000 )  

     reciprocal axes: (cart. coord. in units 2 pi/alat)
               b(1) = ( -1.000000 -1.000000  1.000000 )  
               b(2) = (  1.000000  1.000000  1.000000 )  
               b(3) = ( -1.000000  1.000000 -1.000000 )  


     PseudoPot. # 1 for Ni read from file:
     /home/lorenzo/pseudos/Ni/Ni.pbesol-spn-kjpaw_psl.1.0.0.UPF
     MD5 check sum: ef06ee83099c2673f0516457bd731f51
     Pseudo is Projector augmented-wave + core cor, Zval = 18.0
     Generated using "atomic" code by A. Dal Corso v.6.3
     Shape of augmentation charge: PSQ
     Using radial grid of 1195 points,  6 beta functions with: 
                l(1) =   0
                l(2) =   0
                l(3) =   1
                l(4) =   1
                l(5) =   2
                l(6) =   2
     Q(r) pseudized with 0 coefficients 


     atomic species   valence    mass     pseudopotential
        Ni            18.00    58.69340     Ni( 1.00)

     48 Sym. Ops., with inversion, found



   Cartesian axes

     site n.     atom                  positions (alat units)
         1           Ni  tau(   1) = (   0.0000000   0.0000000   0.0000000  )

     number of k points=    16  gaussian smearing, width (Ry)=  0.0100
                       cart. coord. in units 2pi/alat
        k(    1) = (   0.0000000   0.0000000   0.0000000), wk =   0.0092593
        k(    2) = (  -0.1666667   0.1666667  -0.1666667), wk =   0.0740741
        k(    3) = (  -0.3333333   0.3333333  -0.3333333), wk =   0.0740741
        k(    4) = (   0.5000000  -0.5000000   0.5000000), wk =   0.0370370
        k(    5) = (   0.0000000   0.3333333   0.0000000), wk =   0.0555556
        k(    6) = (  -0.1666667   0.5000000  -0.1666667), wk =   0.2222222
        k(    7) = (   0.6666667  -0.3333333   0.6666667), wk =   0.2222222
        k(    8) = (   0.5000000  -0.1666667   0.5000000), wk =   0.2222222
        k(    9) = (   0.3333333   0.0000000   0.3333333), wk =   0.1111111
        k(   10) = (   0.0000000   0.6666667   0.0000000), wk =   0.0555556
        k(   11) = (   0.8333333  -0.1666667   0.8333333), wk =   0.2222222
        k(   12) = (   0.6666667  -0.0000000   0.6666667), wk =   0.1111111
        k(   13) = (   0.0000000  -1.0000000   0.0000000), wk =   0.0277778
        k(   14) = (   0.6666667  -0.3333333   1.0000000), wk =   0.2222222
        k(   15) = (   0.5000000  -0.1666667   0.8333333), wk =   0.2222222
        k(   16) = (  -0.3333333  -1.0000000   0.0000000), wk =   0.1111111

     Dense  grid:     8441 G-vectors     FFT dimensions: (  30,  30,  30)

     Estimated max dynamical RAM per process >       8.63 MB

     Estimated total dynamical RAM >      43.17 MB

     Check: negative/imaginary core charge=   -0.000002    0.000000

     Initial potential from superposition of free atoms

     starting charge   17.99977, renormalised to   18.00000
     Starting wfcs are   10 randomized atomic wfcs +    3 random wfcs
     Checking if some PAW data can be deallocated... 

     total cpu time spent up to now is        1.1 secs

     Self-consistent Calculation

     iteration #  1     ecut=    90.00 Ry     beta= 0.70
     Davidson diagonalization with overlap
     ethr =  1.00E-02,  avg # of iterations =  3.6

     Threshold (ethr) on eigenvalues was too large:
     Diagonalizing with lowered threshold

     Davidson diagonalization with overlap
     ethr =  8.64E-06,  avg # of iterations =  3.3

     total cpu time spent up to now is        1.9 secs

     total energy              =    -426.57881227 Ry
     Harris-Foulkes estimate   =    -426.57929899 Ry
     estimated scf accuracy    <       0.00145995 Ry

     iteration #  2     ecut=    90.00 Ry     beta= 0.70
     Davidson diagonalization with overlap
     ethr =  8.11E-06,  avg # of iterations =  1.0

     total cpu time spent up to now is        2.2 secs

     total energy              =    -426.57870738 Ry
     Harris-Foulkes estimate   =    -426.57896290 Ry
     estimated scf accuracy    <       0.00039206 Ry

     iteration #  3     ecut=    90.00 Ry     beta= 0.70
     Davidson diagonalization with overlap
     ethr =  2.18E-06,  avg # of iterations =  2.9

     total cpu time spent up to now is        2.6 secs

     total energy              =    -426.57866801 Ry
     Harris-Foulkes estimate   =    -426.57912861 Ry
     estimated scf accuracy    <       0.00145272 Ry

     iteration #  4     ecut=    90.00 Ry     beta= 0.70
     Davidson diagonalization with overlap
     ethr =  2.18E-06,  avg # of iterations =  2.1

     total cpu time spent up to now is        3.0 secs

     total energy              =    -426.57889374 Ry
     Harris-Foulkes estimate   =    -426.57889529 Ry
     estimated scf accuracy    <       0.00000438 Ry

     iteration #  5     ecut=    90.00 Ry     beta= 0.70
     Davidson diagonalization with overlap
     ethr =  2.43E-08,  avg # of iterations =  2.8

     total cpu time spent up to now is        3.4 secs

     total energy              =    -426.57889521 Ry
     Harris-Foulkes estimate   =    -426.57889529 Ry
     estimated scf accuracy    <       0.00000026 Ry

     iteration #  6     ecut=    90.00 Ry     beta= 0.70
     Davidson diagonalization with overlap
     ethr =  1.44E-09,  avg # of iterations =  1.9

     total cpu time spent up to now is        3.7 secs

     total energy              =    -426.57889522 Ry
     Harris-Foulkes estimate   =    -426.57889524 Ry
     estimated scf accuracy    <       0.00000002 Ry

     iteration #  7     ecut=    90.00 Ry     beta= 0.70
     Davidson diagonalization with overlap
     ethr =  1.12E-10,  avg # of iterations =  2.1

     total cpu time spent up to now is        4.1 secs

     total energy              =    -426.57889523 Ry
     Harris-Foulkes estimate   =    -426.57889523 Ry
     estimated scf accuracy    <       0.00000001 Ry

     iteration #  8     ecut=    90.00 Ry     beta= 0.70
     Davidson diagonalization with overlap
     ethr =  7.64E-11,  avg # of iterations =  1.0

     total cpu time spent up to now is        4.4 secs

     End of self-consistent calculation

          k = 0.0000 0.0000 0.0000 (  1067 PWs)   bands (ev):

   -85.2565 -45.6603 -45.6603 -45.6603   8.5991  15.6453  15.6453  15.6453
    16.7693  16.7693  41.2817  45.1952  45.1952

          k =-0.1667 0.1667-0.1667 (  1049 PWs)   bands (ev):

   -85.2480 -45.7159 -45.6681 -45.6681   9.6573  15.3971  15.8273  15.8273
    16.7271  16.7271  36.3190  42.0462  43.6695

          k =-0.3333 0.3333-0.3333 (  1059 PWs)   bands (ev):

   -85.2308 -45.8282 -45.6841 -45.6841  12.1252  15.4909  15.7575  15.7575
    17.1432  17.1432  28.2513  40.6090  42.5570

          k = 0.5000-0.5000 0.5000 (  1068 PWs)   bands (ev):

   -85.2222 -45.8836 -45.6924 -45.6924  13.0499  15.6086  15.6086  17.3249
    17.5031  17.5031  23.5342  39.7905  42.3094

          k = 0.0000 0.3333 0.0000 (  1042 PWs)   bands (ev):

   -85.2451 -45.7140 -45.6807 -45.6807   9.9996  15.1529  16.0483  16.0483
    16.3432  16.9474  39.4047  39.7385  39.7385

          k =-0.1667 0.5000-0.1667 (  1058 PWs)   bands (ev):

   -85.2309 -45.7963 -45.7000 -45.6994  12.0461  14.8007  15.7067  16.2237
    17.1167  17.2738  31.4387  37.7207  38.1801

          k = 0.6667-0.3333 0.6667 (  1065 PWs)   bands (ev):

   -85.2194 -45.8609 -45.7250 -45.7053  13.5546  15.0504  15.6568  16.0329
    17.5287  19.5287  24.6265  35.3710  38.0177

          k = 0.5000-0.1667 0.5000 (  1063 PWs)   bands (ev):

   -85.2223 -45.8431 -45.7321 -45.6925  13.3739  15.2536  15.3809  16.0240
    17.0352  18.8372  26.5949  33.8911  40.8295

          k = 0.3333 0.0000 0.3333 (  1065 PWs)   bands (ev):

   -85.2366 -45.7702 -45.7047 -45.6740  11.2600  15.0628  15.7794  16.1996
    16.3598  17.3618  33.8932  34.6511  44.2490

          k = 0.0000 0.6667 0.0000 (  1058 PWs)   bands (ev):

   -85.2223 -45.8200 -45.7228 -45.7228  12.8293  14.2328  16.6568  17.0420
    17.0420  17.3121  33.3049  34.5676  34.5676

          k = 0.8333-0.1667 0.8333 (  1062 PWs)   bands (ev):

   -85.2138 -45.8488 -45.7569 -45.7308  13.5870  14.1252  16.2711  16.9957
    17.5878  20.2931  28.3683  29.6480  34.0355

          k = 0.6667-0.0000 0.6667 (  1063 PWs)   bands (ev):

   -85.2137 -45.8114 -45.8104 -45.7157  14.2883  14.4508  15.4052  16.6512
    17.2229  22.5285  25.2349  28.2598  36.4192

          k = 0.0000-1.0000 0.0000 (  1034 PWs)   bands (ev):

   -85.2110 -45.8707 -45.7431 -45.7431  13.2203  13.8018  17.4992  17.6809
    17.6809  20.0639  27.0079  32.4442  32.4442

          k = 0.6667-0.3333 1.0000 (  1058 PWs)   bands (ev):

   -85.2194 -45.8267 -45.7520 -45.7115  13.6813  14.5737  15.2538  16.7922
    17.0430  19.1401  29.8010  30.8948  34.5447

          k = 0.5000-0.1667 0.8333 (  1066 PWs)   bands (ev):

   -85.2137 -45.8344 -45.7789 -45.7245  14.4335  14.4417  15.1821  16.5494
    17.4477  22.7176  24.3377  31.2095  31.8910

          k =-0.3333-1.0000 0.0000 (  1064 PWs)   bands (ev):

   -85.2109 -45.8395 -45.7756 -45.7451  13.8525  14.2947  15.8240  16.9451
    17.6816  23.1185  27.3826  28.0785  29.6768

     the Fermi energy is    17.4911 ev

!    total energy              =    -426.57889523 Ry
     Harris-Foulkes estimate   =    -426.57889523 Ry
     estimated scf accuracy    <          2.7E-10 Ry

     total all-electron energy =     -3039.037240 Ry

     The total energy is the sum of the following terms:

     one-electron contribution =    -184.89004899 Ry
     hartree contribution      =     104.45969234 Ry
     xc contribution           =     -33.91491414 Ry
     ewald contribution        =    -223.38275369 Ry
     one-center paw contrib.   =     -88.84875891 Ry
     smearing contrib. (-TS)   =      -0.00211185 Ry

     convergence has been achieved in   8 iterations

     Forces acting on atoms (cartesian axes, Ry/au):

     atom    1 type  1   force =     0.00000000    0.00000000    0.00000000

     Total force =     0.000000     Total SCF correction =     0.000000


     Computing stress (Cartesian axis) and pressure

          total   stress  (Ry/bohr**3)                   (kbar)     P= -142.66
  -0.00096979  -0.00000000  -0.00000000       -142.66     -0.00     -0.00
  -0.00000000  -0.00096979   0.00000000         -0.00   -142.66      0.00
  -0.00000000   0.00000000  -0.00096979         -0.00      0.00   -142.66


     Writing output data file Ni.save/

     init_run     :      0.36s CPU      0.39s WALL (       1 calls)
     electrons    :      3.07s CPU      3.27s WALL (       1 calls)
     forces       :      0.04s CPU      0.04s WALL (       1 calls)
     stress       :      0.12s CPU      0.12s WALL (       1 calls)

     Called by init_run:
     wfcinit      :      0.07s CPU      0.08s WALL (       1 calls)
     potinit      :      0.09s CPU      0.11s WALL (       1 calls)
     hinit0       :      0.17s CPU      0.17s WALL (       1 calls)

     Called by electrons:
     c_bands      :      1.75s CPU      1.84s WALL (       9 calls)
     sum_band     :      0.43s CPU      0.44s WALL (       9 calls)
     v_of_rho     :      0.05s CPU      0.05s WALL (       9 calls)
     newd         :      0.08s CPU      0.10s WALL (       9 calls)
     PAW_pot      :      0.84s CPU      0.94s WALL (       9 calls)
     mix_rho      :      0.00s CPU      0.01s WALL (       9 calls)

     Called by c_bands:
     init_us_2    :      0.05s CPU      0.05s WALL (     336 calls)
     cegterg      :      1.68s CPU      1.77s WALL (     144 calls)

     Called by sum_band:
     sum_band:bec :      0.00s CPU      0.00s WALL (     144 calls)
     addusdens    :      0.07s CPU      0.08s WALL (       9 calls)

     Called by *egterg:
     h_psi        :      1.27s CPU      1.35s WALL (     491 calls)
     s_psi        :      0.04s CPU      0.04s WALL (     491 calls)
     g_psi        :      0.00s CPU      0.00s WALL (     331 calls)
     cdiaghg      :      0.17s CPU      0.18s WALL (     459 calls)

     Called by h_psi:
     h_psi:pot    :      1.27s CPU      1.34s WALL (     491 calls)
     h_psi:calbec :      0.06s CPU      0.06s WALL (     491 calls)
     vloc_psi     :      1.16s CPU      1.23s WALL (     491 calls)
     add_vuspsi   :      0.04s CPU      0.05s WALL (     491 calls)

     General routines
     calbec       :      0.10s CPU      0.10s WALL (     715 calls)
     fft          :      0.04s CPU      0.04s WALL (     126 calls)
     ffts         :      0.00s CPU      0.00s WALL (       9 calls)
     fftw         :      1.34s CPU      1.41s WALL (   11296 calls)

     Parallel routines
     fft_scatt_xy :      0.12s CPU      0.12s WALL (   11431 calls)
     fft_scatt_yz :      0.34s CPU      0.36s WALL (   11431 calls)

     PWSCF        :     4.34s CPU         4.62s WALL


   This run was terminated on:  23: 2:23  26Mar2024            

=------------------------------------------------------------------------------=
   JOB DONE.
=------------------------------------------------------------------------------=
