
     Program PWSCF v.6.3MaX starts on 26Mar2024 at 22:50:21 

     This program is part of the open-source Quantum ESPRESSO suite
     for quantum simulation of materials; please cite
         "P. Giannozzi et al., J. Phys.:Condens. Matter 21 395502 (2009);
         "P. Giannozzi et al., J. Phys.:Condens. Matter 29 465901 (2017);
          URL http://www.quantum-espresso.org", 
     in publications or presentations arising from this work. More details at
     http://www.quantum-espresso.org/quote

     Parallel version (MPI), running on     5 processors

     MPI processes distributed on     1 nodes
     R & G space division:  proc/nbgrp/npool/nimage =       5
     Waiting for input...
     Reading input from standard input

     Current dimensions of program PWSCF are:
     Max number of different atomic species (ntypx) = 10
     Max number of k-points (npk) =  40000
     Max angular momentum in pseudopotentials (lmaxx) =  3
               file Ni.pbesol-spn-kjpaw_psl.1.0.0.UPF: wavefunction(s)  3P 3D renormalized

     Subspace diagonalization in iterative solution of the eigenvalue problem:
     a serial algorithm will be used


     Parallelization info
     --------------------
     sticks:   dense  smooth     PW     G-vecs:    dense   smooth      PW
     Min          85      85     27                 1163     1163     213
     Max          87      87     28                 1164     1164     214
     Sum         433     433    139                 5817     5817    1067



     bravais-lattice index     =            2
     lattice parameter (alat)  =       6.6500  a.u.
     unit-cell volume          =      73.5199 (a.u.)^3
     number of atoms/cell      =            1
     number of atomic types    =            1
     number of electrons       =        18.00
     number of Kohn-Sham states=           13
     kinetic-energy cutoff     =      70.0000  Ry
     charge density cutoff     =     280.0000  Ry
     convergence threshold     =      1.0E-08
     mixing beta               =       0.7000
     number of iterations used =            8  plain     mixing
     Exchange-correlation      = SLA PW PSX PSC ( 1  4 10  8 0 0)

     celldm(1)=   6.650000  celldm(2)=   0.000000  celldm(3)=   0.000000
     celldm(4)=   0.000000  celldm(5)=   0.000000  celldm(6)=   0.000000

     crystal axes: (cart. coord. in units of alat)
               a(1) = (  -0.500000   0.000000   0.500000 )  
               a(2) = (   0.000000   0.500000   0.500000 )  
               a(3) = (  -0.500000   0.500000   0.000000 )  

     reciprocal axes: (cart. coord. in units 2 pi/alat)
               b(1) = ( -1.000000 -1.000000  1.000000 )  
               b(2) = (  1.000000  1.000000  1.000000 )  
               b(3) = ( -1.000000  1.000000 -1.000000 )  


     PseudoPot. # 1 for Ni read from file:
     /home/lorenzo/pseudos/Ni/Ni.pbesol-spn-kjpaw_psl.1.0.0.UPF
     MD5 check sum: ef06ee83099c2673f0516457bd731f51
     Pseudo is Projector augmented-wave + core cor, Zval = 18.0
     Generated using "atomic" code by A. Dal Corso v.6.3
     Shape of augmentation charge: PSQ
     Using radial grid of 1195 points,  6 beta functions with: 
                l(1) =   0
                l(2) =   0
                l(3) =   1
                l(4) =   1
                l(5) =   2
                l(6) =   2
     Q(r) pseudized with 0 coefficients 


     atomic species   valence    mass     pseudopotential
        Ni            18.00    58.69340     Ni( 1.00)

     48 Sym. Ops., with inversion, found



   Cartesian axes

     site n.     atom                  positions (alat units)
         1           Ni  tau(   1) = (   0.0000000   0.0000000   0.0000000  )

     number of k points=    29  gaussian smearing, width (Ry)=  0.0100
                       cart. coord. in units 2pi/alat
        k(    1) = (   0.0000000   0.0000000   0.0000000), wk =   0.0039062
        k(    2) = (  -0.1250000   0.1250000  -0.1250000), wk =   0.0312500
        k(    3) = (  -0.2500000   0.2500000  -0.2500000), wk =   0.0312500
        k(    4) = (  -0.3750000   0.3750000  -0.3750000), wk =   0.0312500
        k(    5) = (   0.5000000  -0.5000000   0.5000000), wk =   0.0156250
        k(    6) = (   0.0000000   0.2500000   0.0000000), wk =   0.0234375
        k(    7) = (  -0.1250000   0.3750000  -0.1250000), wk =   0.0937500
        k(    8) = (  -0.2500000   0.5000000  -0.2500000), wk =   0.0937500
        k(    9) = (   0.6250000  -0.3750000   0.6250000), wk =   0.0937500
        k(   10) = (   0.5000000  -0.2500000   0.5000000), wk =   0.0937500
        k(   11) = (   0.3750000  -0.1250000   0.3750000), wk =   0.0937500
        k(   12) = (   0.2500000   0.0000000   0.2500000), wk =   0.0468750
        k(   13) = (   0.0000000   0.5000000   0.0000000), wk =   0.0234375
        k(   14) = (  -0.1250000   0.6250000  -0.1250000), wk =   0.0937500
        k(   15) = (   0.7500000  -0.2500000   0.7500000), wk =   0.0937500
        k(   16) = (   0.6250000  -0.1250000   0.6250000), wk =   0.0937500
        k(   17) = (   0.5000000   0.0000000   0.5000000), wk =   0.0468750
        k(   18) = (   0.0000000   0.7500000   0.0000000), wk =   0.0234375
        k(   19) = (   0.8750000  -0.1250000   0.8750000), wk =   0.0937500
        k(   20) = (   0.7500000   0.0000000   0.7500000), wk =   0.0468750
        k(   21) = (   0.0000000  -1.0000000   0.0000000), wk =   0.0117188
        k(   22) = (  -0.2500000   0.5000000   0.0000000), wk =   0.0937500
        k(   23) = (   0.6250000  -0.3750000   0.8750000), wk =   0.1875000
        k(   24) = (   0.5000000  -0.2500000   0.7500000), wk =   0.0937500
        k(   25) = (   0.7500000  -0.2500000   1.0000000), wk =   0.0937500
        k(   26) = (   0.6250000  -0.1250000   0.8750000), wk =   0.1875000
        k(   27) = (   0.5000000   0.0000000   0.7500000), wk =   0.0937500
        k(   28) = (  -0.2500000  -1.0000000   0.0000000), wk =   0.0468750
        k(   29) = (  -0.5000000  -1.0000000   0.0000000), wk =   0.0234375

     Dense  grid:     5817 G-vectors     FFT dimensions: (  25,  25,  25)

     Estimated max dynamical RAM per process >       6.59 MB

     Estimated total dynamical RAM >      32.97 MB

     Check: negative/imaginary core charge=   -0.000011    0.000000

     Initial potential from superposition of free atoms

     starting charge   17.99977, renormalised to   18.00000
     Starting wfcs are   10 randomized atomic wfcs +    3 random wfcs
     Checking if some PAW data can be deallocated... 

     total cpu time spent up to now is        1.1 secs

     Self-consistent Calculation

     iteration #  1     ecut=    70.00 Ry     beta= 0.70
     Davidson diagonalization with overlap
     ethr =  1.00E-02,  avg # of iterations =  3.7

     Threshold (ethr) on eigenvalues was too large:
     Diagonalizing with lowered threshold

     Davidson diagonalization with overlap
     ethr =  9.53E-06,  avg # of iterations =  3.2

     total cpu time spent up to now is        2.0 secs

     total energy              =    -426.56488499 Ry
     Harris-Foulkes estimate   =    -426.56556126 Ry
     estimated scf accuracy    <       0.00167573 Ry

     iteration #  2     ecut=    70.00 Ry     beta= 0.70
     Davidson diagonalization with overlap
     ethr =  9.31E-06,  avg # of iterations =  2.1

     total cpu time spent up to now is        2.5 secs

     total energy              =    -426.56444903 Ry
     Harris-Foulkes estimate   =    -426.56586188 Ry
     estimated scf accuracy    <       0.00348251 Ry

     iteration #  3     ecut=    70.00 Ry     beta= 0.70
     Davidson diagonalization with overlap
     ethr =  9.31E-06,  avg # of iterations =  2.1

     total cpu time spent up to now is        2.9 secs

     total energy              =    -426.56518674 Ry
     Harris-Foulkes estimate   =    -426.56532410 Ry
     estimated scf accuracy    <       0.00045551 Ry

     iteration #  4     ecut=    70.00 Ry     beta= 0.70
     Davidson diagonalization with overlap
     ethr =  2.53E-06,  avg # of iterations =  1.2

     total cpu time spent up to now is        3.3 secs

     total energy              =    -426.56525282 Ry
     Harris-Foulkes estimate   =    -426.56525261 Ry
     estimated scf accuracy    <       0.00000051 Ry

     iteration #  5     ecut=    70.00 Ry     beta= 0.70
     Davidson diagonalization with overlap
     ethr =  2.83E-09,  avg # of iterations =  3.1

     total cpu time spent up to now is        3.9 secs

     total energy              =    -426.56525416 Ry
     Harris-Foulkes estimate   =    -426.56525421 Ry
     estimated scf accuracy    <       0.00000014 Ry

     iteration #  6     ecut=    70.00 Ry     beta= 0.70
     Davidson diagonalization with overlap
     ethr =  7.75E-10,  avg # of iterations =  1.0

     total cpu time spent up to now is        4.3 secs

     total energy              =    -426.56525416 Ry
     Harris-Foulkes estimate   =    -426.56525416 Ry
     estimated scf accuracy    <       0.00000002 Ry

     iteration #  7     ecut=    70.00 Ry     beta= 0.70
     Davidson diagonalization with overlap
     ethr =  9.56E-11,  avg # of iterations =  1.1

     total cpu time spent up to now is        4.6 secs

     End of self-consistent calculation

          k = 0.0000 0.0000 0.0000 (   725 PWs)   bands (ev):

   -85.2105 -45.6044 -45.6044 -45.6044   8.6034  15.6937  15.6937  15.6937
    16.8180  16.8180  41.2817  45.2002  45.2002

          k =-0.1250 0.1250-0.1250 (   724 PWs)   bands (ev):

   -85.2055 -45.6374 -45.6092 -45.6092   9.2083  15.5380  15.8161  15.8161
    16.7747  16.7747  38.4182  42.3332  44.1159

          k =-0.2500 0.2500-0.2500 (   733 PWs)   bands (ev):

   -85.1935 -45.7168 -45.6209 -45.6209  10.8562  15.3073  15.9019  15.9019
    16.9108  16.9108  32.1406  41.3868  43.0002

          k =-0.3750 0.3750-0.3750 (   739 PWs)   bands (ev):

   -85.1815 -45.7952 -45.6325 -45.6325  12.6122  15.7447  15.7447  15.9173
    17.3375  17.3375  26.5544  40.2691  42.4469

          k = 0.5000-0.5000 0.5000 (   718 PWs)   bands (ev):

   -85.1761 -45.8271 -45.6368 -45.6368  13.0803  15.6539  15.6539  17.3293
    17.5570  17.5570  23.5682  39.7877  42.3222

          k = 0.0000 0.2500 0.0000 (   717 PWs)   bands (ev):

   -85.2036 -45.6362 -45.6167 -45.6167   9.4071  15.4010  15.9246  15.9246
    16.5559  16.9221  39.9946  41.2963  41.2963

          k =-0.1250 0.3750-0.1250 (   722 PWs)   bands (ev):

   -85.1940 -45.6952 -45.6300 -45.6266  10.7085  15.1058  15.9690  16.1179
    16.6225  17.0765  34.5996  39.4554  39.9716

          k =-0.2500 0.5000-0.2500 (   736 PWs)   bands (ev):

   -85.1822 -45.7698 -45.6421 -45.6419  12.5440  15.0939  15.6524  16.0440
    17.4193  17.5092  28.6256  38.6092  38.7092

          k = 0.6250-0.3750 0.6250 (   726 PWs)   bands (ev):

   -85.1746 -45.8137 -45.6565 -45.6444  13.3884  15.3460  15.8990  15.9672
    17.5715  19.1167  24.1459  36.9880  39.2469

          k = 0.5000-0.2500 0.5000 (   730 PWs)   bands (ev):

   -85.1763 -45.8030 -45.6607 -45.6372  13.2772  15.4481  15.7673  15.8991
    17.2756  18.7070  25.3485  35.9617  41.1840

          k = 0.3750-0.1250 0.3750 (   733 PWs)   bands (ev):

   -85.1861 -45.7452 -45.6511 -45.6238  11.9717  15.1231  15.7399  16.0692
    16.7139  17.6293  30.5425  35.9390  42.8902

          k = 0.2500 0.0000 0.2500 (   737 PWs)   bands (ev):

   -85.1983 -45.6766 -45.6301 -45.6124  10.1692  15.2943  15.9161  16.0222
    16.5300  17.0297  36.3983  37.2413  44.8178

          k = 0.0000 0.5000 0.0000 (   729 PWs)   bands (ev):

   -85.1878 -45.7123 -45.6463 -45.6463  11.5218  14.7263  16.1472  16.5588
    16.5588  17.1780  36.9074  36.9074  37.7031

          k =-0.1250 0.6250-0.1250 (   724 PWs)   bands (ev):

   -85.1779 -45.7598 -45.6659 -45.6596  12.8669  14.4691  15.8853  16.6917
    17.4587  17.6533  31.5414  34.8220  35.6105

          k = 0.7500-0.2500 0.7500 (   724 PWs)   bands (ev):

   -85.1706 -45.7898 -45.6942 -45.6626  13.8317  14.5257  15.6509  16.5415
    17.6096  20.1336  26.2270  32.2724  35.8228

          k = 0.6250-0.1250 0.6250 (   722 PWs)   bands (ev):

   -85.1698 -45.7835 -45.7160 -45.6531  14.1489  14.7503  15.4181  16.4138
    17.2991  21.3564  24.7999  30.6596  37.5787

          k = 0.5000 0.0000 0.5000 (   716 PWs)   bands (ev):

   -85.1761 -45.7641 -45.6988 -45.6368  13.5429  14.9834  15.2598  16.3602
    16.7807  18.9929  29.2822  30.6134  40.5651

          k = 0.0000 0.7500 0.0000 (   725 PWs)   bands (ev):

   -85.1716 -45.7859 -45.6757 -45.6757  13.1376  14.0933  17.3458  17.3458
    17.4398  17.5194  31.1428  33.6845  33.6845

          k = 0.8750-0.1250 0.8750 (   730 PWs)   bands (ev):

   -85.1667 -45.8004 -45.6977 -45.6807  13.4668  14.0316  16.7818  17.2660
    17.6611  20.2985  28.4851  29.7569  33.3715

          k = 0.7500 0.0000 0.7500 (   724 PWs)   bands (ev):

   -85.1659 -45.7790 -45.7346 -45.6712  13.9831  14.2794  15.9397  16.9742
    17.4726  23.4998  25.0534  27.7082  34.7959

          k = 0.0000-1.0000 0.0000 (   740 PWs)   bands (ev):

   -85.1653 -45.8154 -45.6885 -45.6885  13.2495  13.8410  17.5493  17.7365
    17.7365  20.0707  27.0335  32.4520  32.4520

          k =-0.2500 0.5000 0.0000 (   733 PWs)   bands (ev):

   -85.1845 -45.7366 -45.6619 -45.6352  12.1476  14.8230  15.6703  16.5731
    16.6283  17.6634  32.9861  33.6780  39.0407

          k = 0.6250-0.3750 0.8750 (   729 PWs)   bands (ev):

   -85.1747 -45.7790 -45.6866 -45.6485  13.6203  14.8511  15.3077  16.4131
    17.2317  19.0979  27.5832  33.1102  36.2005

          k = 0.5000-0.2500 0.7500 (   722 PWs)   bands (ev):

   -85.1705 -45.7971 -45.6942 -45.6556  13.9979  14.8385  15.5130  16.2837
    17.4759  21.1858  23.9305  33.6677  34.5472

          k = 0.7500-0.2500 1.0000 (   728 PWs)   bands (ev):

   -85.1707 -45.7815 -45.6937 -45.6710  13.6136  14.3217  15.8236  17.1474
    17.3420  19.4036  30.4550  31.0799  32.0161

          k = 0.6250-0.1250 0.8750 (   721 PWs)   bands (ev):

   -85.1665 -45.7771 -45.7259 -45.6762  14.1218  14.4733  15.4866  16.8222
    17.5767  22.5830  25.8142  29.4678  31.6902

          k = 0.5000 0.0000 0.7500 (   726 PWs)   bands (ev):

   -85.1683 -45.7650 -45.7364 -45.6649  14.4069  14.7104  14.9990  16.6715
    17.3498  21.7497  26.5827  28.8493  33.4825

          k =-0.2500-1.0000 0.0000 (   730 PWs)   bands (ev):

   -85.1651 -45.7966 -45.7069 -45.6890  13.6464  14.1171  16.4026  17.2059
    17.7375  22.0818  27.2335  29.4488  30.5011

          k =-0.5000-1.0000 0.0000 (   724 PWs)   bands (ev):

   -85.1650 -45.7517 -45.7517 -45.6895  14.1667  14.9687  14.9687  16.7329
    17.7381  25.4959  25.4959  27.7520  28.7878

     the Fermi energy is    17.5687 ev

!    total energy              =    -426.56525416 Ry
     Harris-Foulkes estimate   =    -426.56525416 Ry
     estimated scf accuracy    <          1.1E-10 Ry

     total all-electron energy =     -3039.023599 Ry

     The total energy is the sum of the following terms:

     one-electron contribution =    -184.92854881 Ry
     hartree contribution      =     104.51300775 Ry
     xc contribution           =     -33.91751737 Ry
     ewald contribution        =    -223.38275369 Ry
     one-center paw contrib.   =     -88.84667135 Ry
     smearing contrib. (-TS)   =      -0.00277071 Ry

     convergence has been achieved in   7 iterations

     Forces acting on atoms (cartesian axes, Ry/au):

     atom    1 type  1   force =     0.00000000    0.00000000    0.00000000

     Total force =     0.000000     Total SCF correction =     0.000000


     Computing stress (Cartesian axis) and pressure

          total   stress  (Ry/bohr**3)                   (kbar)     P= -145.84
  -0.00099140  -0.00000000  -0.00000000       -145.84     -0.00     -0.00
  -0.00000000  -0.00099140   0.00000000         -0.00   -145.84      0.00
  -0.00000000   0.00000000  -0.00099140         -0.00      0.00   -145.84


     Writing output data file Ni.save/

     init_run     :      0.36s CPU      0.38s WALL (       1 calls)
     electrons    :      3.26s CPU      3.49s WALL (       1 calls)
     forces       :      0.03s CPU      0.03s WALL (       1 calls)
     stress       :      0.11s CPU      0.11s WALL (       1 calls)

     Called by init_run:
     wfcinit      :      0.08s CPU      0.09s WALL (       1 calls)
     potinit      :      0.10s CPU      0.11s WALL (       1 calls)
     hinit0       :      0.15s CPU      0.15s WALL (       1 calls)

     Called by electrons:
     c_bands      :      2.11s CPU      2.22s WALL (       8 calls)
     sum_band     :      0.43s CPU      0.46s WALL (       8 calls)
     v_of_rho     :      0.02s CPU      0.02s WALL (       8 calls)
     newd         :      0.05s CPU      0.05s WALL (       8 calls)
     PAW_pot      :      0.75s CPU      0.84s WALL (       8 calls)
     mix_rho      :      0.00s CPU      0.00s WALL (       8 calls)

     Called by c_bands:
     init_us_2    :      0.06s CPU      0.06s WALL (     551 calls)
     cegterg      :      2.03s CPU      2.13s WALL (     232 calls)

     Called by sum_band:
     sum_band:bec :      0.00s CPU      0.00s WALL (     232 calls)
     addusdens    :      0.05s CPU      0.05s WALL (       8 calls)

     Called by *egterg:
     h_psi        :      1.51s CPU      1.59s WALL (     766 calls)
     s_psi        :      0.04s CPU      0.05s WALL (     766 calls)
     g_psi        :      0.00s CPU      0.00s WALL (     505 calls)
     cdiaghg      :      0.25s CPU      0.26s WALL (     708 calls)

     Called by h_psi:
     h_psi:pot    :      1.51s CPU      1.59s WALL (     766 calls)
     h_psi:calbec :      0.06s CPU      0.07s WALL (     766 calls)
     vloc_psi     :      1.39s CPU      1.46s WALL (     766 calls)
     add_vuspsi   :      0.04s CPU      0.05s WALL (     766 calls)

     General routines
     calbec       :      0.11s CPU      0.12s WALL (    1143 calls)
     fft          :      0.02s CPU      0.02s WALL (     115 calls)
     ffts         :      0.00s CPU      0.00s WALL (       8 calls)
     fftw         :      1.59s CPU      1.68s WALL (   18382 calls)

     Parallel routines
     fft_scatt_xy :      0.13s CPU      0.14s WALL (   18505 calls)
     fft_scatt_yz :      0.47s CPU      0.50s WALL (   18505 calls)

     PWSCF        :     4.52s CPU         4.83s WALL


   This run was terminated on:  22:50:26  26Mar2024            

=------------------------------------------------------------------------------=
   JOB DONE.
=------------------------------------------------------------------------------=
