
     Program PWSCF v.6.3MaX starts on 26Mar2024 at 22:42:21 

     This program is part of the open-source Quantum ESPRESSO suite
     for quantum simulation of materials; please cite
         "P. Giannozzi et al., J. Phys.:Condens. Matter 21 395502 (2009);
         "P. Giannozzi et al., J. Phys.:Condens. Matter 29 465901 (2017);
          URL http://www.quantum-espresso.org", 
     in publications or presentations arising from this work. More details at
     http://www.quantum-espresso.org/quote

     Parallel version (MPI), running on     5 processors

     MPI processes distributed on     1 nodes
     R & G space division:  proc/nbgrp/npool/nimage =       5
     Waiting for input...
     Reading input from standard input

     Current dimensions of program PWSCF are:
     Max number of different atomic species (ntypx) = 10
     Max number of k-points (npk) =  40000
     Max angular momentum in pseudopotentials (lmaxx) =  3
               file Ni.pbesol-spn-kjpaw_psl.1.0.0.UPF: wavefunction(s)  3P 3D renormalized

     Subspace diagonalization in iterative solution of the eigenvalue problem:
     a serial algorithm will be used


     Parallelization info
     --------------------
     sticks:   dense  smooth     PW     G-vecs:    dense   smooth      PW
     Min          67      67     24                  803      803     164
     Max          68      68     25                  803      803     165
     Sum         337     337    121                 4015     4015     821



     bravais-lattice index     =            2
     lattice parameter (alat)  =       6.6500  a.u.
     unit-cell volume          =      73.5199 (a.u.)^3
     number of atoms/cell      =            1
     number of atomic types    =            1
     number of electrons       =        18.00
     number of Kohn-Sham states=           13
     kinetic-energy cutoff     =      55.0000  Ry
     charge density cutoff     =     220.0000  Ry
     convergence threshold     =      1.0E-08
     mixing beta               =       0.7000
     number of iterations used =            8  plain     mixing
     Exchange-correlation      = SLA PW PSX PSC ( 1  4 10  8 0 0)

     celldm(1)=   6.650000  celldm(2)=   0.000000  celldm(3)=   0.000000
     celldm(4)=   0.000000  celldm(5)=   0.000000  celldm(6)=   0.000000

     crystal axes: (cart. coord. in units of alat)
               a(1) = (  -0.500000   0.000000   0.500000 )  
               a(2) = (   0.000000   0.500000   0.500000 )  
               a(3) = (  -0.500000   0.500000   0.000000 )  

     reciprocal axes: (cart. coord. in units 2 pi/alat)
               b(1) = ( -1.000000 -1.000000  1.000000 )  
               b(2) = (  1.000000  1.000000  1.000000 )  
               b(3) = ( -1.000000  1.000000 -1.000000 )  


     PseudoPot. # 1 for Ni read from file:
     /home/lorenzo/pseudos/Ni/Ni.pbesol-spn-kjpaw_psl.1.0.0.UPF
     MD5 check sum: ef06ee83099c2673f0516457bd731f51
     Pseudo is Projector augmented-wave + core cor, Zval = 18.0
     Generated using "atomic" code by A. Dal Corso v.6.3
     Shape of augmentation charge: PSQ
     Using radial grid of 1195 points,  6 beta functions with: 
                l(1) =   0
                l(2) =   0
                l(3) =   1
                l(4) =   1
                l(5) =   2
                l(6) =   2
     Q(r) pseudized with 0 coefficients 


     atomic species   valence    mass     pseudopotential
        Ni            18.00    58.69340     Ni( 1.00)

     48 Sym. Ops., with inversion, found



   Cartesian axes

     site n.     atom                  positions (alat units)
         1           Ni  tau(   1) = (   0.0000000   0.0000000   0.0000000  )

     number of k points=    29  gaussian smearing, width (Ry)=  0.0100
                       cart. coord. in units 2pi/alat
        k(    1) = (   0.0000000   0.0000000   0.0000000), wk =   0.0039062
        k(    2) = (  -0.1250000   0.1250000  -0.1250000), wk =   0.0312500
        k(    3) = (  -0.2500000   0.2500000  -0.2500000), wk =   0.0312500
        k(    4) = (  -0.3750000   0.3750000  -0.3750000), wk =   0.0312500
        k(    5) = (   0.5000000  -0.5000000   0.5000000), wk =   0.0156250
        k(    6) = (   0.0000000   0.2500000   0.0000000), wk =   0.0234375
        k(    7) = (  -0.1250000   0.3750000  -0.1250000), wk =   0.0937500
        k(    8) = (  -0.2500000   0.5000000  -0.2500000), wk =   0.0937500
        k(    9) = (   0.6250000  -0.3750000   0.6250000), wk =   0.0937500
        k(   10) = (   0.5000000  -0.2500000   0.5000000), wk =   0.0937500
        k(   11) = (   0.3750000  -0.1250000   0.3750000), wk =   0.0937500
        k(   12) = (   0.2500000   0.0000000   0.2500000), wk =   0.0468750
        k(   13) = (   0.0000000   0.5000000   0.0000000), wk =   0.0234375
        k(   14) = (  -0.1250000   0.6250000  -0.1250000), wk =   0.0937500
        k(   15) = (   0.7500000  -0.2500000   0.7500000), wk =   0.0937500
        k(   16) = (   0.6250000  -0.1250000   0.6250000), wk =   0.0937500
        k(   17) = (   0.5000000   0.0000000   0.5000000), wk =   0.0468750
        k(   18) = (   0.0000000   0.7500000   0.0000000), wk =   0.0234375
        k(   19) = (   0.8750000  -0.1250000   0.8750000), wk =   0.0937500
        k(   20) = (   0.7500000   0.0000000   0.7500000), wk =   0.0468750
        k(   21) = (   0.0000000  -1.0000000   0.0000000), wk =   0.0117188
        k(   22) = (  -0.2500000   0.5000000   0.0000000), wk =   0.0937500
        k(   23) = (   0.6250000  -0.3750000   0.8750000), wk =   0.1875000
        k(   24) = (   0.5000000  -0.2500000   0.7500000), wk =   0.0937500
        k(   25) = (   0.7500000  -0.2500000   1.0000000), wk =   0.0937500
        k(   26) = (   0.6250000  -0.1250000   0.8750000), wk =   0.1875000
        k(   27) = (   0.5000000   0.0000000   0.7500000), wk =   0.0937500
        k(   28) = (  -0.2500000  -1.0000000   0.0000000), wk =   0.0468750
        k(   29) = (  -0.5000000  -1.0000000   0.0000000), wk =   0.0234375

     Dense  grid:     4015 G-vectors     FFT dimensions: (  24,  24,  24)

     Estimated max dynamical RAM per process >       4.88 MB

     Estimated total dynamical RAM >      24.42 MB

     Check: negative/imaginary core charge=   -0.000009    0.000000

     Initial potential from superposition of free atoms

     starting charge   17.99977, renormalised to   18.00000
     Starting wfcs are   10 randomized atomic wfcs +    3 random wfcs
     Checking if some PAW data can be deallocated... 

     total cpu time spent up to now is        1.1 secs

     Self-consistent Calculation

     iteration #  1     ecut=    55.00 Ry     beta= 0.70
     Davidson diagonalization with overlap
     ethr =  1.00E-02,  avg # of iterations =  3.5

     Threshold (ethr) on eigenvalues was too large:
     Diagonalizing with lowered threshold

     Davidson diagonalization with overlap
     ethr =  9.66E-06,  avg # of iterations =  3.0

     total cpu time spent up to now is        1.7 secs

     total energy              =    -426.55585505 Ry
     Harris-Foulkes estimate   =    -426.55654193 Ry
     estimated scf accuracy    <       0.00171817 Ry

     iteration #  2     ecut=    55.00 Ry     beta= 0.70
     Davidson diagonalization with overlap
     ethr =  9.55E-06,  avg # of iterations =  2.0

     total cpu time spent up to now is        2.0 secs

     total energy              =    -426.55541256 Ry
     Harris-Foulkes estimate   =    -426.55680360 Ry
     estimated scf accuracy    <       0.00339279 Ry

     iteration #  3     ecut=    55.00 Ry     beta= 0.70
     Davidson diagonalization with overlap
     ethr =  9.55E-06,  avg # of iterations =  2.1

     total cpu time spent up to now is        2.4 secs

     total energy              =    -426.55613943 Ry
     Harris-Foulkes estimate   =    -426.55629545 Ry
     estimated scf accuracy    <       0.00051171 Ry

     iteration #  4     ecut=    55.00 Ry     beta= 0.70
     Davidson diagonalization with overlap
     ethr =  2.84E-06,  avg # of iterations =  1.2

     total cpu time spent up to now is        2.7 secs

     total energy              =    -426.55621458 Ry
     Harris-Foulkes estimate   =    -426.55621441 Ry
     estimated scf accuracy    <       0.00000071 Ry

     iteration #  5     ecut=    55.00 Ry     beta= 0.70
     Davidson diagonalization with overlap
     ethr =  3.93E-09,  avg # of iterations =  3.1

     total cpu time spent up to now is        3.1 secs

     total energy              =    -426.55621607 Ry
     Harris-Foulkes estimate   =    -426.55621613 Ry
     estimated scf accuracy    <       0.00000015 Ry

     iteration #  6     ecut=    55.00 Ry     beta= 0.70
     Davidson diagonalization with overlap
     ethr =  8.33E-10,  avg # of iterations =  1.0

     total cpu time spent up to now is        3.4 secs

     total energy              =    -426.55621608 Ry
     Harris-Foulkes estimate   =    -426.55621608 Ry
     estimated scf accuracy    <       0.00000002 Ry

     iteration #  7     ecut=    55.00 Ry     beta= 0.70
     Davidson diagonalization with overlap
     ethr =  1.02E-10,  avg # of iterations =  1.0

     total cpu time spent up to now is        3.7 secs

     End of self-consistent calculation

          k = 0.0000 0.0000 0.0000 (   531 PWs)   bands (ev):

   -85.2050 -45.6018 -45.6018 -45.6018   8.6202  15.6969  15.6969  15.6969
    16.8202  16.8202  41.2814  45.2021  45.2021

          k =-0.1250 0.1250-0.1250 (   522 PWs)   bands (ev):

   -85.1998 -45.6284 -45.6051 -45.6051   9.2284  15.5428  15.8194  15.8194
    16.7783  16.7783  38.4226  42.3378  44.1181

          k =-0.2500 0.2500-0.2500 (   510 PWs)   bands (ev):

   -85.1872 -45.7056 -45.6131 -45.6131  10.8779  15.3127  15.9063  15.9063
    16.9155  16.9155  32.1556  41.3914  43.0026

          k =-0.3750 0.3750-0.3750 (   498 PWs)   bands (ev):

   -85.1747 -45.7849 -45.6197 -45.6197  12.6308  15.7509  15.7509  15.9230
    17.3429  17.3429  26.5817  40.2708  42.4495

          k = 0.5000-0.5000 0.5000 (   502 PWs)   bands (ev):

   -85.1698 -45.8158 -45.6265 -45.6265  13.0912  15.6587  15.6587  17.3300
    17.5615  17.5615  23.6073  39.7882  42.3243

          k = 0.0000 0.2500 0.0000 (   524 PWs)   bands (ev):

   -85.1981 -45.6284 -45.6131 -45.6131   9.4262  15.4042  15.9280  15.9280
    16.5601  16.9244  39.9953  41.2986  41.2986

          k =-0.1250 0.3750-0.1250 (   510 PWs)   bands (ev):

   -85.1880 -45.6825 -45.6232 -45.6198  10.7303  15.1105  15.9734  16.1219
    16.6284  17.0801  34.6089  39.4576  39.9769

          k =-0.2500 0.5000-0.2500 (   509 PWs)   bands (ev):

   -85.1758 -45.7599 -45.6362 -45.6319  12.5606  15.0983  15.6570  16.0479
    17.4246  17.5153  28.6447  38.6104  38.7117

          k = 0.6250-0.3750 0.6250 (   506 PWs)   bands (ev):

   -85.1683 -45.8018 -45.6482 -45.6360  13.3971  15.3497  15.9032  15.9712
    17.5765  19.1216  24.1801  36.9934  39.2490

          k = 0.5000-0.2500 0.5000 (   510 PWs)   bands (ev):

   -85.1701 -45.7937 -45.6535 -45.6287  13.2874  15.4521  15.7716  15.9032
    17.2799  18.7142  25.3749  35.9708  41.1861

          k = 0.3750-0.1250 0.3750 (   507 PWs)   bands (ev):

   -85.1797 -45.7346 -45.6432 -45.6146  11.9915  15.1280  15.7447  16.0738
    16.7185  17.6349  30.5586  35.9496  42.8944

          k = 0.2500 0.0000 0.2500 (   515 PWs)   bands (ev):

   -85.1921 -45.6651 -45.6244 -45.6062  10.1907  15.2994  15.9202  16.0261
    16.5352  17.0342  36.4003  37.2557  44.8187

          k = 0.0000 0.5000 0.0000 (   504 PWs)   bands (ev):

   -85.1814 -45.7010 -45.6370 -45.6370  11.5437  14.7311  16.1535  16.5643
    16.5643  17.1814  36.9098  36.9098  37.7046

          k =-0.1250 0.6250-0.1250 (   507 PWs)   bands (ev):

   -85.1717 -45.7510 -45.6585 -45.6493  12.8816  14.4731  15.8916  16.6956
    17.4634  17.6601  31.5516  34.8325  35.6126

          k = 0.7500-0.2500 0.7500 (   504 PWs)   bands (ev):

   -85.1642 -45.7777 -45.6873 -45.6538  13.8389  14.5287  15.6558  16.5445
    17.6149  20.1437  26.2490  32.2910  35.8247

          k = 0.6250-0.1250 0.6250 (   512 PWs)   bands (ev):

   -85.1637 -45.7761 -45.7087 -45.6462  14.1551  14.7534  15.4215  16.4166
    17.3029  21.3646  24.8201  30.6812  37.5808

          k = 0.5000 0.0000 0.5000 (   512 PWs)   bands (ev):

   -85.1701 -45.7548 -45.6929 -45.6301  13.5544  14.9865  15.2636  16.3639
    16.7831  19.0031  29.2845  30.6433  40.5670

          k = 0.0000 0.7500 0.0000 (   500 PWs)   bands (ev):

   -85.1651 -45.7753 -45.6659 -45.6659  13.1478  14.0979  17.3505  17.3505
    17.4432  17.5307  31.1616  33.6860  33.6860

          k = 0.8750-0.1250 0.8750 (   498 PWs)   bands (ev):

   -85.1600 -45.7895 -45.6877 -45.6712  13.4725  14.0359  16.7869  17.2700
    17.6656  20.3060  28.5081  29.7787  33.3732

          k = 0.7500 0.0000 0.7500 (   504 PWs)   bands (ev):

   -85.1594 -45.7705 -45.7276 -45.6618  13.9874  14.2825  15.9424  16.9781
    17.4773  23.5019  25.0628  27.7534  34.7978

          k = 0.0000-1.0000 0.0000 (   492 PWs)   bands (ev):

   -85.1582 -45.8029 -45.6762 -45.6762  13.2557  13.8465  17.5544  17.7423
    17.7423  20.0715  27.0761  32.4537  32.4537

          k =-0.2500 0.5000 0.0000 (   509 PWs)   bands (ev):

   -85.1782 -45.7271 -45.6525 -45.6269  12.1669  14.8277  15.6752  16.5778
    16.6332  17.6691  32.9887  33.6976  39.0509

          k = 0.6250-0.3750 0.8750 (   510 PWs)   bands (ev):

   -85.1684 -45.7698 -45.6789 -45.6412  13.6309  14.8545  15.3120  16.4172
    17.2356  19.1079  27.6010  33.1220  36.2171

          k = 0.5000-0.2500 0.7500 (   502 PWs)   bands (ev):

   -85.1641 -45.7875 -45.6846 -45.6445  14.0058  14.8422  15.5168  16.2880
    17.4814  21.1877  23.9647  33.6698  34.5775

          k = 0.7500-0.2500 1.0000 (   492 PWs)   bands (ev):

   -85.1639 -45.7668 -45.6817 -45.6604  13.6223  14.3269  15.8304  17.1521
    17.3476  19.4162  30.4577  31.0852  32.0640

          k = 0.6250-0.1250 0.8750 (   501 PWs)   bands (ev):

   -85.1600 -45.7675 -45.7170 -45.6675  14.1262  14.4768  15.4899  16.8261
    17.5813  22.5907  25.8303  29.4922  31.7156

          k = 0.5000 0.0000 0.7500 (   505 PWs)   bands (ev):

   -85.1618 -45.7557 -45.7289 -45.6559  14.4104  14.7166  15.0017  16.6758
    17.3541  21.7630  26.5853  28.8844  33.5028

          k =-0.2500-1.0000 0.0000 (   500 PWs)   bands (ev):

   -85.1584 -45.7872 -45.6982 -45.6798  13.6503  14.1212  16.4063  17.2098
    17.7418  22.0837  27.2657  29.4512  30.5342

          k =-0.5000-1.0000 0.0000 (   516 PWs)   bands (ev):

   -85.1588 -45.7455 -45.7455 -45.6863  14.1687  14.9707  14.9707  16.7361
    17.7419  25.4982  25.4982  27.7544  28.8481

     the Fermi energy is    17.5740 ev

!    total energy              =    -426.55621608 Ry
     Harris-Foulkes estimate   =    -426.55621608 Ry
     estimated scf accuracy    <          4.1E-11 Ry

     total all-electron energy =     -3039.014561 Ry

     The total energy is the sum of the following terms:

     one-electron contribution =    -184.92123932 Ry
     hartree contribution      =     104.51105688 Ry
     xc contribution           =     -33.91785862 Ry
     ewald contribution        =    -223.38275374 Ry
     one-center paw contrib.   =     -88.84265196 Ry
     smearing contrib. (-TS)   =      -0.00276933 Ry

     convergence has been achieved in   7 iterations

     Forces acting on atoms (cartesian axes, Ry/au):

     atom    1 type  1   force =     0.00000000    0.00000000    0.00000000

     Total force =     0.000000     Total SCF correction =     0.000000


     Computing stress (Cartesian axis) and pressure

          total   stress  (Ry/bohr**3)                   (kbar)     P= -281.88
  -0.00191621  -0.00000000  -0.00000000       -281.88     -0.00     -0.00
  -0.00000000  -0.00191621   0.00000000         -0.00   -281.88      0.00
  -0.00000000   0.00000000  -0.00191621         -0.00      0.00   -281.88


     Writing output data file Ni.save/

     init_run     :      0.31s CPU      0.33s WALL (       1 calls)
     electrons    :      2.36s CPU      2.59s WALL (       1 calls)
     forces       :      0.03s CPU      0.03s WALL (       1 calls)
     stress       :      0.08s CPU      0.08s WALL (       1 calls)

     Called by init_run:
     wfcinit      :      0.07s CPU      0.08s WALL (       1 calls)
     potinit      :      0.09s CPU      0.11s WALL (       1 calls)
     hinit0       :      0.12s CPU      0.13s WALL (       1 calls)

     Called by electrons:
     c_bands      :      1.43s CPU      1.54s WALL (       8 calls)
     sum_band     :      0.27s CPU      0.30s WALL (       8 calls)
     v_of_rho     :      0.02s CPU      0.02s WALL (       8 calls)
     newd         :      0.03s CPU      0.03s WALL (       8 calls)
     PAW_pot      :      0.69s CPU      0.80s WALL (       8 calls)
     mix_rho      :      0.00s CPU      0.00s WALL (       8 calls)

     Called by c_bands:
     init_us_2    :      0.03s CPU      0.04s WALL (     551 calls)
     cegterg      :      1.38s CPU      1.48s WALL (     232 calls)

     Called by sum_band:
     sum_band:bec :      0.00s CPU      0.00s WALL (     232 calls)
     addusdens    :      0.03s CPU      0.03s WALL (       8 calls)

     Called by *egterg:
     h_psi        :      1.01s CPU      1.09s WALL (     751 calls)
     s_psi        :      0.03s CPU      0.03s WALL (     751 calls)
     g_psi        :      0.00s CPU      0.00s WALL (     490 calls)
     cdiaghg      :      0.22s CPU      0.23s WALL (     693 calls)

     Called by h_psi:
     h_psi:pot    :      1.00s CPU      1.09s WALL (     751 calls)
     h_psi:calbec :      0.04s CPU      0.05s WALL (     751 calls)
     vloc_psi     :      0.92s CPU      1.00s WALL (     751 calls)
     add_vuspsi   :      0.03s CPU      0.03s WALL (     751 calls)

     General routines
     calbec       :      0.07s CPU      0.08s WALL (    1128 calls)
     fft          :      0.02s CPU      0.02s WALL (     115 calls)
     ffts         :      0.00s CPU      0.00s WALL (       8 calls)
     fftw         :      1.03s CPU      1.12s WALL (   18252 calls)

     Parallel routines
     fft_scatt_xy :      0.10s CPU      0.11s WALL (   18375 calls)
     fft_scatt_yz :      0.27s CPU      0.29s WALL (   18375 calls)

     PWSCF        :     3.57s CPU         3.89s WALL


   This run was terminated on:  22:42:24  26Mar2024            

=------------------------------------------------------------------------------=
   JOB DONE.
=------------------------------------------------------------------------------=
