
     Program PWSCF v.6.3MaX starts on 26Mar2024 at 22:42:41 

     This program is part of the open-source Quantum ESPRESSO suite
     for quantum simulation of materials; please cite
         "P. Giannozzi et al., J. Phys.:Condens. Matter 21 395502 (2009);
         "P. Giannozzi et al., J. Phys.:Condens. Matter 29 465901 (2017);
          URL http://www.quantum-espresso.org", 
     in publications or presentations arising from this work. More details at
     http://www.quantum-espresso.org/quote

     Parallel version (MPI), running on     5 processors

     MPI processes distributed on     1 nodes
     R & G space division:  proc/nbgrp/npool/nimage =       5
     Waiting for input...
     Reading input from standard input

     Current dimensions of program PWSCF are:
     Max number of different atomic species (ntypx) = 10
     Max number of k-points (npk) =  40000
     Max angular momentum in pseudopotentials (lmaxx) =  3

     Subspace diagonalization in iterative solution of the eigenvalue problem:
     a serial algorithm will be used


     Parallelization info
     --------------------
     sticks:   dense  smooth     PW     G-vecs:    dense   smooth      PW
     Min          67      67     24                  803      803     164
     Max          68      68     25                  803      803     165
     Sum         337     337    121                 4015     4015     821



     bravais-lattice index     =            2
     lattice parameter (alat)  =       6.6500  a.u.
     unit-cell volume          =      73.5199 (a.u.)^3
     number of atoms/cell      =            1
     number of atomic types    =            1
     number of electrons       =        18.00
     number of Kohn-Sham states=           13
     kinetic-energy cutoff     =      55.0000  Ry
     charge density cutoff     =     220.0000  Ry
     convergence threshold     =      1.0E-08
     mixing beta               =       0.7000
     number of iterations used =            8  plain     mixing
     Exchange-correlation      = PBESOL ( 1  4 10  8 0 0)

     celldm(1)=   6.650000  celldm(2)=   0.000000  celldm(3)=   0.000000
     celldm(4)=   0.000000  celldm(5)=   0.000000  celldm(6)=   0.000000

     crystal axes: (cart. coord. in units of alat)
               a(1) = (  -0.500000   0.000000   0.500000 )  
               a(2) = (   0.000000   0.500000   0.500000 )  
               a(3) = (  -0.500000   0.500000   0.000000 )  

     reciprocal axes: (cart. coord. in units 2 pi/alat)
               b(1) = ( -1.000000 -1.000000  1.000000 )  
               b(2) = (  1.000000  1.000000  1.000000 )  
               b(3) = ( -1.000000  1.000000 -1.000000 )  


     PseudoPot. # 1 for Ni read from file:
     /home/lorenzo/pseudos/Ni/Ni.pbesol-spn-rrkjus_psl.1.0.0.UPF
     MD5 check sum: 6fc0a587bf949a08f2faed986b854013
     Pseudo is Ultrasoft + core correction, Zval = 18.0
     Generated using "atomic" code by A. Dal Corso v.6.3
     Using radial grid of 1195 points,  6 beta functions with: 
                l(1) =   0
                l(2) =   0
                l(3) =   1
                l(4) =   1
                l(5) =   2
                l(6) =   2
     Q(r) pseudized with 0 coefficients 


     atomic species   valence    mass     pseudopotential
        Ni            18.00    58.69340     Ni( 1.00)

     48 Sym. Ops., with inversion, found



   Cartesian axes

     site n.     atom                  positions (alat units)
         1           Ni  tau(   1) = (   0.0000000   0.0000000   0.0000000  )

     number of k points=    35  gaussian smearing, width (Ry)=  0.0100
                       cart. coord. in units 2pi/alat
        k(    1) = (   0.0000000   0.0000000   0.0000000), wk =   0.0027435
        k(    2) = (  -0.1111111   0.1111111  -0.1111111), wk =   0.0219479
        k(    3) = (  -0.2222222   0.2222222  -0.2222222), wk =   0.0219479
        k(    4) = (  -0.3333333   0.3333333  -0.3333333), wk =   0.0219479
        k(    5) = (  -0.4444444   0.4444444  -0.4444444), wk =   0.0219479
        k(    6) = (   0.0000000   0.2222222   0.0000000), wk =   0.0164609
        k(    7) = (  -0.1111111   0.3333333  -0.1111111), wk =   0.0658436
        k(    8) = (  -0.2222222   0.4444444  -0.2222222), wk =   0.0658436
        k(    9) = (  -0.3333333   0.5555556  -0.3333333), wk =   0.0658436
        k(   10) = (   0.5555556  -0.3333333   0.5555556), wk =   0.0658436
        k(   11) = (   0.4444444  -0.2222222   0.4444444), wk =   0.0658436
        k(   12) = (   0.3333333  -0.1111111   0.3333333), wk =   0.0658436
        k(   13) = (   0.2222222  -0.0000000   0.2222222), wk =   0.0329218
        k(   14) = (   0.0000000   0.4444444   0.0000000), wk =   0.0164609
        k(   15) = (  -0.1111111   0.5555556  -0.1111111), wk =   0.0658436
        k(   16) = (  -0.2222222   0.6666667  -0.2222222), wk =   0.0658436
        k(   17) = (   0.6666667  -0.2222222   0.6666667), wk =   0.0658436
        k(   18) = (   0.5555556  -0.1111111   0.5555556), wk =   0.0658436
        k(   19) = (   0.4444444   0.0000000   0.4444444), wk =   0.0329218
        k(   20) = (   0.0000000   0.6666667   0.0000000), wk =   0.0164609
        k(   21) = (  -0.1111111   0.7777778  -0.1111111), wk =   0.0658436
        k(   22) = (   0.7777778  -0.1111111   0.7777778), wk =   0.0658436
        k(   23) = (   0.6666667  -0.0000000   0.6666667), wk =   0.0329218
        k(   24) = (   0.0000000   0.8888889   0.0000000), wk =   0.0164609
        k(   25) = (   0.8888889   0.0000000   0.8888889), wk =   0.0329218
        k(   26) = (  -0.2222222   0.4444444   0.0000000), wk =   0.0658436
        k(   27) = (  -0.3333333   0.5555556  -0.1111111), wk =   0.1316872
        k(   28) = (   0.5555556  -0.3333333   0.7777778), wk =   0.1316872
        k(   29) = (  -0.2222222   0.6666667   0.0000000), wk =   0.0658436
        k(   30) = (   0.6666667  -0.2222222   0.8888889), wk =   0.1316872
        k(   31) = (   0.5555556  -0.1111111   0.7777778), wk =   0.1316872
        k(   32) = (   0.4444444   0.0000000   0.6666667), wk =   0.0658436
        k(   33) = (   0.7777778  -0.1111111   1.0000000), wk =   0.0658436
        k(   34) = (   0.6666667  -0.0000000   0.8888889), wk =   0.0658436
        k(   35) = (   0.5555556  -0.1111111   1.0000000), wk =   0.0658436

     Dense  grid:     4015 G-vectors     FFT dimensions: (  24,  24,  24)

     Estimated max dynamical RAM per process >       5.00 MB

     Estimated total dynamical RAM >      25.02 MB

     Check: negative/imaginary core charge=   -0.000009    0.000000

     Initial potential from superposition of free atoms

     starting charge   17.99977, renormalised to   18.00000
     Starting wfcs are   10 randomized atomic wfcs +    3 random wfcs

     total cpu time spent up to now is        0.9 secs

     Self-consistent Calculation

     iteration #  1     ecut=    55.00 Ry     beta= 0.70
     Davidson diagonalization with overlap
     ethr =  1.00E-02,  avg # of iterations =  3.4

     Threshold (ethr) on eigenvalues was too large:
     Diagonalizing with lowered threshold

     Davidson diagonalization with overlap
     ethr =  1.03E-05,  avg # of iterations =  2.8

     total cpu time spent up to now is        1.6 secs

     total energy              =    -339.38193841 Ry
     Harris-Foulkes estimate   =    -339.38254597 Ry
     estimated scf accuracy    <       0.00183489 Ry

     iteration #  2     ecut=    55.00 Ry     beta= 0.70
     Davidson diagonalization with overlap
     ethr =  1.02E-05,  avg # of iterations =  2.0

     total cpu time spent up to now is        1.9 secs

     total energy              =    -339.38161055 Ry
     Harris-Foulkes estimate   =    -339.38251337 Ry
     estimated scf accuracy    <       0.00179427 Ry

     iteration #  3     ecut=    55.00 Ry     beta= 0.70
     Davidson diagonalization with overlap
     ethr =  9.97E-06,  avg # of iterations =  2.0

     total cpu time spent up to now is        2.2 secs

     total energy              =    -339.38206913 Ry
     Harris-Foulkes estimate   =    -339.38233627 Ry
     estimated scf accuracy    <       0.00080555 Ry

     iteration #  4     ecut=    55.00 Ry     beta= 0.70
     Davidson diagonalization with overlap
     ethr =  4.48E-06,  avg # of iterations =  1.5

     total cpu time spent up to now is        2.4 secs

     total energy              =    -339.38218827 Ry
     Harris-Foulkes estimate   =    -339.38218804 Ry
     estimated scf accuracy    <       0.00000030 Ry

     iteration #  5     ecut=    55.00 Ry     beta= 0.70
     Davidson diagonalization with overlap
     ethr =  1.65E-09,  avg # of iterations =  3.0

     total cpu time spent up to now is        2.8 secs

     total energy              =    -339.38219048 Ry
     Harris-Foulkes estimate   =    -339.38219056 Ry
     estimated scf accuracy    <       0.00000035 Ry

     iteration #  6     ecut=    55.00 Ry     beta= 0.70
     Davidson diagonalization with overlap
     ethr =  1.65E-09,  avg # of iterations =  1.0

     total cpu time spent up to now is        3.0 secs

     total energy              =    -339.38219048 Ry
     Harris-Foulkes estimate   =    -339.38219049 Ry
     estimated scf accuracy    <       0.00000006 Ry

     iteration #  7     ecut=    55.00 Ry     beta= 0.70
     Davidson diagonalization with overlap
     ethr =  3.12E-10,  avg # of iterations =  1.2

     total cpu time spent up to now is        3.3 secs

     End of self-consistent calculation

          k = 0.0000 0.0000 0.0000 (   531 PWs)   bands (ev):

   -85.1836 -45.5847 -45.5847 -45.5847   8.6218  15.7039  15.7039  15.7039
    16.8309  16.8309  41.2807  45.2044  45.2044

          k =-0.1111 0.1111-0.1111 (   528 PWs)   bands (ev):

   -85.1795 -45.6078 -45.5879 -45.5879   9.1030  15.5786  15.8048  15.8048
    16.7932  16.7932  39.0725  42.4629  44.2721

          k =-0.2222 0.2222-0.2222 (   519 PWs)   bands (ev):

   -85.1691 -45.6710 -45.5954 -45.5954  10.4473  15.3454  15.9228  15.9228
    16.8566  16.8566  33.5282  41.6374  43.2015

          k =-0.3333 0.3333-0.3333 (   504 PWs)   bands (ev):

   -85.1570 -45.7435 -45.6023 -45.6023  12.1589  15.5344  15.8169  15.8169
    17.2095  17.2095  28.2972  40.6110  42.5753

          k =-0.4444 0.4444-0.4444 (   504 PWs)   bands (ev):

   -85.1495 -45.7934 -45.6083 -45.6083  13.0240  15.6870  15.6870  16.9045
    17.5239  17.5239  24.3282  39.8886  42.3452

          k = 0.0000 0.2222 0.0000 (   524 PWs)   bands (ev):

   -85.1781 -45.6048 -45.5936 -45.5936   9.2623  15.4693  15.8874  15.8874
    16.6215  16.9141  40.1931  41.8221  41.8221

          k =-0.1111 0.3333-0.1111 (   512 PWs)   bands (ev):

   -85.1696 -45.6512 -45.6016 -45.5981  10.3193  15.2140  16.0041  16.0684
    16.5714  17.0230  35.7061  40.1107  40.3985

          k =-0.2222 0.4444-0.2222 (   507 PWs)   bands (ev):

   -85.1583 -45.7210 -45.6102 -45.6099  11.9618  15.0957  15.7696  16.0533
    17.1451  17.3067  30.2469  39.2141  39.3784

          k =-0.3333 0.5556-0.3333 (   509 PWs)   bands (ev):

   -85.1495 -45.7761 -45.6231 -45.6168  13.1604  15.4310  15.7773  15.9133
    17.5634  18.2549  25.6182  38.1286  39.2500

          k = 0.5556-0.3333 0.5556 (   504 PWs)   bands (ev):

   -85.1468 -45.7887 -45.6298 -45.6140  13.3665  15.4415  15.8434  16.1830
    17.5073  19.1487  23.7837  36.9990  40.3585

          k = 0.4444-0.2222 0.4444 (   508 PWs)   bands (ev):

   -85.1519 -45.7608 -45.6293 -45.6053  12.9092  15.4788  15.6202  15.9204
    17.1191  18.0987  27.0325  36.5060  41.6071

          k = 0.3333-0.1111 0.3333 (   508 PWs)   bands (ev):

   -85.1622 -45.6977 -45.6175 -45.5935  11.3988  15.1620  15.8429  16.0833
    16.6410  17.3855  32.0198  36.7869  43.4897

          k = 0.2222-0.0000 0.2222 (   515 PWs)   bands (ev):

   -85.1731 -45.6353 -45.6021 -45.5875   9.8774  15.3737  15.9215  15.9678
    16.5928  16.9668  37.2342  38.1820  44.4837

          k = 0.0000 0.4444 0.0000 (   512 PWs)   bands (ev):

   -85.1642 -45.6689 -45.6133 -45.6133  11.0127  14.8992  16.2049  16.4033
    16.4033  17.1290  37.8131  37.8131  38.7519

          k =-0.1111 0.5556-0.1111 (   504 PWs)   bands (ev):

   -85.1549 -45.7116 -45.6288 -45.6254  12.2966  14.6363  15.8802  16.5657
    17.1751  17.3567  32.8128  36.4514  36.6439

          k =-0.2222 0.6667-0.2222 (   504 PWs)   bands (ev):

   -85.1464 -45.7541 -45.6511 -45.6317  13.4983  14.6232  15.6152  16.4611
    17.6031  18.8088  27.8014  34.2806  36.1954

          k = 0.6667-0.2222 0.6667 (   508 PWs)   bands (ev):

   -85.1427 -45.7695 -45.6714 -45.6312  13.9661  14.7842  15.6028  16.3304
    17.5263  21.1487  24.1151  32.4813  37.1510

          k = 0.5556-0.1111 0.5556 (   505 PWs)   bands (ev):

   -85.1451 -45.7544 -45.6765 -45.6188  13.9073  15.0470  15.2873  16.2944
    17.1125  19.8998  26.3737  31.5047  39.2253

          k = 0.4444 0.0000 0.4444 (   511 PWs)   bands (ev):

   -85.1530 -45.7272 -45.6561 -45.6062  12.8776  14.9817  15.5032  16.3492
    16.6099  18.3202  30.7667  31.8107  42.1416

          k = 0.0000 0.6667 0.0000 (   500 PWs)   bands (ev):

   -85.1484 -45.7363 -45.6399 -45.6399  12.8643  14.2856  16.7026  17.1078
    17.1078  17.3770  33.3354  34.5822  34.5822

          k =-0.1111 0.7778-0.1111 (   498 PWs)   bands (ev):

   -85.1419 -45.7616 -45.6600 -45.6466  13.3901  14.1444  16.5615  17.1348
    17.6214  18.9325  30.4453  30.9920  33.8892

          k = 0.7778-0.1111 0.7778 (   498 PWs)   bands (ev):

   -85.1385 -45.7594 -45.6923 -45.6457  13.8711  14.2579  16.0527  16.9678
    17.5882  21.9248  26.2925  28.8424  34.5472

          k = 0.6667-0.0000 0.6667 (   506 PWs)   bands (ev):

   -85.1399 -45.7314 -45.7287 -45.6343  14.3384  14.4927  15.4555  16.7123
    17.2894  22.5700  25.2613  28.3230  36.4358

          k = 0.0000 0.8889 0.0000 (   496 PWs)   bands (ev):

   -85.1382 -45.7816 -45.6575 -45.6575  13.2635  13.9041  17.5419  17.6649
    17.6649  19.3172  28.1250  32.7070  32.7070

          k = 0.8889 0.0000 0.8889 (   500 PWs)   bands (ev):

   -85.1370 -45.7812 -45.6727 -45.6591  13.4304  13.9557  17.0873  17.4248
    17.6955  21.0568  27.1409  29.9496  32.9459

          k =-0.2222 0.4444 0.0000 (   514 PWs)   bands (ev):

   -85.1611 -45.6915 -45.6269 -45.6055  11.5399  14.9474  15.8179  16.4187
    16.5697  17.4084  34.1435  34.8199  40.5610

          k =-0.3333 0.5556-0.1111 (   509 PWs)   bands (ev):

   -85.1511 -45.7394 -45.6475 -45.6160  13.0603  14.8848  15.4654  16.3579
    17.0650  18.3071  29.1602  34.0123  37.9547

          k = 0.5556-0.3333 0.7778 (   508 PWs)   bands (ev):

   -85.1447 -45.7710 -45.6595 -45.6242  13.7911  15.0112  15.5368  16.2098
    17.4528  20.0551  24.8529  34.3075  35.9592

          k =-0.2222 0.6667 0.0000 (   508 PWs)   bands (ev):

   -85.1473 -45.7426 -45.6548 -45.6363  13.2808  14.4381  15.7444  17.0828
    17.1045  18.4035  31.6338  32.2505  34.0722

          k = 0.6667-0.2222 0.8889 (   500 PWs)   bands (ev):

   -85.1411 -45.7541 -45.6806 -45.6436  13.9818  14.4857  15.5022  16.8259
    17.5097  20.6420  27.1821  31.4366  32.4019

          k = 0.5556-0.1111 0.7778 (   508 PWs)   bands (ev):

   -85.1400 -45.7501 -45.7040 -45.6413  14.4340  14.4936  15.2932  16.6285
    17.4656  22.6932  24.5837  29.9944  33.4137

          k = 0.4444 0.0000 0.6667 (   505 PWs)   bands (ev):

   -85.1437 -45.7419 -45.6908 -45.6283  14.1345  14.8752  14.9721  16.6402
    17.1268  20.0993  28.1365  29.8059  35.3713

          k = 0.7778-0.1111 1.0000 (   499 PWs)   bands (ev):

   -85.1381 -45.7698 -45.6738 -45.6590  13.5965  14.1130  16.4501  17.2941
    17.6637  20.9262  28.3843  30.1116  31.0334

          k = 0.6667-0.0000 0.8889 (   497 PWs)   bands (ev):

   -85.1371 -45.7532 -45.7006 -45.6548  13.9671  14.3521  15.8301  16.9752
    17.6613  23.4163  26.2488  27.7336  31.5995

          k = 0.5556-0.1111 1.0000 (   503 PWs)   bands (ev):

   -85.1378 -45.7390 -45.7117 -45.6593  14.1953  14.7550  15.1559  16.7887
    17.6618  23.4244  26.5628  28.6208  29.7429

     the Fermi energy is    17.5733 ev

!    total energy              =    -339.38219048 Ry
     Harris-Foulkes estimate   =    -339.38219048 Ry
     estimated scf accuracy    <          5.7E-11 Ry

     The total energy is the sum of the following terms:

     one-electron contribution =    -186.60141345 Ry
     hartree contribution      =     104.52375346 Ry
     xc contribution           =     -33.91934544 Ry
     ewald contribution        =    -223.38275374 Ry
     smearing contrib. (-TS)   =      -0.00243131 Ry

     convergence has been achieved in   7 iterations

     Forces acting on atoms (cartesian axes, Ry/au):

     atom    1 type  1   force =     0.00000000    0.00000000    0.00000000

     Total force =     0.000000     Total SCF correction =     0.000000


     Computing stress (Cartesian axis) and pressure

          total   stress  (Ry/bohr**3)                   (kbar)     P= -285.16
  -0.00193850   0.00000000   0.00000000       -285.16      0.00      0.00
   0.00000000  -0.00193850  -0.00000000          0.00   -285.16     -0.00
   0.00000000  -0.00000000  -0.00193850          0.00     -0.00   -285.16


     Writing output data file Ni.save/

     init_run     :      0.21s CPU      0.23s WALL (       1 calls)
     electrons    :      2.17s CPU      2.32s WALL (       1 calls)
     forces       :      0.03s CPU      0.03s WALL (       1 calls)
     stress       :      0.08s CPU      0.09s WALL (       1 calls)

     Called by init_run:
     wfcinit      :      0.07s CPU      0.08s WALL (       1 calls)
     potinit      :      0.01s CPU      0.01s WALL (       1 calls)
     hinit0       :      0.13s CPU      0.13s WALL (       1 calls)

     Called by electrons:
     c_bands      :      1.78s CPU      1.91s WALL (       8 calls)
     sum_band     :      0.34s CPU      0.35s WALL (       8 calls)
     v_of_rho     :      0.02s CPU      0.02s WALL (       8 calls)
     newd         :      0.03s CPU      0.03s WALL (       8 calls)
     mix_rho      :      0.00s CPU      0.00s WALL (       8 calls)

     Called by c_bands:
     init_us_2    :      0.05s CPU      0.05s WALL (     665 calls)
     cegterg      :      1.72s CPU      1.84s WALL (     280 calls)

     Called by sum_band:
     sum_band:bec :      0.00s CPU      0.00s WALL (     280 calls)
     addusdens    :      0.03s CPU      0.03s WALL (       8 calls)

     Called by *egterg:
     h_psi        :      1.24s CPU      1.34s WALL (     910 calls)
     s_psi        :      0.04s CPU      0.04s WALL (     910 calls)
     g_psi        :      0.00s CPU      0.00s WALL (     595 calls)
     cdiaghg      :      0.27s CPU      0.29s WALL (     840 calls)

     Called by h_psi:
     h_psi:pot    :      1.23s CPU      1.33s WALL (     910 calls)
     h_psi:calbec :      0.05s CPU      0.06s WALL (     910 calls)
     vloc_psi     :      1.14s CPU      1.23s WALL (     910 calls)
     add_vuspsi   :      0.04s CPU      0.04s WALL (     910 calls)

     General routines
     calbec       :      0.09s CPU      0.09s WALL (    1365 calls)
     fft          :      0.01s CPU      0.01s WALL (     115 calls)
     ffts         :      0.00s CPU      0.00s WALL (       8 calls)
     fftw         :      1.28s CPU      1.37s WALL (   21896 calls)

     Parallel routines
     fft_scatt_xy :      0.12s CPU      0.13s WALL (   22019 calls)
     fft_scatt_yz :      0.34s CPU      0.37s WALL (   22019 calls)

     PWSCF        :     3.23s CPU         3.43s WALL


   This run was terminated on:  22:42:45  26Mar2024            

=------------------------------------------------------------------------------=
   JOB DONE.
=------------------------------------------------------------------------------=
