
     Program PWSCF v.6.3MaX starts on 26Mar2024 at 22:24:10 

     This program is part of the open-source Quantum ESPRESSO suite
     for quantum simulation of materials; please cite
         "P. Giannozzi et al., J. Phys.:Condens. Matter 21 395502 (2009);
         "P. Giannozzi et al., J. Phys.:Condens. Matter 29 465901 (2017);
          URL http://www.quantum-espresso.org", 
     in publications or presentations arising from this work. More details at
     http://www.quantum-espresso.org/quote

     Parallel version (MPI), running on     5 processors

     MPI processes distributed on     1 nodes
     R & G space division:  proc/nbgrp/npool/nimage =       5
     Waiting for input...
     Reading input from standard input

     Current dimensions of program PWSCF are:
     Max number of different atomic species (ntypx) = 10
     Max number of k-points (npk) =  40000
     Max angular momentum in pseudopotentials (lmaxx) =  3
               file Ni.pbe-spn-kjpaw_psl.1.0.0.UPF: wavefunction(s)  3P 3D renormalized

     Subspace diagonalization in iterative solution of the eigenvalue problem:
     a serial algorithm will be used


     Parallelization info
     --------------------
     sticks:   dense  smooth     PW     G-vecs:    dense   smooth      PW
     Min          17      17      7                  112      112      33
     Max          19      19      8                  113      113      35
     Sum          91      91     37                  561      561     169



     bravais-lattice index     =            2
     lattice parameter (alat)  =       6.6500  a.u.
     unit-cell volume          =      73.5199 (a.u.)^3
     number of atoms/cell      =            1
     number of atomic types    =            1
     number of electrons       =        18.00
     number of Kohn-Sham states=           13
     kinetic-energy cutoff     =      15.0000  Ry
     charge density cutoff     =      60.0000  Ry
     convergence threshold     =      1.0E-08
     mixing beta               =       0.7000
     number of iterations used =            8  plain     mixing
     Exchange-correlation      = SLA PW PBX PBC ( 1  4  3  4 0 0)

     celldm(1)=   6.650000  celldm(2)=   0.000000  celldm(3)=   0.000000
     celldm(4)=   0.000000  celldm(5)=   0.000000  celldm(6)=   0.000000

     crystal axes: (cart. coord. in units of alat)
               a(1) = (  -0.500000   0.000000   0.500000 )  
               a(2) = (   0.000000   0.500000   0.500000 )  
               a(3) = (  -0.500000   0.500000   0.000000 )  

     reciprocal axes: (cart. coord. in units 2 pi/alat)
               b(1) = ( -1.000000 -1.000000  1.000000 )  
               b(2) = (  1.000000  1.000000  1.000000 )  
               b(3) = ( -1.000000  1.000000 -1.000000 )  


     PseudoPot. # 1 for Ni read from file:
     /home/lorenzo/pseudos/Ni/Ni.pbe-spn-kjpaw_psl.1.0.0.UPF
     MD5 check sum: 6e86b733589c3ad8389697b807d86aa7
     Pseudo is Projector augmented-wave + core cor, Zval = 18.0
     Generated using "atomic" code by A. Dal Corso v.6.3
     Shape of augmentation charge: PSQ
     Using radial grid of 1195 points,  6 beta functions with: 
                l(1) =   0
                l(2) =   0
                l(3) =   1
                l(4) =   1
                l(5) =   2
                l(6) =   2
     Q(r) pseudized with 0 coefficients 


     atomic species   valence    mass     pseudopotential
        Ni            18.00    58.69340     Ni( 1.00)

     48 Sym. Ops., with inversion, found



   Cartesian axes

     site n.     atom                  positions (alat units)
         1           Ni  tau(   1) = (   0.0000000   0.0000000   0.0000000  )

     number of k points=    56  gaussian smearing, width (Ry)=  0.0100
                       cart. coord. in units 2pi/alat
        k(    1) = (   0.0000000   0.0000000   0.0000000), wk =   0.0015026
        k(    2) = (  -0.0909091   0.0909091  -0.0909091), wk =   0.0120210
        k(    3) = (  -0.1818182   0.1818182  -0.1818182), wk =   0.0120210
        k(    4) = (  -0.2727273   0.2727273  -0.2727273), wk =   0.0120210
        k(    5) = (  -0.3636364   0.3636364  -0.3636364), wk =   0.0120210
        k(    6) = (  -0.4545455   0.4545455  -0.4545455), wk =   0.0120210
        k(    7) = (   0.0000000   0.1818182   0.0000000), wk =   0.0090158
        k(    8) = (  -0.0909091   0.2727273  -0.0909091), wk =   0.0360631
        k(    9) = (  -0.1818182   0.3636364  -0.1818182), wk =   0.0360631
        k(   10) = (  -0.2727273   0.4545455  -0.2727273), wk =   0.0360631
        k(   11) = (  -0.3636364   0.5454545  -0.3636364), wk =   0.0360631
        k(   12) = (   0.5454545  -0.3636364   0.5454545), wk =   0.0360631
        k(   13) = (   0.4545455  -0.2727273   0.4545455), wk =   0.0360631
        k(   14) = (   0.3636364  -0.1818182   0.3636364), wk =   0.0360631
        k(   15) = (   0.2727273  -0.0909091   0.2727273), wk =   0.0360631
        k(   16) = (   0.1818182  -0.0000000   0.1818182), wk =   0.0180316
        k(   17) = (   0.0000000   0.3636364   0.0000000), wk =   0.0090158
        k(   18) = (  -0.0909091   0.4545455  -0.0909091), wk =   0.0360631
        k(   19) = (  -0.1818182   0.5454545  -0.1818182), wk =   0.0360631
        k(   20) = (  -0.2727273   0.6363636  -0.2727273), wk =   0.0360631
        k(   21) = (   0.6363636  -0.2727273   0.6363636), wk =   0.0360631
        k(   22) = (   0.5454545  -0.1818182   0.5454545), wk =   0.0360631
        k(   23) = (   0.4545455  -0.0909091   0.4545455), wk =   0.0360631
        k(   24) = (   0.3636364   0.0000000   0.3636364), wk =   0.0180316
        k(   25) = (   0.0000000   0.5454545   0.0000000), wk =   0.0090158
        k(   26) = (  -0.0909091   0.6363636  -0.0909091), wk =   0.0360631
        k(   27) = (  -0.1818182   0.7272727  -0.1818182), wk =   0.0360631
        k(   28) = (   0.7272727  -0.1818182   0.7272727), wk =   0.0360631
        k(   29) = (   0.6363636  -0.0909091   0.6363636), wk =   0.0360631
        k(   30) = (   0.5454545   0.0000000   0.5454545), wk =   0.0180316
        k(   31) = (   0.0000000   0.7272727   0.0000000), wk =   0.0090158
        k(   32) = (  -0.0909091   0.8181818  -0.0909091), wk =   0.0360631
        k(   33) = (   0.8181818  -0.0909091   0.8181818), wk =   0.0360631
        k(   34) = (   0.7272727   0.0000000   0.7272727), wk =   0.0180316
        k(   35) = (   0.0000000   0.9090909   0.0000000), wk =   0.0090158
        k(   36) = (   0.9090909  -0.0000000   0.9090909), wk =   0.0180316
        k(   37) = (  -0.1818182   0.3636364   0.0000000), wk =   0.0360631
        k(   38) = (  -0.2727273   0.4545455  -0.0909091), wk =   0.0721262
        k(   39) = (  -0.3636364   0.5454545  -0.1818182), wk =   0.0721262
        k(   40) = (   0.5454545  -0.3636364   0.7272727), wk =   0.0721262
        k(   41) = (  -0.1818182   0.5454545   0.0000000), wk =   0.0360631
        k(   42) = (  -0.2727273   0.6363636  -0.0909091), wk =   0.0721262
        k(   43) = (   0.6363636  -0.2727273   0.8181818), wk =   0.0721262
        k(   44) = (   0.5454545  -0.1818182   0.7272727), wk =   0.0721262
        k(   45) = (   0.4545455  -0.0909091   0.6363636), wk =   0.0721262
        k(   46) = (   0.3636364   0.0000000   0.5454545), wk =   0.0360631
        k(   47) = (  -0.1818182   0.7272727   0.0000000), wk =   0.0360631
        k(   48) = (   0.7272727  -0.1818182   0.9090909), wk =   0.0721262
        k(   49) = (   0.6363636  -0.0909091   0.8181818), wk =   0.0721262
        k(   50) = (   0.5454545   0.0000000   0.7272727), wk =   0.0360631
        k(   51) = (   0.8181818  -0.0909091   1.0000000), wk =   0.0360631
        k(   52) = (   0.7272727   0.0000000   0.9090909), wk =   0.0360631
        k(   53) = (   0.6363636  -0.2727273   1.0000000), wk =   0.0360631
        k(   54) = (   0.5454545  -0.1818182   0.9090909), wk =   0.0721262
        k(   55) = (   0.6363636  -0.0909091   1.0000000), wk =   0.0360631
        k(   56) = (   0.5454545   0.0000000   0.9090909), wk =   0.0360631

     Dense  grid:      561 G-vectors     FFT dimensions: (  12,  12,  12)

     Estimated max dynamical RAM per process >       1.24 MB

     Estimated total dynamical RAM >       6.22 MB

     Check: negative/imaginary core charge=   -0.001438    0.000000

     Initial potential from superposition of free atoms
     Check: negative starting charge=   -0.125591

     starting charge   17.99975, renormalised to   18.00000

     negative rho (up, down):  1.256E-01 0.000E+00
     Starting wfcs are   10 randomized atomic wfcs +    3 random wfcs
     Checking if some PAW data can be deallocated... 

     total cpu time spent up to now is        1.0 secs

     Self-consistent Calculation

     iteration #  1     ecut=    15.00 Ry     beta= 0.70
     Davidson diagonalization with overlap
     ethr =  1.00E-02,  avg # of iterations =  3.5

     total cpu time spent up to now is        1.6 secs

     total energy              =    -359.41619122 Ry
     Harris-Foulkes estimate   =    -399.76013695 Ry
     estimated scf accuracy    <      47.03610179 Ry

     iteration #  2     ecut=    15.00 Ry     beta= 0.70
     Davidson diagonalization with overlap
     ethr =  1.00E-02,  avg # of iterations =  3.1

     negative rho (up, down):  1.765E-04 0.000E+00

     total cpu time spent up to now is        2.0 secs

     total energy              =    -365.75286966 Ry
     Harris-Foulkes estimate   =    -366.74111418 Ry
     estimated scf accuracy    <       2.00605177 Ry

     iteration #  3     ecut=    15.00 Ry     beta= 0.70
     Davidson diagonalization with overlap
     ethr =  1.00E-02,  avg # of iterations =  1.0

     negative rho (up, down):  2.867E-03 0.000E+00

     total cpu time spent up to now is        2.3 secs

     total energy              =    -365.73534667 Ry
     Harris-Foulkes estimate   =    -365.80227134 Ry
     estimated scf accuracy    <       0.12463252 Ry

     iteration #  4     ecut=    15.00 Ry     beta= 0.70
     Davidson diagonalization with overlap
     ethr =  6.92E-04,  avg # of iterations =  1.1

     negative rho (up, down):  2.805E-03 0.000E+00

     total cpu time spent up to now is        2.6 secs

     total energy              =    -365.73910787 Ry
     Harris-Foulkes estimate   =    -365.73922722 Ry
     estimated scf accuracy    <       0.00029398 Ry

     iteration #  5     ecut=    15.00 Ry     beta= 0.70
     Davidson diagonalization with overlap
     ethr =  1.63E-06,  avg # of iterations =  2.8

     negative rho (up, down):  2.813E-03 0.000E+00

     total cpu time spent up to now is        2.9 secs

     total energy              =    -365.73915995 Ry
     Harris-Foulkes estimate   =    -365.73917252 Ry
     estimated scf accuracy    <       0.00002437 Ry

     iteration #  6     ecut=    15.00 Ry     beta= 0.70
     Davidson diagonalization with overlap
     ethr =  1.35E-07,  avg # of iterations =  1.7

     negative rho (up, down):  2.816E-03 0.000E+00

     total cpu time spent up to now is        3.2 secs

     total energy              =    -365.73916228 Ry
     Harris-Foulkes estimate   =    -365.73916232 Ry
     estimated scf accuracy    <       0.00000020 Ry

     iteration #  7     ecut=    15.00 Ry     beta= 0.70
     Davidson diagonalization with overlap
     ethr =  1.13E-09,  avg # of iterations =  1.9

     negative rho (up, down):  2.815E-03 0.000E+00

     total cpu time spent up to now is        3.5 secs

     End of self-consistent calculation

          k = 0.0000 0.0000 0.0000 (    65 PWs)   bands (ev):

  -169.8447 -48.5164 -48.5164 -48.5164  13.4522  33.6081  33.6081  34.3653
    34.3653  34.3653  48.4213  52.9280  52.9280

          k =-0.0909 0.0909-0.0909 (    65 PWs)   bands (ev):

  -169.7588 -48.7610 -48.5262 -48.5262  13.7411  33.3817  33.4309  33.4309
    34.4650  34.4650  49.2785  51.8588  53.3211

          k =-0.1818 0.1818-0.1818 (    65 PWs)   bands (ev):

  -169.3712 -52.2188 -45.9660 -45.9660  14.8865  29.8649  34.3973  34.3973
    36.6366  36.6366  47.3715  50.4815  56.6670

          k =-0.2727 0.2727-0.2727 (    68 PWs)   bands (ev):

  -170.0044 -55.9066 -48.5928 -48.5928  16.3424  27.7527  32.9584  32.9584
    35.3102  35.3102  44.3160  50.2668  55.1846

          k =-0.3636 0.3636-0.3636 (    74 PWs)   bands (ev):

  -171.9340 -66.9636 -53.9386 -53.9386  18.2879  25.0792  25.0792  25.2611
    32.6418  32.6418  36.7358  49.1151  49.1151

          k =-0.4545 0.4545-0.4545 (    73 PWs)   bands (ev):

  -171.5096 -63.0830 -53.9148 -53.9148  20.8183  24.1911  25.3490  25.3490
    32.4210  32.4210  38.2426  48.7093  48.7093

          k = 0.0000 0.1818 0.0000 (    64 PWs)   bands (ev):

  -169.4298 -48.5320 -48.5320 -45.4269  13.9243  33.6810  33.8085  34.1697
    34.1697  35.8461  49.6955  53.5755  53.5755

          k =-0.0909 0.2727-0.0909 (    64 PWs)   bands (ev):

  -169.0829 -49.9538 -45.9833 -45.4670  14.7804  31.0456  33.8905  34.3549
    35.9174  37.5522  49.6369  51.2511  55.6178

          k =-0.1818 0.3636-0.1818 (    69 PWs)   bands (ev):

  -170.3701 -60.4651 -49.4230 -47.3084  16.0509  28.3389  30.9544  31.0825
    34.1457  35.7820  42.8189  50.5158  52.4608

          k =-0.2727 0.4545-0.2727 (    71 PWs)   bands (ev):

  -170.9117 -63.9752 -52.9965 -47.6812  17.8376  26.2285  26.2551  30.7648
    33.4210  33.5385  39.1457  49.4525  49.4862

          k =-0.3636 0.5455-0.3636 (    73 PWs)   bands (ev):

  -171.4693 -63.0050 -54.1575 -53.9362  20.3285  25.0124  25.2349  25.3753
    31.7916  32.3501  38.0656  48.6598  48.8739

          k = 0.5455-0.3636 0.5455 (    73 PWs)   bands (ev):

  -171.3251 -62.7792 -54.0911 -53.9305  21.4975  23.5263  25.3453  27.0173
    31.6188  32.4516  36.0374  48.2614  48.4712

          k = 0.4545-0.2727 0.4545 (    73 PWs)   bands (ev):

  -171.4834 -62.9600 -54.1612 -53.9480  19.5764  25.1126  25.1489  26.0850
    31.6244  32.6500  38.3991  48.5517  49.0758

          k = 0.3636-0.1818 0.3636 (    72 PWs)   bands (ev):

  -171.2180 -64.1446 -52.9065 -50.4530  17.1849  26.8996  26.9783  28.6334
    32.5656  33.6306  40.3369  49.7569  50.7546

          k = 0.2727-0.0909 0.2727 (    66 PWs)   bands (ev):

  -169.5337 -53.8930 -47.3978 -45.9580  15.5703  29.1459  32.7458  35.1705
    35.5222  36.2973  46.2420  51.3769  55.0338

          k = 0.1818-0.0000 0.1818 (    63 PWs)   bands (ev):

  -169.0179 -48.5475 -45.4747 -45.3732  14.4054  32.3233  33.6805  34.9397
    35.5812  36.7815  50.4781  51.0417  54.3711

          k = 0.0000 0.3636 0.0000 (    64 PWs)   bands (ev):

  -169.1383 -48.5750 -48.5750 -46.1581  15.1211  32.2080  33.6904  33.6904
    33.7178  34.3964  50.9189  52.8898  55.1307

          k =-0.0909 0.4545-0.0909 (    68 PWs)   bands (ev):

  -169.9576 -59.3033 -49.4586 -45.9872  16.3297  28.8591  30.8930  31.0728
    33.1777  36.2576  43.8108  51.5614  51.8442

          k =-0.1818 0.5455-0.1818 (    73 PWs)   bands (ev):

  -171.3354 -65.3279 -53.6038 -51.3928  17.9282  25.9001  26.4867  28.8188
    32.0772  32.8360  38.6155  48.0623  48.7890

          k =-0.2727 0.6364-0.2727 (    72 PWs)   bands (ev):

  -170.8540 -62.2728 -53.5626 -50.5307  20.2600  25.9770  25.9990  28.6354
    32.7344  34.1505  37.8940  47.4217  48.5599

          k = 0.6364-0.2727 0.6364 (    74 PWs)   bands (ev):

  -171.3517 -62.5822 -55.3780 -54.5049  22.1684  24.1753  25.2120  28.6037
    31.5866  31.8279  34.9944  45.6664  48.2802

          k = 0.5455-0.1818 0.5455 (    73 PWs)   bands (ev):

  -171.1092 -61.6989 -54.2894 -53.4586  20.9460  25.2699  27.3791  28.3207
    30.2027  32.6619  38.9392  45.2468  49.7834

          k = 0.4545-0.0909 0.4545 (    72 PWs)   bands (ev):

  -170.9895 -64.0972 -52.1283 -50.0300  18.5541  25.0075  29.6270  29.7560
    30.6996  35.5545  40.4793  45.2036  50.8708

          k = 0.3636 0.0000 0.3636 (    71 PWs)   bands (ev):

  -170.8857 -61.7298 -54.3302 -47.2618  16.7136  26.5837  28.4449  31.3359
    32.8597  35.6575  41.7048  47.7698  51.3933

          k = 0.0000 0.5455 0.0000 (    76 PWs)   bands (ev):

  -172.3467 -66.3341 -56.6723 -56.6723  17.0224  25.4005  25.4005  28.0226
    29.4164  29.8676  43.2241  43.3842  43.3842

          k =-0.0909 0.6364-0.0909 (    74 PWs)   bands (ev):

  -171.5668 -66.3435 -53.4927 -53.3020  18.5465  25.4731  25.5683  28.0415
    29.2336  35.8085  40.8796  43.4882  43.5885

          k =-0.1818 0.7273-0.1818 (    76 PWs)   bands (ev):

  -172.0260 -65.4839 -57.1900 -57.0894  20.5776  24.4909  25.8948  27.7348
    29.0819  29.4420  37.1102  41.8761  43.3424

          k = 0.7273-0.1818 0.7273 (    74 PWs)   bands (ev):

  -171.3014 -62.9651 -56.3551 -53.0461  22.6357  24.9437  25.0592  27.4558
    30.9296  33.1213  36.7655  43.7886  45.2745

          k = 0.6364-0.0909 0.6364 (    72 PWs)   bands (ev):

  -170.4350 -56.0986 -55.2631 -52.7010  23.2700  26.2204  27.9977  29.6084
    30.2275  35.4033  38.6753  44.6217  47.0193

          k = 0.5455 0.0000 0.5455 (    73 PWs)   bands (ev):

  -170.9362 -59.9471 -54.9668 -52.9303  20.9706  26.2140  27.6023  27.9329
    33.4134  34.8373  38.3456  43.5054  49.1081

          k = 0.0000 0.7273 0.0000 (    76 PWs)   bands (ev):

  -172.1780 -66.7715 -56.6663 -56.6663  19.5904  25.2979  25.2979  25.9695
    28.8063  29.8475  39.9877  42.0546  42.0546

          k =-0.0909 0.8182-0.0909 (    75 PWs)   bands (ev):

  -171.5561 -63.7829 -57.1325 -55.5696  21.6933  24.7285  24.7443  28.0931
    29.0572  29.3009  37.7827  41.3739  42.3259

          k = 0.8182-0.0909 0.8182 (    74 PWs)   bands (ev):

  -171.1919 -58.5649 -57.0666 -56.0824  23.5030  25.2693  26.9126  28.5795
    29.3795  32.3783  34.3565  42.7640  43.1630

          k = 0.7273 0.0000 0.7273 (    71 PWs)   bands (ev):

  -170.1878 -57.8912 -52.6577 -50.7839  25.2836  26.1546  26.1681  29.3527
    33.7133  34.3899  35.5031  44.0422  46.4553

          k = 0.0000 0.9091 0.0000 (    68 PWs)   bands (ev):

  -169.0070 -52.8922 -48.8683 -48.8683  24.0056  28.3188  28.5796  30.7075
    30.7075  39.5800  41.1725  41.5507  41.5507

          k = 0.9091-0.0000 0.9091 (    70 PWs)   bands (ev):

  -169.7749 -54.8310 -52.6988 -50.7923  24.6649  25.9121  28.3669  29.2480
    32.4588  36.2865  36.4140  42.1348  42.6488

          k =-0.1818 0.3636 0.0000 (    68 PWs)   bands (ev):

  -170.0774 -56.6925 -51.3982 -45.8753  15.5723  29.3074  30.2634  32.5680
    34.7071  35.3111  45.8646  52.2781  52.4277

          k =-0.2727 0.4545-0.0909 (    71 PWs)   bands (ev):

  -170.8467 -62.9758 -51.9853 -48.6931  17.0879  26.9891  28.4581  30.6143
    33.0857  33.7893  41.1553  48.3977  51.0940

          k =-0.3636 0.5455-0.1818 (    70 PWs)   bands (ev):

  -170.3044 -59.9756 -51.6454 -48.1104  19.3034  26.8220  28.5810  31.0572
    32.4628  34.7587  40.0448  48.5594  50.3132

          k = 0.5455-0.3636 0.7273 (    75 PWs)   bands (ev):

  -171.7879 -62.7583 -59.6765 -54.1749  21.1877  24.2523  25.0474  26.8378
    29.8892  30.1557  35.6382  45.2587  48.7458

          k =-0.1818 0.5455 0.0000 (    74 PWs)   bands (ev):

  -171.6425 -65.3232 -56.2729 -51.9008  17.4589  25.5047  26.5860  28.2845
    30.2889  31.9426  41.2858  44.3025  47.9626

          k =-0.2727 0.6364-0.0909 (    74 PWs)   bands (ev):

  -171.5235 -65.8454 -55.0515 -52.3887  19.2705  24.7469  26.7406  28.6682
    29.6193  32.6696  39.2328  43.4385  48.0486

          k = 0.6364-0.2727 0.8182 (    73 PWs)   bands (ev):

  -170.9988 -62.4308 -55.4326 -51.4301  21.6523  25.3159  25.6081  28.2392
    31.0825  34.3313  37.0792  44.6743  47.8193

          k = 0.5455-0.1818 0.7273 (    71 PWs)   bands (ev):

  -170.1875 -57.8909 -52.8751 -50.7507  23.2366  25.3829  28.0781  28.4936
    31.9060  36.4393  39.8871  45.1828  48.8858

          k = 0.4545-0.0909 0.6364 (    73 PWs)   bands (ev):

  -171.0538 -62.8045 -53.9822 -52.3388  20.8759  25.4860  27.3410  29.4991
    29.8955  33.6238  38.9947  43.6287  49.4756

          k = 0.3636 0.0000 0.5455 (    73 PWs)   bands (ev):

  -171.3068 -64.5449 -55.6805 -49.5393  18.5695  24.7417  28.0576  29.1146
    31.5213  34.8006  39.7411  44.2977  49.9797

          k =-0.1818 0.7273 0.0000 (    76 PWs)   bands (ev):

  -172.1176 -67.1684 -56.7060 -56.6704  19.9877  24.3690  24.9386  26.2742
    28.8371  29.4960  38.6614  42.2847  42.8952

          k = 0.7273-0.1818 0.9091 (    75 PWs)   bands (ev):

  -171.5103 -61.1565 -58.1499 -56.3148  22.0699  24.9710  26.7792  26.8167
    29.3427  32.2207  34.7758  41.9531  44.1677

          k = 0.6364-0.0909 0.8182 (    72 PWs)   bands (ev):

  -170.4857 -56.9289 -54.7245 -53.0493  24.3524  25.5650  26.5298  29.4994
    31.2650  34.2022  36.9048  43.7932  46.6763

          k = 0.5455 0.0000 0.7273 (    71 PWs)   bands (ev):

  -170.0597 -56.2309 -52.9369 -51.6110  23.8501  26.6711  27.3859  28.6958
    30.6501  36.9554  40.0160  42.2242  48.6318

          k = 0.8182-0.0909 1.0000 (    68 PWs)   bands (ev):

  -169.0977 -54.8501 -48.9105 -47.1117  24.2680  28.0308  28.3004  33.1654
    34.0633  34.5135  38.5624  42.3876  44.7722

          k = 0.7273 0.0000 0.9091 (    73 PWs)   bands (ev):

  -170.8315 -57.8962 -55.8489 -54.5461  25.3138  25.5108  26.6858  28.5130
    29.2355  33.6677  34.2308  40.8833  45.3964

          k = 0.6364-0.2727 1.0000 (    74 PWs)   bands (ev):

  -171.1917 -61.2338 -57.2316 -52.9727  21.5376  25.5988  26.7390  29.5785
    30.2751  33.1403  37.4532  42.9787  45.2257

          k = 0.5455-0.1818 0.9091 (    72 PWs)   bands (ev):

  -170.4476 -57.2474 -54.2191 -52.9977  23.7083  25.6225  26.6422  28.8727
    31.3872  35.9641  38.2510  42.7389  47.5794

          k = 0.6364-0.0909 1.0000 (    74 PWs)   bands (ev):

  -171.0592 -61.2460 -57.5862 -52.3817  23.3706  25.1758  26.9470  28.5322
    30.5174  33.6944  35.6664  40.0981  45.7941

          k = 0.5455 0.0000 0.9091 (    72 PWs)   bands (ev):

  -170.3860 -59.0495 -52.9285 -52.1307  25.3100  26.5783  26.6656  28.5757
    29.9599  34.2317  38.8796  41.5780  48.3127

     the Fermi energy is    33.0845 ev

!    total energy              =    -365.73916230 Ry
     Harris-Foulkes estimate   =    -365.73916230 Ry
     estimated scf accuracy    <          3.2E-09 Ry

     total all-electron energy =     -2978.171270 Ry

     The total energy is the sum of the following terms:

     one-electron contribution =     -60.60577018 Ry
     hartree contribution      =      33.19114972 Ry
     xc contribution           =     -25.01467847 Ry
     ewald contribution        =    -223.38275371 Ry
     one-center paw contrib.   =     -89.92655378 Ry
     smearing contrib. (-TS)   =      -0.00055588 Ry

     convergence has been achieved in   7 iterations

     negative rho (up, down):  2.815E-03 0.000E+00

     Forces acting on atoms (cartesian axes, Ry/au):

     atom    1 type  1   force =     0.00000000    0.00000000    0.00000000

     Total force =     0.000000     Total SCF correction =     0.000000


     Computing stress (Cartesian axis) and pressure


     negative rho (up, down):  2.815E-03 0.000E+00
          total   stress  (Ry/bohr**3)                   (kbar)     P=********
  -0.92308900   0.00000000   0.00000000    -135791.06      0.00      0.00
   0.00000000  -0.92308900  -0.00000000          0.00-135791.06     -0.00
   0.00000000  -0.00000000  -0.92308900          0.00     -0.00-135791.06


     Writing output data file Ni.save/

     init_run     :      0.21s CPU      0.24s WALL (       1 calls)
     electrons    :      2.20s CPU      2.50s WALL (       1 calls)
     forces       :      0.02s CPU      0.02s WALL (       1 calls)
     stress       :      0.04s CPU      0.04s WALL (       1 calls)

     Called by init_run:
     wfcinit      :      0.04s CPU      0.05s WALL (       1 calls)
     potinit      :      0.09s CPU      0.11s WALL (       1 calls)
     hinit0       :      0.07s CPU      0.07s WALL (       1 calls)

     Called by electrons:
     c_bands      :      1.37s CPU      1.54s WALL (       7 calls)
     sum_band     :      0.13s CPU      0.17s WALL (       7 calls)
     v_of_rho     :      0.00s CPU      0.01s WALL (       8 calls)
     newd         :      0.01s CPU      0.01s WALL (       8 calls)
     PAW_pot      :      0.77s CPU      0.88s WALL (       8 calls)
     mix_rho      :      0.00s CPU      0.00s WALL (       7 calls)

     Called by c_bands:
     init_us_2    :      0.01s CPU      0.02s WALL (     952 calls)
     cegterg      :      1.33s CPU      1.50s WALL (     392 calls)

     Called by sum_band:
     sum_band:bec :      0.00s CPU      0.01s WALL (     392 calls)
     addusdens    :      0.00s CPU      0.00s WALL (       7 calls)

     Called by *egterg:
     h_psi        :      0.68s CPU      0.78s WALL (    1293 calls)
     s_psi        :      0.02s CPU      0.02s WALL (    1293 calls)
     g_psi        :      0.00s CPU      0.00s WALL (     845 calls)
     cdiaghg      :      0.50s CPU      0.55s WALL (    1237 calls)

     Called by h_psi:
     h_psi:pot    :      0.68s CPU      0.77s WALL (    1293 calls)
     h_psi:calbec :      0.04s CPU      0.04s WALL (    1293 calls)
     vloc_psi     :      0.61s CPU      0.70s WALL (    1293 calls)
     add_vuspsi   :      0.02s CPU      0.02s WALL (    1293 calls)

     General routines
     calbec       :      0.06s CPU      0.07s WALL (    1965 calls)
     fft          :      0.00s CPU      0.00s WALL (     114 calls)
     ffts         :      0.00s CPU      0.00s WALL (       7 calls)
     fftw         :      0.64s CPU      0.75s WALL (   32672 calls)

     Parallel routines
     fft_scatt_xy :      0.07s CPU      0.08s WALL (   32793 calls)
     fft_scatt_yz :      0.34s CPU      0.39s WALL (   32793 calls)

     PWSCF        :     3.28s CPU         3.69s WALL


   This run was terminated on:  22:24:13  26Mar2024            

=------------------------------------------------------------------------------=
   JOB DONE.
=------------------------------------------------------------------------------=
