
     Program PWSCF v.6.3MaX starts on 26Mar2024 at 22:50:26 

     This program is part of the open-source Quantum ESPRESSO suite
     for quantum simulation of materials; please cite
         "P. Giannozzi et al., J. Phys.:Condens. Matter 21 395502 (2009);
         "P. Giannozzi et al., J. Phys.:Condens. Matter 29 465901 (2017);
          URL http://www.quantum-espresso.org", 
     in publications or presentations arising from this work. More details at
     http://www.quantum-espresso.org/quote

     Parallel version (MPI), running on     5 processors

     MPI processes distributed on     1 nodes
     R & G space division:  proc/nbgrp/npool/nimage =       5
     Waiting for input...
     Reading input from standard input

     Current dimensions of program PWSCF are:
     Max number of different atomic species (ntypx) = 10
     Max number of k-points (npk) =  40000
     Max angular momentum in pseudopotentials (lmaxx) =  3

     Subspace diagonalization in iterative solution of the eigenvalue problem:
     a serial algorithm will be used


     Parallelization info
     --------------------
     sticks:   dense  smooth     PW     G-vecs:    dense   smooth      PW
     Min          85      85     27                 1163     1163     213
     Max          87      87     28                 1164     1164     214
     Sum         433     433    139                 5817     5817    1067



     bravais-lattice index     =            2
     lattice parameter (alat)  =       6.6500  a.u.
     unit-cell volume          =      73.5199 (a.u.)^3
     number of atoms/cell      =            1
     number of atomic types    =            1
     number of electrons       =        18.00
     number of Kohn-Sham states=           13
     kinetic-energy cutoff     =      70.0000  Ry
     charge density cutoff     =     280.0000  Ry
     convergence threshold     =      1.0E-08
     mixing beta               =       0.7000
     number of iterations used =            8  plain     mixing
     Exchange-correlation      = PBESOL ( 1  4 10  8 0 0)

     celldm(1)=   6.650000  celldm(2)=   0.000000  celldm(3)=   0.000000
     celldm(4)=   0.000000  celldm(5)=   0.000000  celldm(6)=   0.000000

     crystal axes: (cart. coord. in units of alat)
               a(1) = (  -0.500000   0.000000   0.500000 )  
               a(2) = (   0.000000   0.500000   0.500000 )  
               a(3) = (  -0.500000   0.500000   0.000000 )  

     reciprocal axes: (cart. coord. in units 2 pi/alat)
               b(1) = ( -1.000000 -1.000000  1.000000 )  
               b(2) = (  1.000000  1.000000  1.000000 )  
               b(3) = ( -1.000000  1.000000 -1.000000 )  


     PseudoPot. # 1 for Ni read from file:
     /home/lorenzo/pseudos/Ni/Ni.pbesol-spn-rrkjus_psl.1.0.0.UPF
     MD5 check sum: 6fc0a587bf949a08f2faed986b854013
     Pseudo is Ultrasoft + core correction, Zval = 18.0
     Generated using "atomic" code by A. Dal Corso v.6.3
     Using radial grid of 1195 points,  6 beta functions with: 
                l(1) =   0
                l(2) =   0
                l(3) =   1
                l(4) =   1
                l(5) =   2
                l(6) =   2
     Q(r) pseudized with 0 coefficients 


     atomic species   valence    mass     pseudopotential
        Ni            18.00    58.69340     Ni( 1.00)

     48 Sym. Ops., with inversion, found



   Cartesian axes

     site n.     atom                  positions (alat units)
         1           Ni  tau(   1) = (   0.0000000   0.0000000   0.0000000  )

     number of k points=    29  gaussian smearing, width (Ry)=  0.0100
                       cart. coord. in units 2pi/alat
        k(    1) = (   0.0000000   0.0000000   0.0000000), wk =   0.0039062
        k(    2) = (  -0.1250000   0.1250000  -0.1250000), wk =   0.0312500
        k(    3) = (  -0.2500000   0.2500000  -0.2500000), wk =   0.0312500
        k(    4) = (  -0.3750000   0.3750000  -0.3750000), wk =   0.0312500
        k(    5) = (   0.5000000  -0.5000000   0.5000000), wk =   0.0156250
        k(    6) = (   0.0000000   0.2500000   0.0000000), wk =   0.0234375
        k(    7) = (  -0.1250000   0.3750000  -0.1250000), wk =   0.0937500
        k(    8) = (  -0.2500000   0.5000000  -0.2500000), wk =   0.0937500
        k(    9) = (   0.6250000  -0.3750000   0.6250000), wk =   0.0937500
        k(   10) = (   0.5000000  -0.2500000   0.5000000), wk =   0.0937500
        k(   11) = (   0.3750000  -0.1250000   0.3750000), wk =   0.0937500
        k(   12) = (   0.2500000   0.0000000   0.2500000), wk =   0.0468750
        k(   13) = (   0.0000000   0.5000000   0.0000000), wk =   0.0234375
        k(   14) = (  -0.1250000   0.6250000  -0.1250000), wk =   0.0937500
        k(   15) = (   0.7500000  -0.2500000   0.7500000), wk =   0.0937500
        k(   16) = (   0.6250000  -0.1250000   0.6250000), wk =   0.0937500
        k(   17) = (   0.5000000   0.0000000   0.5000000), wk =   0.0468750
        k(   18) = (   0.0000000   0.7500000   0.0000000), wk =   0.0234375
        k(   19) = (   0.8750000  -0.1250000   0.8750000), wk =   0.0937500
        k(   20) = (   0.7500000   0.0000000   0.7500000), wk =   0.0468750
        k(   21) = (   0.0000000  -1.0000000   0.0000000), wk =   0.0117188
        k(   22) = (  -0.2500000   0.5000000   0.0000000), wk =   0.0937500
        k(   23) = (   0.6250000  -0.3750000   0.8750000), wk =   0.1875000
        k(   24) = (   0.5000000  -0.2500000   0.7500000), wk =   0.0937500
        k(   25) = (   0.7500000  -0.2500000   1.0000000), wk =   0.0937500
        k(   26) = (   0.6250000  -0.1250000   0.8750000), wk =   0.1875000
        k(   27) = (   0.5000000   0.0000000   0.7500000), wk =   0.0937500
        k(   28) = (  -0.2500000  -1.0000000   0.0000000), wk =   0.0468750
        k(   29) = (  -0.5000000  -1.0000000   0.0000000), wk =   0.0234375

     Dense  grid:     5817 G-vectors     FFT dimensions: (  25,  25,  25)

     Estimated max dynamical RAM per process >       6.59 MB

     Estimated total dynamical RAM >      32.97 MB

     Check: negative/imaginary core charge=   -0.000011    0.000000

     Initial potential from superposition of free atoms

     starting charge   17.99977, renormalised to   18.00000
     Starting wfcs are   10 randomized atomic wfcs +    3 random wfcs

     total cpu time spent up to now is        1.0 secs

     Self-consistent Calculation

     iteration #  1     ecut=    70.00 Ry     beta= 0.70
     Davidson diagonalization with overlap
     ethr =  1.00E-02,  avg # of iterations =  3.7

     Threshold (ethr) on eigenvalues was too large:
     Diagonalizing with lowered threshold

     Davidson diagonalization with overlap
     ethr =  9.06E-06,  avg # of iterations =  3.2

     total cpu time spent up to now is        1.7 secs

     total energy              =    -339.38825383 Ry
     Harris-Foulkes estimate   =    -339.38882828 Ry
     estimated scf accuracy    <       0.00159532 Ry

     iteration #  2     ecut=    70.00 Ry     beta= 0.70
     Davidson diagonalization with overlap
     ethr =  8.86E-06,  avg # of iterations =  2.0

     total cpu time spent up to now is        2.0 secs

     total energy              =    -339.38786030 Ry
     Harris-Foulkes estimate   =    -339.38903381 Ry
     estimated scf accuracy    <       0.00276623 Ry

     iteration #  3     ecut=    70.00 Ry     beta= 0.70
     Davidson diagonalization with overlap
     ethr =  8.86E-06,  avg # of iterations =  2.1

     total cpu time spent up to now is        2.3 secs

     total energy              =    -339.38847419 Ry
     Harris-Foulkes estimate   =    -339.38864393 Ry
     estimated scf accuracy    <       0.00056201 Ry

     iteration #  4     ecut=    70.00 Ry     beta= 0.70
     Davidson diagonalization with overlap
     ethr =  3.12E-06,  avg # of iterations =  1.2

     total cpu time spent up to now is        2.6 secs

     total energy              =    -339.38855521 Ry
     Harris-Foulkes estimate   =    -339.38855501 Ry
     estimated scf accuracy    <       0.00000055 Ry

     iteration #  5     ecut=    70.00 Ry     beta= 0.70
     Davidson diagonalization with overlap
     ethr =  3.08E-09,  avg # of iterations =  3.0

     total cpu time spent up to now is        3.1 secs

     total energy              =    -339.38855669 Ry
     Harris-Foulkes estimate   =    -339.38855674 Ry
     estimated scf accuracy    <       0.00000015 Ry

     iteration #  6     ecut=    70.00 Ry     beta= 0.70
     Davidson diagonalization with overlap
     ethr =  8.31E-10,  avg # of iterations =  1.0

     total cpu time spent up to now is        3.3 secs

     total energy              =    -339.38855669 Ry
     Harris-Foulkes estimate   =    -339.38855670 Ry
     estimated scf accuracy    <       0.00000002 Ry

     iteration #  7     ecut=    70.00 Ry     beta= 0.70
     Davidson diagonalization with overlap
     ethr =  9.18E-11,  avg # of iterations =  1.0

     total cpu time spent up to now is        3.6 secs

     End of self-consistent calculation

          k = 0.0000 0.0000 0.0000 (   725 PWs)   bands (ev):

   -85.1995 -45.5971 -45.5971 -45.5971   8.6046  15.6960  15.6960  15.6960
    16.8185  16.8185  41.2828  45.2009  45.2009

          k =-0.1250 0.1250-0.1250 (   724 PWs)   bands (ev):

   -85.1944 -45.6301 -45.6019 -45.6019   9.2095  15.5402  15.8184  15.8184
    16.7753  16.7753  38.4179  42.3342  44.1152

          k =-0.2500 0.2500-0.2500 (   733 PWs)   bands (ev):

   -85.1824 -45.7095 -45.6135 -45.6135  10.8574  15.3095  15.9037  15.9037
    16.9118  16.9118  32.1406  41.3877  42.9992

          k =-0.3750 0.3750-0.3750 (   739 PWs)   bands (ev):

   -85.1704 -45.7879 -45.6252 -45.6252  12.6138  15.7461  15.7461  15.9189
    17.3389  17.3389  26.5549  40.2701  42.4466

          k = 0.5000-0.5000 0.5000 (   718 PWs)   bands (ev):

   -85.1650 -45.8198 -45.6294 -45.6294  13.0822  15.6553  15.6553  17.3304
    17.5584  17.5584  23.5691  39.7888  42.3228

          k = 0.0000 0.2500 0.0000 (   717 PWs)   bands (ev):

   -85.1926 -45.6289 -45.6093 -45.6093   9.4083  15.4033  15.9269  15.9269
    16.5565  16.9227  39.9942  41.2957  41.2957

          k =-0.1250 0.3750-0.1250 (   722 PWs)   bands (ev):

   -85.1829 -45.6878 -45.6226 -45.6192  10.7096  15.1080  15.9705  16.1199
    16.6238  17.0772  34.5994  39.4550  39.9713

          k =-0.2500 0.5000-0.2500 (   736 PWs)   bands (ev):

   -85.1711 -45.7625 -45.6347 -45.6345  12.5453  15.0957  15.6538  16.0456
    17.4205  17.5107  28.6259  38.6090  38.7091

          k = 0.6250-0.3750 0.6250 (   726 PWs)   bands (ev):

   -85.1635 -45.8064 -45.6491 -45.6370  13.3902  15.3470  15.9003  15.9691
    17.5730  19.1178  24.1468  36.9880  39.2468

          k = 0.5000-0.2500 0.5000 (   730 PWs)   bands (ev):

   -85.1653 -45.7957 -45.6534 -45.6299  13.2790  15.4492  15.7692  15.9003
    17.2772  18.7082  25.3492  35.9617  41.1836

          k = 0.3750-0.1250 0.3750 (   733 PWs)   bands (ev):

   -85.1751 -45.7379 -45.6438 -45.6164  11.9729  15.1252  15.7414  16.0707
    16.7153  17.6305  30.5426  35.9389  42.8909

          k = 0.2500 0.0000 0.2500 (   737 PWs)   bands (ev):

   -85.1872 -45.6692 -45.6228 -45.6050  10.1703  15.2965  15.9180  16.0245
    16.5306  17.0306  36.3977  37.2413  44.8187

          k = 0.0000 0.5000 0.0000 (   729 PWs)   bands (ev):

   -85.1767 -45.7049 -45.6390 -45.6390  11.5230  14.7286  16.1479  16.5610
    16.5610  17.1785  36.9074  36.9074  37.7027

          k =-0.1250 0.6250-0.1250 (   724 PWs)   bands (ev):

   -85.1669 -45.7525 -45.6585 -45.6523  12.8681  14.4713  15.8866  16.6934
    17.4598  17.6549  31.5416  34.8217  35.6108

          k = 0.7500-0.2500 0.7500 (   724 PWs)   bands (ev):

   -85.1595 -45.7824 -45.6869 -45.6552  13.8332  14.5272  15.6527  16.5427
    17.6112  20.1347  26.2277  32.2723  35.8231

          k = 0.6250-0.1250 0.6250 (   722 PWs)   bands (ev):

   -85.1588 -45.7762 -45.7086 -45.6457  14.1509  14.7512  15.4201  16.4147
    17.3010  21.3574  24.8006  30.6598  37.5788

          k = 0.5000 0.0000 0.5000 (   716 PWs)   bands (ev):

   -85.1650 -45.7568 -45.6914 -45.6295  13.5443  14.9855  15.2610  16.3609
    16.7829  18.9941  29.2824  30.6137  40.5647

          k = 0.0000 0.7500 0.0000 (   725 PWs)   bands (ev):

   -85.1606 -45.7785 -45.6684 -45.6684  13.1386  14.0955  17.3480  17.3480
    17.4403  17.5203  31.1426  33.6851  33.6851

          k = 0.8750-0.1250 0.8750 (   730 PWs)   bands (ev):

   -85.1557 -45.7930 -45.6904 -45.6733  13.4678  14.0337  16.7838  17.2668
    17.6629  20.2996  28.4850  29.7575  33.3722

          k = 0.7500 0.0000 0.7500 (   724 PWs)   bands (ev):

   -85.1549 -45.7717 -45.7272 -45.6639  13.9842  14.2813  15.9417  16.9748
    17.4748  23.5008  25.0541  27.7084  34.7964

          k = 0.0000-1.0000 0.0000 (   740 PWs)   bands (ev):

   -85.1542 -45.8081 -45.6812 -45.6812  13.2504  13.8431  17.5498  17.7387
    17.7387  20.0717  27.0334  32.4529  32.4529

          k =-0.2500 0.5000 0.0000 (   733 PWs)   bands (ev):

   -85.1734 -45.7292 -45.6545 -45.6278  12.1488  14.8252  15.6716  16.5753
    16.6291  17.6647  32.9859  33.6782  39.0404

          k = 0.6250-0.3750 0.8750 (   729 PWs)   bands (ev):

   -85.1636 -45.7717 -45.6793 -45.6411  13.6218  14.8528  15.3093  16.4142
    17.2334  19.0991  27.5837  33.1102  36.2005

          k = 0.5000-0.2500 0.7500 (   722 PWs)   bands (ev):

   -85.1595 -45.7898 -45.6869 -45.6483  13.9998  14.8393  15.5150  16.2848
    17.4777  21.1867  23.9314  33.6675  34.5475

          k = 0.7500-0.2500 1.0000 (   728 PWs)   bands (ev):

   -85.1596 -45.7741 -45.6864 -45.6637  13.6146  14.3239  15.8253  17.1479
    17.3442  19.4048  30.4553  31.0800  32.0165

          k = 0.6250-0.1250 0.8750 (   721 PWs)   bands (ev):

   -85.1555 -45.7698 -45.7185 -45.6688  14.1228  14.4753  15.4887  16.8229
    17.5788  22.5839  25.8149  29.4679  31.6906

          k = 0.5000 0.0000 0.7500 (   726 PWs)   bands (ev):

   -85.1572 -45.7576 -45.7290 -45.6575  14.4080  14.7122  15.0011  16.6721
    17.3520  21.7506  26.5833  28.8496  33.4826

          k =-0.2500-1.0000 0.0000 (   730 PWs)   bands (ev):

   -85.1540 -45.7893 -45.6996 -45.6817  13.6473  14.1192  16.4046  17.2064
    17.7397  22.0829  27.2334  29.4493  30.5018

          k =-0.5000-1.0000 0.0000 (   724 PWs)   bands (ev):

   -85.1539 -45.7444 -45.7444 -45.6821  14.1676  14.9708  14.9708  16.7335
    17.7402  25.4967  25.4967  27.7519  28.7884

     the Fermi energy is    17.5703 ev

!    total energy              =    -339.38855669 Ry
     Harris-Foulkes estimate   =    -339.38855669 Ry
     estimated scf accuracy    <          9.4E-11 Ry

     The total energy is the sum of the following terms:

     one-electron contribution =    -186.59854365 Ry
     hartree contribution      =     104.51308472 Ry
     xc contribution           =     -33.91757436 Ry
     ewald contribution        =    -223.38275369 Ry
     smearing contrib. (-TS)   =      -0.00276972 Ry

     convergence has been achieved in   7 iterations

     Forces acting on atoms (cartesian axes, Ry/au):

     atom    1 type  1   force =     0.00000000    0.00000000    0.00000000

     Total force =     0.000000     Total SCF correction =     0.000000


     Computing stress (Cartesian axis) and pressure

          total   stress  (Ry/bohr**3)                   (kbar)     P= -143.08
  -0.00097263   0.00000000   0.00000000       -143.08      0.00      0.00
   0.00000000  -0.00097263  -0.00000000          0.00   -143.08     -0.00
   0.00000000  -0.00000000  -0.00097263          0.00     -0.00   -143.08


     Writing output data file Ni.save/

     init_run     :      0.30s CPU      0.32s WALL (       1 calls)
     electrons    :      2.44s CPU      2.57s WALL (       1 calls)
     forces       :      0.04s CPU      0.04s WALL (       1 calls)
     stress       :      0.21s CPU      0.22s WALL (       1 calls)

     Called by init_run:
     wfcinit      :      0.14s CPU      0.15s WALL (       1 calls)
     potinit      :      0.01s CPU      0.01s WALL (       1 calls)
     hinit0       :      0.14s CPU      0.14s WALL (       1 calls)

     Called by electrons:
     c_bands      :      2.03s CPU      2.13s WALL (       8 calls)
     sum_band     :      0.35s CPU      0.37s WALL (       8 calls)
     v_of_rho     :      0.03s CPU      0.03s WALL (       8 calls)
     newd         :      0.04s CPU      0.05s WALL (       8 calls)
     mix_rho      :      0.00s CPU      0.00s WALL (       8 calls)

     Called by c_bands:
     init_us_2    :      0.05s CPU      0.06s WALL (     551 calls)
     cegterg      :      1.95s CPU      2.05s WALL (     232 calls)

     Called by sum_band:
     sum_band:bec :      0.00s CPU      0.00s WALL (     232 calls)
     addusdens    :      0.04s CPU      0.05s WALL (       8 calls)

     Called by *egterg:
     h_psi        :      1.49s CPU      1.57s WALL (     763 calls)
     s_psi        :      0.05s CPU      0.05s WALL (     763 calls)
     g_psi        :      0.00s CPU      0.00s WALL (     502 calls)
     cdiaghg      :      0.25s CPU      0.26s WALL (     705 calls)

     Called by h_psi:
     h_psi:pot    :      1.48s CPU      1.56s WALL (     763 calls)
     h_psi:calbec :      0.07s CPU      0.07s WALL (     763 calls)
     vloc_psi     :      1.36s CPU      1.44s WALL (     763 calls)
     add_vuspsi   :      0.05s CPU      0.05s WALL (     763 calls)

     General routines
     calbec       :      0.14s CPU      0.14s WALL (    1140 calls)
     fft          :      0.02s CPU      0.02s WALL (     115 calls)
     ffts         :      0.00s CPU      0.00s WALL (       8 calls)
     fftw         :      1.51s CPU      1.59s WALL (   18348 calls)

     Parallel routines
     fft_scatt_xy :      0.12s CPU      0.13s WALL (   18471 calls)
     fft_scatt_yz :      0.40s CPU      0.42s WALL (   18471 calls)

     PWSCF        :     3.73s CPU         3.95s WALL


   This run was terminated on:  22:50:30  26Mar2024            

=------------------------------------------------------------------------------=
   JOB DONE.
=------------------------------------------------------------------------------=
