
     Program PWSCF v.6.3MaX starts on 26Mar2024 at 22:33: 5 

     This program is part of the open-source Quantum ESPRESSO suite
     for quantum simulation of materials; please cite
         "P. Giannozzi et al., J. Phys.:Condens. Matter 21 395502 (2009);
         "P. Giannozzi et al., J. Phys.:Condens. Matter 29 465901 (2017);
          URL http://www.quantum-espresso.org", 
     in publications or presentations arising from this work. More details at
     http://www.quantum-espresso.org/quote

     Parallel version (MPI), running on     5 processors

     MPI processes distributed on     1 nodes
     R & G space division:  proc/nbgrp/npool/nimage =       5
     Waiting for input...
     Reading input from standard input

     Current dimensions of program PWSCF are:
     Max number of different atomic species (ntypx) = 10
     Max number of k-points (npk) =  40000
     Max angular momentum in pseudopotentials (lmaxx) =  3

     Subspace diagonalization in iterative solution of the eigenvalue problem:
     a serial algorithm will be used


     Parallelization info
     --------------------
     sticks:   dense  smooth     PW     G-vecs:    dense   smooth      PW
     Min          42      42     16                  416      416      91
     Max          43      43     18                  418      418      92
     Sum         211     211     85                 2085     2085     459



     bravais-lattice index     =            2
     lattice parameter (alat)  =       6.6500  a.u.
     unit-cell volume          =      73.5199 (a.u.)^3
     number of atoms/cell      =            1
     number of atomic types    =            1
     number of electrons       =        18.00
     number of Kohn-Sham states=           13
     kinetic-energy cutoff     =      35.0000  Ry
     charge density cutoff     =     140.0000  Ry
     convergence threshold     =      1.0E-08
     mixing beta               =       0.7000
     number of iterations used =            8  plain     mixing
     Exchange-correlation      = PBESOL ( 1  4 10  8 0 0)

     celldm(1)=   6.650000  celldm(2)=   0.000000  celldm(3)=   0.000000
     celldm(4)=   0.000000  celldm(5)=   0.000000  celldm(6)=   0.000000

     crystal axes: (cart. coord. in units of alat)
               a(1) = (  -0.500000   0.000000   0.500000 )  
               a(2) = (   0.000000   0.500000   0.500000 )  
               a(3) = (  -0.500000   0.500000   0.000000 )  

     reciprocal axes: (cart. coord. in units 2 pi/alat)
               b(1) = ( -1.000000 -1.000000  1.000000 )  
               b(2) = (  1.000000  1.000000  1.000000 )  
               b(3) = ( -1.000000  1.000000 -1.000000 )  


     PseudoPot. # 1 for Ni read from file:
     /home/lorenzo/pseudos/Ni/Ni.pbesol-spn-rrkjus_psl.1.0.0.UPF
     MD5 check sum: 6fc0a587bf949a08f2faed986b854013
     Pseudo is Ultrasoft + core correction, Zval = 18.0
     Generated using "atomic" code by A. Dal Corso v.6.3
     Using radial grid of 1195 points,  6 beta functions with: 
                l(1) =   0
                l(2) =   0
                l(3) =   1
                l(4) =   1
                l(5) =   2
                l(6) =   2
     Q(r) pseudized with 0 coefficients 


     atomic species   valence    mass     pseudopotential
        Ni            18.00    58.69340     Ni( 1.00)

     48 Sym. Ops., with inversion, found



   Cartesian axes

     site n.     atom                  positions (alat units)
         1           Ni  tau(   1) = (   0.0000000   0.0000000   0.0000000  )

     number of k points=    20  gaussian smearing, width (Ry)=  0.0100
                       cart. coord. in units 2pi/alat
        k(    1) = (   0.0000000   0.0000000   0.0000000), wk =   0.0058309
        k(    2) = (  -0.1428571   0.1428571  -0.1428571), wk =   0.0466472
        k(    3) = (  -0.2857143   0.2857143  -0.2857143), wk =   0.0466472
        k(    4) = (  -0.4285714   0.4285714  -0.4285714), wk =   0.0466472
        k(    5) = (   0.0000000   0.2857143   0.0000000), wk =   0.0349854
        k(    6) = (  -0.1428571   0.4285714  -0.1428571), wk =   0.1399417
        k(    7) = (  -0.2857143   0.5714286  -0.2857143), wk =   0.1399417
        k(    8) = (   0.5714286  -0.2857143   0.5714286), wk =   0.1399417
        k(    9) = (   0.4285714  -0.1428571   0.4285714), wk =   0.1399417
        k(   10) = (   0.2857143  -0.0000000   0.2857143), wk =   0.0699708
        k(   11) = (   0.0000000   0.5714286   0.0000000), wk =   0.0349854
        k(   12) = (  -0.1428571   0.7142857  -0.1428571), wk =   0.1399417
        k(   13) = (   0.7142857  -0.1428571   0.7142857), wk =   0.1399417
        k(   14) = (   0.5714286   0.0000000   0.5714286), wk =   0.0699708
        k(   15) = (   0.0000000   0.8571429   0.0000000), wk =   0.0349854
        k(   16) = (   0.8571429  -0.0000000   0.8571429), wk =   0.0699708
        k(   17) = (  -0.2857143   0.5714286   0.0000000), wk =   0.1399417
        k(   18) = (   0.5714286  -0.2857143   0.8571429), wk =   0.2798834
        k(   19) = (   0.7142857  -0.1428571   1.0000000), wk =   0.1399417
        k(   20) = (   0.5714286   0.0000000   0.8571429), wk =   0.1399417

     Dense  grid:     2085 G-vectors     FFT dimensions: (  18,  18,  18)

     Estimated max dynamical RAM per process >       2.77 MB

     Estimated total dynamical RAM >      13.87 MB

     Check: negative/imaginary core charge=   -0.000037    0.000000

     Initial potential from superposition of free atoms

     starting charge   17.99977, renormalised to   18.00000
     Starting wfcs are   10 randomized atomic wfcs +    3 random wfcs

     total cpu time spent up to now is        0.8 secs

     Self-consistent Calculation

     iteration #  1     ecut=    35.00 Ry     beta= 0.70
     Davidson diagonalization with overlap
     ethr =  1.00E-02,  avg # of iterations =  4.5

     total cpu time spent up to now is        1.0 secs

     total energy              =    -337.73063677 Ry
     Harris-Foulkes estimate   =    -337.89476318 Ry
     estimated scf accuracy    <       0.22960552 Ry

     iteration #  2     ecut=    35.00 Ry     beta= 0.70
     Davidson diagonalization with overlap
     ethr =  1.28E-03,  avg # of iterations =  2.0

     total cpu time spent up to now is        1.1 secs

     total energy              =    -337.69169778 Ry
     Harris-Foulkes estimate   =    -337.98005505 Ry
     estimated scf accuracy    <       0.78551814 Ry

     iteration #  3     ecut=    35.00 Ry     beta= 0.70
     Davidson diagonalization with overlap
     ethr =  1.28E-03,  avg # of iterations =  2.0

     total cpu time spent up to now is        1.2 secs

     total energy              =    -337.82852971 Ry
     Harris-Foulkes estimate   =    -337.83111899 Ry
     estimated scf accuracy    <       0.00864164 Ry

     iteration #  4     ecut=    35.00 Ry     beta= 0.70
     Davidson diagonalization with overlap
     ethr =  4.80E-05,  avg # of iterations =  2.1

     total cpu time spent up to now is        1.3 secs

     total energy              =    -337.82980715 Ry
     Harris-Foulkes estimate   =    -337.82979331 Ry
     estimated scf accuracy    <       0.00004643 Ry

     iteration #  5     ecut=    35.00 Ry     beta= 0.70
     Davidson diagonalization with overlap
     ethr =  2.58E-07,  avg # of iterations =  2.5

     total cpu time spent up to now is        1.5 secs

     total energy              =    -337.82981441 Ry
     Harris-Foulkes estimate   =    -337.82981451 Ry
     estimated scf accuracy    <       0.00000027 Ry

     iteration #  6     ecut=    35.00 Ry     beta= 0.70
     Davidson diagonalization with overlap
     ethr =  1.48E-09,  avg # of iterations =  2.0

     total cpu time spent up to now is        1.6 secs

     End of self-consistent calculation

          k = 0.0000 0.0000 0.0000 (   259 PWs)   bands (ev):

   -86.3630 -44.9362 -44.9362 -44.9362   8.9227  15.7356  15.7356  15.7356
    17.2960  17.2960  41.3024  45.2298  45.2298

          k =-0.1429 0.1429-0.1429 (   271 PWs)   bands (ev):

   -86.3755 -45.3290 -45.3290 -45.2921   9.6565  15.4773  15.7626  15.7626
    16.6975  16.6975  37.3854  42.2663  43.7170

          k =-0.2857 0.2857-0.2857 (   256 PWs)   bands (ev):

   -86.3382 -44.9984 -44.9984 -44.6665  11.6697  15.6479  15.9436  15.9436
    17.5578  17.5578  30.3491  41.0710  42.6010

          k =-0.4286 0.4286-0.4286 (   254 PWs)   bands (ev):

   -86.3305 -44.9802 -44.9802 -44.7628  13.1605  15.7683  15.7683  16.8131
    18.0320  18.0320  24.8979  39.9802  42.3377

          k = 0.0000 0.2857 0.0000 (   266 PWs)   bands (ev):

   -86.3637 -45.2497 -45.1039 -45.1039   9.9208  15.4177  15.9422  15.9422
    16.6365  17.0997  39.4911  40.4555  40.4555

          k =-0.1429 0.4286-0.1429 (   265 PWs)   bands (ev):

   -86.3513 -45.2863 -45.1599 -45.0051  11.5162  15.0378  15.8753  16.1612
    17.0494  17.3998  33.0703  38.5000  39.1325

          k =-0.2857 0.5714-0.2857 (   257 PWs)   bands (ev):

   -86.3338 -45.1132 -45.0561 -44.8339  13.3788  15.2846  15.6068  16.2610
    17.9712  18.4908  26.8143  37.1307  38.1207

          k = 0.5714-0.2857 0.5714 (   254 PWs)   bands (ev):

   -86.3295 -45.1706 -44.9123 -44.7751  13.7535  15.4995  15.9923  16.2417
    17.8592  19.7888  24.1443  35.4499  39.4942

          k = 0.4286-0.1429 0.4286 (   255 PWs)   bands (ev):

   -86.3334 -45.0777 -44.8978 -44.7786  12.9297  15.4898  15.7989  16.1145
    17.2326  18.4918  28.7694  34.9102  42.1376

          k = 0.2857-0.0000 0.2857 (   263 PWs)   bands (ev):

   -86.3513 -45.2468 -45.2035 -44.7641  10.8768  15.4310  15.9653  16.0406
    16.6322  17.4960  35.0520  36.1316  45.2661

          k = 0.0000 0.5714 0.0000 (   258 PWs)   bands (ev):

   -86.3362 -44.9763 -44.9624 -44.9624  12.4172  14.7425  16.5411  16.9885
    16.9885  17.4842  35.6313  35.7399  35.7399

          k =-0.1429 0.7143-0.1429 (   251 PWs)   bands (ev):

   -86.3197 -44.9733 -44.7618 -44.6782  13.6725  14.6063  16.3429  17.1806
    18.1049  18.8809  29.9991  32.4829  34.7016

          k = 0.7143-0.1429 0.7143 (   257 PWs)   bands (ev):

   -86.3279 -45.1667 -45.0737 -44.9011  14.1906  14.6171  15.9157  16.8401
    17.9062  22.1035  24.6905  30.0890  35.7122

          k = 0.5714 0.0000 0.5714 (   256 PWs)   bands (ev):

   -86.3292 -45.0997 -45.0951 -44.8159  14.3929  15.0519  15.4712  16.6679
    17.1065  20.4205  27.3066  29.6347  38.5265

          k = 0.0000 0.8571 0.0000 (   250 PWs)   bands (ev):

   -86.3151 -44.8786 -44.8786 -44.6407  13.5771  14.0532  17.9003  18.1620
    18.1620  19.0024  28.8483  32.8468  32.8468

          k = 0.8571-0.0000 0.8571 (   256 PWs)   bands (ev):

   -86.3226 -45.0589 -45.0153 -44.9443  13.5843  14.1454  17.2420  17.5428
    18.1622  21.5117  27.0288  28.9827  33.2187

          k =-0.2857 0.5714 0.0000 (   255 PWs)   bands (ev):

   -86.3297 -44.9714 -44.9205 -44.8111  13.1574  14.9018  15.7949  16.9749
    17.1325  18.5898  31.3025  32.4451  37.0467

          k = 0.5714-0.2857 0.8571 (   254 PWs)   bands (ev):

   -86.3259 -45.0889 -44.9667 -44.7897  14.3375  14.9691  15.4972  16.7159
    17.8469  20.6968  25.8107  32.1113  34.2571

          k = 0.7143-0.1429 1.0000 (   249 PWs)   bands (ev):

   -86.3140 -45.0152 -44.7046 -44.6256  14.1772  14.5417  16.2510  17.5180
    18.1927  21.2369  29.0421  29.0664  31.0003

          k = 0.5714 0.0000 0.8571 (   257 PWs)   bands (ev):

   -86.3264 -45.1485 -45.0326 -45.0057  14.3639  14.7577  15.4653  17.0196
    18.0404  24.2584  24.6836  28.2224  31.5175

     the Fermi energy is    18.0794 ev

!    total energy              =    -337.82981448 Ry
     Harris-Foulkes estimate   =    -337.82981449 Ry
     estimated scf accuracy    <          7.2E-09 Ry

     The total energy is the sum of the following terms:

     one-electron contribution =    -183.85576471 Ry
     hartree contribution      =     103.24513452 Ry
     xc contribution           =     -33.83460594 Ry
     ewald contribution        =    -223.38275373 Ry
     smearing contrib. (-TS)   =      -0.00182462 Ry

     convergence has been achieved in   6 iterations

     Forces acting on atoms (cartesian axes, Ry/au):

     atom    1 type  1   force =     0.00000000    0.00000000    0.00000000

     Total force =     0.000000     Total SCF correction =     0.000000


     Computing stress (Cartesian axis) and pressure

          total   stress  (Ry/bohr**3)                   (kbar)     P=********
  -0.10526322  -0.00000000   0.00000000     -15484.75     -0.00      0.00
  -0.00000000  -0.10526322  -0.00000000         -0.00 -15484.75     -0.00
   0.00000000   0.00000000  -0.10526322          0.00      0.00 -15484.75


     Writing output data file Ni.save/

     init_run     :      0.13s CPU      0.13s WALL (       1 calls)
     electrons    :      0.66s CPU      0.74s WALL (       1 calls)
     forces       :      0.02s CPU      0.02s WALL (       1 calls)
     stress       :      0.03s CPU      0.03s WALL (       1 calls)

     Called by init_run:
     wfcinit      :      0.03s CPU      0.03s WALL (       1 calls)
     potinit      :      0.00s CPU      0.00s WALL (       1 calls)
     hinit0       :      0.09s CPU      0.10s WALL (       1 calls)

     Called by electrons:
     c_bands      :      0.54s CPU      0.61s WALL (       6 calls)
     sum_band     :      0.09s CPU      0.10s WALL (       6 calls)
     v_of_rho     :      0.01s CPU      0.01s WALL (       7 calls)
     newd         :      0.01s CPU      0.01s WALL (       7 calls)
     mix_rho      :      0.00s CPU      0.00s WALL (       6 calls)

     Called by c_bands:
     init_us_2    :      0.01s CPU      0.01s WALL (     300 calls)
     cegterg      :      0.53s CPU      0.59s WALL (     120 calls)

     Called by sum_band:
     sum_band:bec :      0.00s CPU      0.00s WALL (     120 calls)
     addusdens    :      0.01s CPU      0.01s WALL (       6 calls)

     Called by *egterg:
     h_psi        :      0.35s CPU      0.39s WALL (     444 calls)
     s_psi        :      0.01s CPU      0.01s WALL (     444 calls)
     g_psi        :      0.00s CPU      0.00s WALL (     304 calls)
     cdiaghg      :      0.12s CPU      0.14s WALL (     424 calls)

     Called by h_psi:
     h_psi:pot    :      0.35s CPU      0.39s WALL (     444 calls)
     h_psi:calbec :      0.02s CPU      0.02s WALL (     444 calls)
     vloc_psi     :      0.32s CPU      0.36s WALL (     444 calls)
     add_vuspsi   :      0.01s CPU      0.01s WALL (     444 calls)

     General routines
     calbec       :      0.03s CPU      0.03s WALL (     664 calls)
     fft          :      0.01s CPU      0.01s WALL (     103 calls)
     ffts         :      0.00s CPU      0.00s WALL (       6 calls)
     fftw         :      0.35s CPU      0.39s WALL (    9934 calls)

     Parallel routines
     fft_scatt_xy :      0.03s CPU      0.04s WALL (   10043 calls)
     fft_scatt_yz :      0.11s CPU      0.12s WALL (   10043 calls)

     PWSCF        :     1.56s CPU         1.69s WALL


   This run was terminated on:  22:33: 6  26Mar2024            

=------------------------------------------------------------------------------=
   JOB DONE.
=------------------------------------------------------------------------------=
