
     Program PWSCF v.6.3MaX starts on 26Mar2024 at 22:59: 3 

     This program is part of the open-source Quantum ESPRESSO suite
     for quantum simulation of materials; please cite
         "P. Giannozzi et al., J. Phys.:Condens. Matter 21 395502 (2009);
         "P. Giannozzi et al., J. Phys.:Condens. Matter 29 465901 (2017);
          URL http://www.quantum-espresso.org", 
     in publications or presentations arising from this work. More details at
     http://www.quantum-espresso.org/quote

     Parallel version (MPI), running on     5 processors

     MPI processes distributed on     1 nodes
     R & G space division:  proc/nbgrp/npool/nimage =       5
     Waiting for input...
     Reading input from standard input

     Current dimensions of program PWSCF are:
     Max number of different atomic species (ntypx) = 10
     Max number of k-points (npk) =  40000
     Max angular momentum in pseudopotentials (lmaxx) =  3

     Subspace diagonalization in iterative solution of the eigenvalue problem:
     a serial algorithm will be used


     Parallelization info
     --------------------
     sticks:   dense  smooth     PW     G-vecs:    dense   smooth      PW
     Min         102     102     32                 1559     1559     280
     Max         103     103     33                 1562     1562     283
     Sum         511     511    163                 7799     7799    1411



     bravais-lattice index     =            2
     lattice parameter (alat)  =       6.6500  a.u.
     unit-cell volume          =      73.5199 (a.u.)^3
     number of atoms/cell      =            1
     number of atomic types    =            1
     number of electrons       =        18.00
     number of Kohn-Sham states=           13
     kinetic-energy cutoff     =      85.0000  Ry
     charge density cutoff     =     340.0000  Ry
     convergence threshold     =      1.0E-08
     mixing beta               =       0.7000
     number of iterations used =            8  plain     mixing
     Exchange-correlation      = PBESOL ( 1  4 10  8 0 0)

     celldm(1)=   6.650000  celldm(2)=   0.000000  celldm(3)=   0.000000
     celldm(4)=   0.000000  celldm(5)=   0.000000  celldm(6)=   0.000000

     crystal axes: (cart. coord. in units of alat)
               a(1) = (  -0.500000   0.000000   0.500000 )  
               a(2) = (   0.000000   0.500000   0.500000 )  
               a(3) = (  -0.500000   0.500000   0.000000 )  

     reciprocal axes: (cart. coord. in units 2 pi/alat)
               b(1) = ( -1.000000 -1.000000  1.000000 )  
               b(2) = (  1.000000  1.000000  1.000000 )  
               b(3) = ( -1.000000  1.000000 -1.000000 )  


     PseudoPot. # 1 for Ni read from file:
     /home/lorenzo/pseudos/Ni/Ni.pbesol-spn-rrkjus_psl.1.0.0.UPF
     MD5 check sum: 6fc0a587bf949a08f2faed986b854013
     Pseudo is Ultrasoft + core correction, Zval = 18.0
     Generated using "atomic" code by A. Dal Corso v.6.3
     Using radial grid of 1195 points,  6 beta functions with: 
                l(1) =   0
                l(2) =   0
                l(3) =   1
                l(4) =   1
                l(5) =   2
                l(6) =   2
     Q(r) pseudized with 0 coefficients 


     atomic species   valence    mass     pseudopotential
        Ni            18.00    58.69340     Ni( 1.00)

     48 Sym. Ops., with inversion, found



   Cartesian axes

     site n.     atom                  positions (alat units)
         1           Ni  tau(   1) = (   0.0000000   0.0000000   0.0000000  )

     number of k points=    16  gaussian smearing, width (Ry)=  0.0100
                       cart. coord. in units 2pi/alat
        k(    1) = (   0.0000000   0.0000000   0.0000000), wk =   0.0092593
        k(    2) = (  -0.1666667   0.1666667  -0.1666667), wk =   0.0740741
        k(    3) = (  -0.3333333   0.3333333  -0.3333333), wk =   0.0740741
        k(    4) = (   0.5000000  -0.5000000   0.5000000), wk =   0.0370370
        k(    5) = (   0.0000000   0.3333333   0.0000000), wk =   0.0555556
        k(    6) = (  -0.1666667   0.5000000  -0.1666667), wk =   0.2222222
        k(    7) = (   0.6666667  -0.3333333   0.6666667), wk =   0.2222222
        k(    8) = (   0.5000000  -0.1666667   0.5000000), wk =   0.2222222
        k(    9) = (   0.3333333   0.0000000   0.3333333), wk =   0.1111111
        k(   10) = (   0.0000000   0.6666667   0.0000000), wk =   0.0555556
        k(   11) = (   0.8333333  -0.1666667   0.8333333), wk =   0.2222222
        k(   12) = (   0.6666667  -0.0000000   0.6666667), wk =   0.1111111
        k(   13) = (   0.0000000  -1.0000000   0.0000000), wk =   0.0277778
        k(   14) = (   0.6666667  -0.3333333   1.0000000), wk =   0.2222222
        k(   15) = (   0.5000000  -0.1666667   0.8333333), wk =   0.2222222
        k(   16) = (  -0.3333333  -1.0000000   0.0000000), wk =   0.1111111

     Dense  grid:     7799 G-vectors     FFT dimensions: (  27,  27,  27)

     Estimated max dynamical RAM per process >       8.01 MB

     Estimated total dynamical RAM >      40.04 MB

     Check: negative/imaginary core charge=   -0.000003    0.000000

     Initial potential from superposition of free atoms

     starting charge   17.99977, renormalised to   18.00000
     Starting wfcs are   10 randomized atomic wfcs +    3 random wfcs

     total cpu time spent up to now is        1.0 secs

     Self-consistent Calculation

     iteration #  1     ecut=    85.00 Ry     beta= 0.70
     Davidson diagonalization with overlap
     ethr =  1.00E-02,  avg # of iterations =  3.5

     Threshold (ethr) on eigenvalues was too large:
     Diagonalizing with lowered threshold

     Davidson diagonalization with overlap
     ethr =  8.35E-06,  avg # of iterations =  3.6

     total cpu time spent up to now is        1.5 secs

     total energy              =    -339.40053424 Ry
     Harris-Foulkes estimate   =    -339.40094735 Ry
     estimated scf accuracy    <       0.00141899 Ry

     iteration #  2     ecut=    85.00 Ry     beta= 0.70
     Davidson diagonalization with overlap
     ethr =  7.88E-06,  avg # of iterations =  1.0

     total cpu time spent up to now is        1.7 secs

     total energy              =    -339.40050864 Ry
     Harris-Foulkes estimate   =    -339.40062631 Ry
     estimated scf accuracy    <       0.00019722 Ry

     iteration #  3     ecut=    85.00 Ry     beta= 0.70
     Davidson diagonalization with overlap
     ethr =  1.10E-06,  avg # of iterations =  2.6

     total cpu time spent up to now is        1.9 secs

     total energy              =    -339.40044499 Ry
     Harris-Foulkes estimate   =    -339.40075152 Ry
     estimated scf accuracy    <       0.00095253 Ry

     iteration #  4     ecut=    85.00 Ry     beta= 0.70
     Davidson diagonalization with overlap
     ethr =  1.10E-06,  avg # of iterations =  2.1

     total cpu time spent up to now is        2.2 secs

     total energy              =    -339.40059456 Ry
     Harris-Foulkes estimate   =    -339.40059559 Ry
     estimated scf accuracy    <       0.00000336 Ry

     iteration #  5     ecut=    85.00 Ry     beta= 0.70
     Davidson diagonalization with overlap
     ethr =  1.87E-08,  avg # of iterations =  2.9

     total cpu time spent up to now is        2.4 secs

     total energy              =    -339.40059557 Ry
     Harris-Foulkes estimate   =    -339.40059558 Ry
     estimated scf accuracy    <       0.00000004 Ry

     iteration #  6     ecut=    85.00 Ry     beta= 0.70
     Davidson diagonalization with overlap
     ethr =  1.99E-10,  avg # of iterations =  2.0

     total cpu time spent up to now is        2.6 secs

     End of self-consistent calculation

          k = 0.0000 0.0000 0.0000 (   941 PWs)   bands (ev):

   -85.2494 -45.6527 -45.6527 -45.6527   8.6006  15.6483  15.6483  15.6483
    16.7699  16.7699  41.2829  45.1963  45.1963

          k =-0.1667 0.1667-0.1667 (   956 PWs)   bands (ev):

   -85.2408 -45.7096 -45.6610 -45.6610   9.6587  15.3995  15.8299  15.8299
    16.7278  16.7278  36.3194  42.0473  43.6694

          k =-0.3333 0.3333-0.3333 (   968 PWs)   bands (ev):

   -85.2236 -45.8213 -45.6773 -45.6773  12.1268  15.4930  15.7593  15.7593
    17.1448  17.1448  28.2523  40.6101  42.5573

          k = 0.5000-0.5000 0.5000 (   978 PWs)   bands (ev):

   -85.2150 -45.8771 -45.6856 -45.6856  13.0524  15.6103  15.6103  17.3262
    17.5045  17.5045  23.5356  39.7917  42.3104

          k = 0.0000 0.3333 0.0000 (   966 PWs)   bands (ev):

   -85.2380 -45.7077 -45.6743 -45.6743  10.0010  15.1555  16.0506  16.0506
    16.3439  16.9477  39.4046  39.7388  39.7388

          k =-0.1667 0.5000-0.1667 (   977 PWs)   bands (ev):

   -85.2237 -45.7899 -45.6932 -45.6931  12.0475  14.8032  15.7081  16.2255
    17.1185  17.2749  31.4395  37.7212  38.1804

          k = 0.6667-0.3333 0.6667 (   972 PWs)   bands (ev):

   -85.2122 -45.8539 -45.7181 -45.6986  13.5568  15.0516  15.6591  16.0345
    17.5304  19.5302  24.6277  35.3715  38.0183

          k = 0.5000-0.1667 0.5000 (   975 PWs)   bands (ev):

   -85.2151 -45.8366 -45.7253 -45.6855  13.3759  15.2550  15.3830  16.0254
    17.0372  18.8386  26.5959  33.8917  40.8300

          k = 0.3333 0.0000 0.3333 (   961 PWs)   bands (ev):

   -85.2294 -45.7633 -45.6979 -45.6663  11.2615  15.0652  15.7813  16.2025
    16.3609  17.3632  33.8936  34.6519  44.2500

          k = 0.0000 0.6667 0.0000 (   974 PWs)   bands (ev):

   -85.2151 -45.8136 -45.7160 -45.7160  12.8306  14.2353  16.6577  17.0446
    17.0446  17.3128  33.3053  34.5685  34.5685

          k = 0.8333-0.1667 0.8333 (   975 PWs)   bands (ev):

   -85.2066 -45.8419 -45.7502 -45.7243  13.5882  14.1276  16.2734  16.9968
    17.5897  20.2947  28.3692  29.6486  34.0365

          k = 0.6667-0.0000 0.6667 (   981 PWs)   bands (ev):

   -85.2066 -45.8048 -45.8041 -45.7091  14.2904  14.4519  15.4074  16.6518
    17.2255  22.5297  25.2360  28.2605  36.4200

          k = 0.0000-1.0000 0.0000 (   982 PWs)   bands (ev):

   -85.2038 -45.8645 -45.7375 -45.7375  13.2212  13.8039  17.4993  17.6832
    17.6832  20.0652  27.0083  32.4453  32.4453

          k = 0.6667-0.3333 1.0000 (   974 PWs)   bands (ev):

   -85.2123 -45.8201 -45.7453 -45.7046  13.6827  14.5764  15.2554  16.7930
    17.0456  19.1417  29.8018  30.8957  34.5453

          k = 0.5000-0.1667 0.8333 (   976 PWs)   bands (ev):

   -85.2066 -45.8273 -45.7723 -45.7177  14.4359  14.4427  15.1845  16.5504
    17.4500  22.7187  24.3390  31.2100  31.8920

          k =-0.3333-1.0000 0.0000 (   978 PWs)   bands (ev):

   -85.2037 -45.8329 -45.7690 -45.7383  13.8535  14.2972  15.8263  16.9457
    17.6842  23.1197  27.3830  28.0796  29.6778

     the Fermi energy is    17.4929 ev

!    total energy              =    -339.40059558 Ry
     Harris-Foulkes estimate   =    -339.40059558 Ry
     estimated scf accuracy    <          2.1E-09 Ry

     The total energy is the sum of the following terms:

     one-electron contribution =    -186.56055014 Ry
     hartree contribution      =     104.45914907 Ry
     xc contribution           =     -33.91433097 Ry
     ewald contribution        =    -223.38275369 Ry
     smearing contrib. (-TS)   =      -0.00210985 Ry

     convergence has been achieved in   6 iterations

     Forces acting on atoms (cartesian axes, Ry/au):

     atom    1 type  1   force =     0.00000000    0.00000000    0.00000000

     Total force =     0.000000     Total SCF correction =     0.000000


     Computing stress (Cartesian axis) and pressure

          total   stress  (Ry/bohr**3)                   (kbar)     P= -156.21
  -0.00106191  -0.00000000  -0.00000000       -156.21     -0.00     -0.00
  -0.00000000  -0.00106191  -0.00000000         -0.00   -156.21     -0.00
  -0.00000000  -0.00000000  -0.00106191         -0.00     -0.00   -156.21


     Writing output data file Ni.save/

     init_run     :      0.25s CPU      0.26s WALL (       1 calls)
     electrons    :      1.58s CPU      1.66s WALL (       1 calls)
     forces       :      0.03s CPU      0.03s WALL (       1 calls)
     stress       :      0.11s CPU      0.11s WALL (       1 calls)

     Called by init_run:
     wfcinit      :      0.07s CPU      0.07s WALL (       1 calls)
     potinit      :      0.01s CPU      0.01s WALL (       1 calls)
     hinit0       :      0.16s CPU      0.16s WALL (       1 calls)

     Called by electrons:
     c_bands      :      1.24s CPU      1.29s WALL (       7 calls)
     sum_band     :      0.27s CPU      0.29s WALL (       7 calls)
     v_of_rho     :      0.03s CPU      0.03s WALL (       7 calls)
     newd         :      0.05s CPU      0.06s WALL (       7 calls)
     mix_rho      :      0.00s CPU      0.00s WALL (       7 calls)

     Called by c_bands:
     init_us_2    :      0.04s CPU      0.04s WALL (     272 calls)
     cegterg      :      1.19s CPU      1.24s WALL (     112 calls)

     Called by sum_band:
     sum_band:bec :      0.00s CPU      0.00s WALL (     112 calls)
     addusdens    :      0.05s CPU      0.06s WALL (       7 calls)

     Called by *egterg:
     h_psi        :      0.90s CPU      0.94s WALL (     411 calls)
     s_psi        :      0.03s CPU      0.03s WALL (     411 calls)
     g_psi        :      0.00s CPU      0.00s WALL (     283 calls)
     cdiaghg      :      0.13s CPU      0.14s WALL (     379 calls)

     Called by h_psi:
     h_psi:pot    :      0.90s CPU      0.94s WALL (     411 calls)
     h_psi:calbec :      0.04s CPU      0.04s WALL (     411 calls)
     vloc_psi     :      0.82s CPU      0.86s WALL (     411 calls)
     add_vuspsi   :      0.03s CPU      0.03s WALL (     411 calls)

     General routines
     calbec       :      0.06s CPU      0.07s WALL (     603 calls)
     fft          :      0.02s CPU      0.02s WALL (     104 calls)
     ffts         :      0.00s CPU      0.00s WALL (       7 calls)
     fftw         :      0.93s CPU      0.98s WALL (    9084 calls)

     Parallel routines
     fft_scatt_xy :      0.08s CPU      0.08s WALL (    9195 calls)
     fft_scatt_yz :      0.24s CPU      0.26s WALL (    9195 calls)

     PWSCF        :     2.69s CPU         2.82s WALL


   This run was terminated on:  22:59: 5  26Mar2024            

=------------------------------------------------------------------------------=
   JOB DONE.
=------------------------------------------------------------------------------=
