
     Program PWSCF v.6.3MaX starts on 26Mar2024 at 23: 4:12 

     This program is part of the open-source Quantum ESPRESSO suite
     for quantum simulation of materials; please cite
         "P. Giannozzi et al., J. Phys.:Condens. Matter 21 395502 (2009);
         "P. Giannozzi et al., J. Phys.:Condens. Matter 29 465901 (2017);
          URL http://www.quantum-espresso.org", 
     in publications or presentations arising from this work. More details at
     http://www.quantum-espresso.org/quote

     Parallel version (MPI), running on     5 processors

     MPI processes distributed on     1 nodes
     R & G space division:  proc/nbgrp/npool/nimage =       5
     Waiting for input...
     Reading input from standard input

     Current dimensions of program PWSCF are:
     Max number of different atomic species (ntypx) = 10
     Max number of k-points (npk) =  40000
     Max angular momentum in pseudopotentials (lmaxx) =  3
               file Ni.pbesol-spn-kjpaw_psl.1.0.0.UPF: wavefunction(s)  3P 3D renormalized

     Subspace diagonalization in iterative solution of the eigenvalue problem:
     a serial algorithm will be used


     Parallelization info
     --------------------
     sticks:   dense  smooth     PW     G-vecs:    dense   smooth      PW
     Min         116     116     37                 1850     1850     327
     Max         117     117     38                 1853     1853     329
     Sum         583     583    187                 9257     9257    1639



     bravais-lattice index     =            2
     lattice parameter (alat)  =       6.6500  a.u.
     unit-cell volume          =      73.5199 (a.u.)^3
     number of atoms/cell      =            1
     number of atomic types    =            1
     number of electrons       =        18.00
     number of Kohn-Sham states=           13
     kinetic-energy cutoff     =      95.0000  Ry
     charge density cutoff     =     380.0000  Ry
     convergence threshold     =      1.0E-08
     mixing beta               =       0.7000
     number of iterations used =            8  plain     mixing
     Exchange-correlation      = SLA PW PSX PSC ( 1  4 10  8 0 0)

     celldm(1)=   6.650000  celldm(2)=   0.000000  celldm(3)=   0.000000
     celldm(4)=   0.000000  celldm(5)=   0.000000  celldm(6)=   0.000000

     crystal axes: (cart. coord. in units of alat)
               a(1) = (  -0.500000   0.000000   0.500000 )  
               a(2) = (   0.000000   0.500000   0.500000 )  
               a(3) = (  -0.500000   0.500000   0.000000 )  

     reciprocal axes: (cart. coord. in units 2 pi/alat)
               b(1) = ( -1.000000 -1.000000  1.000000 )  
               b(2) = (  1.000000  1.000000  1.000000 )  
               b(3) = ( -1.000000  1.000000 -1.000000 )  


     PseudoPot. # 1 for Ni read from file:
     /home/lorenzo/pseudos/Ni/Ni.pbesol-spn-kjpaw_psl.1.0.0.UPF
     MD5 check sum: ef06ee83099c2673f0516457bd731f51
     Pseudo is Projector augmented-wave + core cor, Zval = 18.0
     Generated using "atomic" code by A. Dal Corso v.6.3
     Shape of augmentation charge: PSQ
     Using radial grid of 1195 points,  6 beta functions with: 
                l(1) =   0
                l(2) =   0
                l(3) =   1
                l(4) =   1
                l(5) =   2
                l(6) =   2
     Q(r) pseudized with 0 coefficients 


     atomic species   valence    mass     pseudopotential
        Ni            18.00    58.69340     Ni( 1.00)

     48 Sym. Ops., with inversion, found



   Cartesian axes

     site n.     atom                  positions (alat units)
         1           Ni  tau(   1) = (   0.0000000   0.0000000   0.0000000  )

     number of k points=    56  gaussian smearing, width (Ry)=  0.0100
                       cart. coord. in units 2pi/alat
        k(    1) = (   0.0000000   0.0000000   0.0000000), wk =   0.0015026
        k(    2) = (  -0.0909091   0.0909091  -0.0909091), wk =   0.0120210
        k(    3) = (  -0.1818182   0.1818182  -0.1818182), wk =   0.0120210
        k(    4) = (  -0.2727273   0.2727273  -0.2727273), wk =   0.0120210
        k(    5) = (  -0.3636364   0.3636364  -0.3636364), wk =   0.0120210
        k(    6) = (  -0.4545455   0.4545455  -0.4545455), wk =   0.0120210
        k(    7) = (   0.0000000   0.1818182   0.0000000), wk =   0.0090158
        k(    8) = (  -0.0909091   0.2727273  -0.0909091), wk =   0.0360631
        k(    9) = (  -0.1818182   0.3636364  -0.1818182), wk =   0.0360631
        k(   10) = (  -0.2727273   0.4545455  -0.2727273), wk =   0.0360631
        k(   11) = (  -0.3636364   0.5454545  -0.3636364), wk =   0.0360631
        k(   12) = (   0.5454545  -0.3636364   0.5454545), wk =   0.0360631
        k(   13) = (   0.4545455  -0.2727273   0.4545455), wk =   0.0360631
        k(   14) = (   0.3636364  -0.1818182   0.3636364), wk =   0.0360631
        k(   15) = (   0.2727273  -0.0909091   0.2727273), wk =   0.0360631
        k(   16) = (   0.1818182  -0.0000000   0.1818182), wk =   0.0180316
        k(   17) = (   0.0000000   0.3636364   0.0000000), wk =   0.0090158
        k(   18) = (  -0.0909091   0.4545455  -0.0909091), wk =   0.0360631
        k(   19) = (  -0.1818182   0.5454545  -0.1818182), wk =   0.0360631
        k(   20) = (  -0.2727273   0.6363636  -0.2727273), wk =   0.0360631
        k(   21) = (   0.6363636  -0.2727273   0.6363636), wk =   0.0360631
        k(   22) = (   0.5454545  -0.1818182   0.5454545), wk =   0.0360631
        k(   23) = (   0.4545455  -0.0909091   0.4545455), wk =   0.0360631
        k(   24) = (   0.3636364   0.0000000   0.3636364), wk =   0.0180316
        k(   25) = (   0.0000000   0.5454545   0.0000000), wk =   0.0090158
        k(   26) = (  -0.0909091   0.6363636  -0.0909091), wk =   0.0360631
        k(   27) = (  -0.1818182   0.7272727  -0.1818182), wk =   0.0360631
        k(   28) = (   0.7272727  -0.1818182   0.7272727), wk =   0.0360631
        k(   29) = (   0.6363636  -0.0909091   0.6363636), wk =   0.0360631
        k(   30) = (   0.5454545   0.0000000   0.5454545), wk =   0.0180316
        k(   31) = (   0.0000000   0.7272727   0.0000000), wk =   0.0090158
        k(   32) = (  -0.0909091   0.8181818  -0.0909091), wk =   0.0360631
        k(   33) = (   0.8181818  -0.0909091   0.8181818), wk =   0.0360631
        k(   34) = (   0.7272727   0.0000000   0.7272727), wk =   0.0180316
        k(   35) = (   0.0000000   0.9090909   0.0000000), wk =   0.0090158
        k(   36) = (   0.9090909  -0.0000000   0.9090909), wk =   0.0180316
        k(   37) = (  -0.1818182   0.3636364   0.0000000), wk =   0.0360631
        k(   38) = (  -0.2727273   0.4545455  -0.0909091), wk =   0.0721262
        k(   39) = (  -0.3636364   0.5454545  -0.1818182), wk =   0.0721262
        k(   40) = (   0.5454545  -0.3636364   0.7272727), wk =   0.0721262
        k(   41) = (  -0.1818182   0.5454545   0.0000000), wk =   0.0360631
        k(   42) = (  -0.2727273   0.6363636  -0.0909091), wk =   0.0721262
        k(   43) = (   0.6363636  -0.2727273   0.8181818), wk =   0.0721262
        k(   44) = (   0.5454545  -0.1818182   0.7272727), wk =   0.0721262
        k(   45) = (   0.4545455  -0.0909091   0.6363636), wk =   0.0721262
        k(   46) = (   0.3636364   0.0000000   0.5454545), wk =   0.0360631
        k(   47) = (  -0.1818182   0.7272727   0.0000000), wk =   0.0360631
        k(   48) = (   0.7272727  -0.1818182   0.9090909), wk =   0.0721262
        k(   49) = (   0.6363636  -0.0909091   0.8181818), wk =   0.0721262
        k(   50) = (   0.5454545   0.0000000   0.7272727), wk =   0.0360631
        k(   51) = (   0.8181818  -0.0909091   1.0000000), wk =   0.0360631
        k(   52) = (   0.7272727   0.0000000   0.9090909), wk =   0.0360631
        k(   53) = (   0.6363636  -0.2727273   1.0000000), wk =   0.0360631
        k(   54) = (   0.5454545  -0.1818182   0.9090909), wk =   0.0721262
        k(   55) = (   0.6363636  -0.0909091   1.0000000), wk =   0.0360631
        k(   56) = (   0.5454545   0.0000000   0.9090909), wk =   0.0360631

     Dense  grid:     9257 G-vectors     FFT dimensions: (  30,  30,  30)

     Estimated max dynamical RAM per process >      11.14 MB

     Estimated total dynamical RAM >      55.69 MB

     Check: negative/imaginary core charge=   -0.000003    0.000000

     Initial potential from superposition of free atoms

     starting charge   17.99977, renormalised to   18.00000
     Starting wfcs are   10 randomized atomic wfcs +    3 random wfcs
     Checking if some PAW data can be deallocated... 

     total cpu time spent up to now is        1.3 secs

     Self-consistent Calculation

     iteration #  1     ecut=    95.00 Ry     beta= 0.70
     Davidson diagonalization with overlap
     ethr =  1.00E-02,  avg # of iterations =  3.7

     Threshold (ethr) on eigenvalues was too large:
     Diagonalizing with lowered threshold

     Davidson diagonalization with overlap
     ethr =  1.05E-05,  avg # of iterations =  3.0

     total cpu time spent up to now is        3.3 secs

     total energy              =    -426.57733252 Ry
     Harris-Foulkes estimate   =    -426.57814965 Ry
     estimated scf accuracy    <       0.00182777 Ry

     iteration #  2     ecut=    95.00 Ry     beta= 0.70
     Davidson diagonalization with overlap
     ethr =  1.02E-05,  avg # of iterations =  2.0

     total cpu time spent up to now is        4.2 secs

     total energy              =    -426.57695835 Ry
     Harris-Foulkes estimate   =    -426.57806704 Ry
     estimated scf accuracy    <       0.00234513 Ry

     iteration #  3     ecut=    95.00 Ry     beta= 0.70
     Davidson diagonalization with overlap
     ethr =  1.02E-05,  avg # of iterations =  2.0

     total cpu time spent up to now is        5.1 secs

     total energy              =    -426.57753220 Ry
     Harris-Foulkes estimate   =    -426.57775912 Ry
     estimated scf accuracy    <       0.00067897 Ry

     iteration #  4     ecut=    95.00 Ry     beta= 0.70
     Davidson diagonalization with overlap
     ethr =  3.77E-06,  avg # of iterations =  1.4

     total cpu time spent up to now is        6.0 secs

     total energy              =    -426.57763235 Ry
     Harris-Foulkes estimate   =    -426.57763218 Ry
     estimated scf accuracy    <       0.00000028 Ry

     iteration #  5     ecut=    95.00 Ry     beta= 0.70
     Davidson diagonalization with overlap
     ethr =  1.58E-09,  avg # of iterations =  3.1

     total cpu time spent up to now is        7.4 secs

     total energy              =    -426.57763471 Ry
     Harris-Foulkes estimate   =    -426.57763482 Ry
     estimated scf accuracy    <       0.00000039 Ry

     iteration #  6     ecut=    95.00 Ry     beta= 0.70
     Davidson diagonalization with overlap
     ethr =  1.58E-09,  avg # of iterations =  1.0

     total cpu time spent up to now is        8.2 secs

     total energy              =    -426.57763470 Ry
     Harris-Foulkes estimate   =    -426.57763473 Ry
     estimated scf accuracy    <       0.00000007 Ry

     iteration #  7     ecut=    95.00 Ry     beta= 0.70
     Davidson diagonalization with overlap
     ethr =  3.87E-10,  avg # of iterations =  1.1

     total cpu time spent up to now is        9.0 secs

     End of self-consistent calculation

          k = 0.0000 0.0000 0.0000 (  1139 PWs)   bands (ev):

   -85.1944 -45.6021 -45.6021 -45.6021   8.6013  15.6918  15.6918  15.6918
    16.8179  16.8179  41.2801  45.1971  45.1971

          k =-0.0909 0.0909-0.0909 (  1167 PWs)   bands (ev):

   -85.1917 -45.6205 -45.6050 -45.6050   8.9238  15.6044  15.7625  15.7625
    16.7891  16.7891  39.9166  42.7193  44.4921

          k =-0.1818 0.1818-0.1818 (  1167 PWs)   bands (ev):

   -85.1844 -45.6682 -45.6121 -45.6121   9.8518  15.4074  15.8904  15.8904
    16.7846  16.7846  35.5569  41.9416  43.5351

          k =-0.2727 0.2727-0.2727 (  1164 PWs)   bands (ev):

   -85.1748 -45.7305 -45.6210 -45.6210  11.2172  15.3099  15.8817  15.8817
    16.9796  16.9796  31.0380  41.1720  42.8533

          k =-0.3636 0.3636-0.3636 (  1155 PWs)   bands (ev):

   -85.1660 -45.7875 -45.6292 -45.6292  12.4991  15.7599  15.7599  15.7853
    17.2993  17.2993  26.9996  40.3534  42.4709

          k =-0.4545 0.4545-0.4545 (  1164 PWs)   bands (ev):

   -85.1607 -45.8216 -45.6342 -45.6342  13.0303  15.6664  15.6664  17.0251
    17.5238  17.5238  24.0593  39.8529  42.3305

          k = 0.0000 0.1818 0.0000 (  1163 PWs)   bands (ev):

   -85.1908 -45.6198 -45.6091 -45.6091   9.0306  15.5321  15.8145  15.8145
    16.6731  16.8742  40.4785  42.5765  42.5765

          k =-0.0909 0.2727-0.0909 (  1164 PWs)   bands (ev):

   -85.1850 -45.6554 -45.6173 -45.6141   9.7557  15.3397  15.9471  15.9602
    16.5673  16.9318  37.3051  40.9792  41.1050

          k =-0.1818 0.3636-0.1818 (  1145 PWs)   bands (ev):

   -85.1762 -45.7112 -45.6268 -45.6222  10.9870  15.1605  15.8983  16.0204
    16.7750  17.0962  32.7136  40.1334  40.2323

          k =-0.2727 0.4545-0.2727 (  1145 PWs)   bands (ev):

   -85.1671 -45.7685 -45.6349 -45.6326  12.3591  15.2692  15.7092  15.9343
    17.3321  17.3663  28.4561  39.4360  39.7060

          k =-0.3636 0.5455-0.3636 (  1149 PWs)   bands (ev):

   -85.1607 -45.8088 -45.6421 -45.6388  13.1308  15.5167  15.8205  16.0069
    17.5510  18.2092  24.9596  38.6033  39.9030

          k = 0.5455-0.3636 0.5455 (  1156 PWs)   bands (ev):

   -85.1589 -45.8197 -45.6474 -45.6374  13.2631  15.5024  15.7728  16.3580
    17.5120  18.8114  23.6753  37.8649  40.8083

          k = 0.4545-0.2727 0.4545 (  1145 PWs)   bands (ev):

   -85.1624 -45.7976 -45.6465 -45.6310  12.9748  15.5991  15.7842  15.8255
    17.2418  18.0707  26.0040  37.4752  41.3604

          k = 0.3636-0.1818 0.3636 (  1148 PWs)   bands (ev):

   -85.1700 -45.7500 -45.6399 -45.6217  11.9354  15.2230  15.7773  15.9555
    16.8530  17.4882  29.8260  37.5587  42.5634

          k = 0.2727-0.0909 0.2727 (  1152 PWs)   bands (ev):

   -85.1794 -45.6921 -45.6290 -45.6126  10.5356  15.2486  15.9050  16.0236
    16.5819  17.0875  34.2287  38.1103  44.0112

          k = 0.1818-0.0000 0.1818 (  1163 PWs)   bands (ev):

   -85.1874 -45.6439 -45.6161 -45.6064   9.4488  15.4552  15.8708  15.8720
    16.6457  16.8798  38.4201  39.5618  44.1053

          k = 0.0000 0.3636 0.0000 (  1162 PWs)   bands (ev):

   -85.1811 -45.6658 -45.6270 -45.6270  10.2529  15.1154  16.1690  16.1690
    16.3282  17.0269  39.2028  39.2028  39.2185

          k =-0.0909 0.4545-0.0909 (  1151 PWs)   bands (ev):

   -85.1738 -45.7055 -45.6378 -45.6370  11.2610  14.8795  15.9760  16.3382
    16.6762  17.1695  34.7838  37.8829  38.8289

          k =-0.1818 0.5455-0.1818 (  1146 PWs)   bands (ev):

   -85.1655 -45.7529 -45.6500 -45.6464  12.5247  14.7651  15.6735  16.3198
    17.4152  17.4829  30.3841  37.2136  37.2141

          k =-0.2727 0.6364-0.2727 (  1144 PWs)   bands (ev):

   -85.1588 -45.7896 -45.6653 -45.6501  13.4527  14.8999  15.5568  16.2074
    17.5835  18.8233  26.4787  35.5257  37.2763

          k = 0.6364-0.2727 0.6364 (  1155 PWs)   bands (ev):

   -85.1558 -45.8042 -45.6778 -45.6478  13.7383  15.0253  15.7128  16.1159
    17.5220  20.4035  23.8687  34.1801  38.1207

          k = 0.5455-0.1818 0.5455 (  1150 PWs)   bands (ev):

   -85.1576 -45.7932 -45.6824 -45.6399  13.6666  15.1755  15.5090  16.1052
    17.2225  19.5997  25.4162  33.3603  39.7110

          k = 0.4545-0.0909 0.4545 (  1141 PWs)   bands (ev):

   -85.1634 -45.7623 -45.6750 -45.6291  12.9893  15.0526  15.4762  16.1939
    16.7851  18.3770  29.0638  33.1396  41.9170

          k = 0.3636 0.0000 0.3636 (  1151 PWs)   bands (ev):

   -85.1716 -45.7248 -45.6552 -45.6190  11.7002  15.0509  15.7534  16.3394
    16.3734  17.6064  33.0267  33.8057  43.6213

          k = 0.0000 0.5455 0.0000 (  1146 PWs)   bands (ev):

   -85.1683 -45.7249 -45.6502 -45.6502  11.9473  14.5940  16.1696  16.7004
    16.7004  17.2300  36.2072  36.2072  36.5550

          k =-0.0909 0.6364-0.0909 (  1141 PWs)   bands (ev):

   -85.1615 -45.7569 -45.6641 -45.6600  12.8172  14.3962  16.0832  16.8274
    17.4263  17.4760  32.6135  34.3924  35.2237

          k =-0.1818 0.7273-0.1818 (  1151 PWs)   bands (ev):

   -85.1556 -45.7813 -45.6848 -45.6645  13.5498  14.3645  15.8673  16.7422
    17.6099  19.1121  28.6118  32.3445  35.0485

          k = 0.7273-0.1818 0.7273 (  1150 PWs)   bands (ev):

   -85.1524 -45.7868 -45.7088 -45.6618  14.0093  14.4668  15.6691  16.6174
    17.5558  21.4381  25.1363  30.7610  35.7340

          k = 0.6364-0.0909 0.6364 (  1144 PWs)   bands (ev):

   -85.1529 -45.7747 -45.7254 -45.6529  14.2440  14.6571  15.3807  16.5138
    17.2711  21.6868  25.0597  29.7523  37.2158

          k = 0.5455 0.0000 0.5455 (  1147 PWs)   bands (ev):

   -85.1571 -45.7661 -45.7124 -45.6408  13.9595  15.0400  15.0504  16.4146
    16.9225  19.7295  28.1165  29.7995  39.3374

          k = 0.0000 0.7273 0.0000 (  1150 PWs)   bands (ev):

   -85.1566 -45.7785 -45.6716 -45.6716  13.0824  14.1369  17.2558  17.2781
    17.2781  17.4200  31.7189  33.9039  33.9039

          k =-0.0909 0.8182-0.0909 (  1152 PWs)   bands (ev):

   -85.1522 -45.7950 -45.6857 -45.6772  13.3502  14.0401  16.8920  17.2709
    17.6233  19.1548  29.6029  31.1778  33.4250

          k = 0.8182-0.0909 0.8182 (  1148 PWs)   bands (ev):

   -85.1498 -45.7928 -45.7104 -45.6752  13.6803  14.1298  16.3769  17.1314
    17.6145  21.5546  27.4381  28.3165  33.8801

          k = 0.7273 0.0000 0.7273 (  1136 PWs)   bands (ev):

   -85.1500 -45.7711 -45.7391 -45.6660  14.0914  14.3316  15.7853  16.8959
    17.4213  23.9574  24.3388  27.8238  35.2045

          k = 0.0000 0.9091 0.0000 (  1154 PWs)   bands (ev):

   -85.1497 -45.8098 -45.6845 -45.6845  13.2504  13.8744  17.5345  17.6771
    17.6771  19.5333  27.7600  32.6180  32.6180

          k = 0.9091-0.0000 0.9091 (  1138 PWs)   bands (ev):

   -85.1487 -45.8087 -45.6936 -45.6835  13.3636  13.9106  17.2487  17.4547
    17.6984  20.7691  27.0774  30.5876  32.7792

          k =-0.1818 0.3636 0.0000 (  1153 PWs)   bands (ev):

   -85.1785 -45.6877 -45.6347 -45.6189  10.6359  15.1204  15.9438  16.1847
    16.4945  17.1224  35.8772  36.5921  42.5581

          k =-0.2727 0.4545-0.0909 (  1146 PWs)   bands (ev):

   -85.1699 -45.7343 -45.6513 -45.6269  11.9209  14.9644  15.7155  16.2470
    16.7552  17.5619  31.6463  35.5694  40.5205

          k =-0.3636 0.5455-0.1818 (  1148 PWs)   bands (ev):

   -85.1620 -45.7789 -45.6626 -45.6368  13.1076  15.1028  15.4931  16.1256
    17.2106  18.3329  27.5482  35.3673  38.6021

          k = 0.5455-0.3636 0.7273 (  1153 PWs)   bands (ev):

   -85.1573 -45.8057 -45.6679 -45.6438  13.5714  15.1971  15.7408  16.0275
    17.4716  19.6347  24.3523  35.6544  37.1900

          k =-0.1818 0.5455 0.0000 (  1139 PWs)   bands (ev):

   -85.1667 -45.7366 -45.6587 -45.6429  12.2710  14.6626  15.7731  16.7018
    16.8140  17.5471  33.5947  34.1196  37.3477

          k =-0.2727 0.6364-0.0909 (  1151 PWs)   bands (ev):

   -85.1596 -45.7678 -45.6780 -45.6520  13.3228  14.5937  15.5051  16.6463
    17.2600  18.5107  29.5955  33.4859  35.2072

          k = 0.6364-0.2727 0.8182 (  1142 PWs)   bands (ev):

   -85.1547 -45.7869 -45.6939 -45.6577  13.9412  14.6733  15.4169  16.4916
    17.4972  20.2878  25.8784  33.0976  34.0993

          k = 0.5455-0.1818 0.7273 (  1154 PWs)   bands (ev):

   -85.1535 -45.7889 -45.7044 -45.6557  14.1394  14.7211  15.4248  16.3926
    17.4374  21.6035  24.1467  31.9723  34.9031

          k = 0.4545-0.0909 0.6364 (  1152 PWs)   bands (ev):

   -85.1564 -45.7757 -45.7022 -45.6469  13.9520  14.9077  15.1462  16.4419
    17.1461  19.8223  27.0538  31.3255  36.3957

          k = 0.3636 0.0000 0.5455 (  1149 PWs)   bands (ev):

   -85.1625 -45.7561 -45.6821 -45.6357  13.1000  14.8416  15.3848  16.5322
    16.7421  18.4315  30.6405  31.6454  38.3512

          k =-0.1818 0.7273 0.0000 (  1152 PWs)   bands (ev):

   -85.1560 -45.7778 -45.6813 -45.6684  13.3518  14.2532  16.1215  17.2499
    17.2757  18.6094  31.7540  31.7714  32.6743

          k = 0.7273-0.1818 0.9091 (  1150 PWs)   bands (ev):

   -85.1518 -45.7852 -45.7032 -45.6737  13.7802  14.2913  15.8859  17.0245
    17.5597  20.6090  28.1650  30.1735  32.2778

          k = 0.6364-0.0909 0.8182 (  1152 PWs)   bands (ev):

   -85.1503 -45.7740 -45.7304 -45.6702  14.1597  14.4237  15.5580  16.7971
    17.5260  23.1944  24.8821  28.8783  33.0799

          k = 0.5455 0.0000 0.7273 (  1151 PWs)   bands (ev):

   -85.1520 -45.7605 -45.7404 -45.6597  14.4436  14.5789  15.1531  16.6457
    17.3006  21.9065  26.1437  28.6493  34.5106

          k = 0.8182-0.0909 1.0000 (  1152 PWs)   bands (ev):

   -85.1496 -45.8008 -45.6946 -45.6844  13.4778  14.0162  16.7572  17.3654
    17.6768  20.7349  27.9198  30.6819  31.3635

          k = 0.7273 0.0000 0.9091 (  1152 PWs)   bands (ev):

   -85.1489 -45.7895 -45.7148 -45.6817  13.7588  14.1861  16.1969  17.1203
    17.6741  22.5617  27.1183  27.8952  31.7568

          k = 0.6364-0.2727 1.0000 (  1151 PWs)   bands (ev):

   -85.1543 -45.7731 -45.7069 -45.6620  13.9978  14.6006  15.2190  16.8614
    17.2747  20.1029  28.8026  30.1369  33.0521

          k = 0.5455-0.1818 0.9091 (  1151 PWs)   bands (ev):

   -85.1511 -45.7707 -45.7271 -45.6707  14.3174  14.6550  15.1165  16.7008
    17.5082  22.3831  25.6751  30.1570  31.4428

          k = 0.6364-0.0909 1.0000 (  1153 PWs)   bands (ev):

   -85.1493 -45.7768 -45.7216 -45.6840  13.9908  14.4487  15.6014  16.9277
    17.6757  22.7573  27.7478  28.4074  29.5952

          k = 0.5455 0.0000 0.9091 (  1148 PWs)   bands (ev):

   -85.1491 -45.7570 -45.7449 -45.6827  14.1901  14.7316  15.1830  16.7507
    17.6740  24.9810  25.0209  28.0335  29.9542

     the Fermi energy is    17.5564 ev

!    total energy              =    -426.57763471 Ry
     Harris-Foulkes estimate   =    -426.57763471 Ry
     estimated scf accuracy    <          8.9E-10 Ry

     total all-electron energy =     -3039.035979 Ry

     The total energy is the sum of the following terms:

     one-electron contribution =    -184.94693390 Ry
     hartree contribution      =     104.52565568 Ry
     xc contribution           =     -33.92262476 Ry
     ewald contribution        =    -223.38275369 Ry
     one-center paw contrib.   =     -88.84818262 Ry
     smearing contrib. (-TS)   =      -0.00279542 Ry

     convergence has been achieved in   7 iterations

     Forces acting on atoms (cartesian axes, Ry/au):

     atom    1 type  1   force =     0.00000000    0.00000000    0.00000000

     Total force =     0.000000     Total SCF correction =     0.000000


     Computing stress (Cartesian axis) and pressure

          total   stress  (Ry/bohr**3)                   (kbar)     P= -116.71
  -0.00079336  -0.00000000  -0.00000000       -116.71     -0.00     -0.00
  -0.00000000  -0.00079336   0.00000000         -0.00   -116.71      0.00
  -0.00000000   0.00000000  -0.00079336         -0.00      0.00   -116.71


     Writing output data file Ni.save/

     init_run     :      0.55s CPU      0.58s WALL (       1 calls)
     electrons    :      7.36s CPU      7.74s WALL (       1 calls)
     forces       :      0.08s CPU      0.08s WALL (       1 calls)
     stress       :      0.23s CPU      0.23s WALL (       1 calls)

     Called by init_run:
     wfcinit      :      0.25s CPU      0.25s WALL (       1 calls)
     potinit      :      0.11s CPU      0.12s WALL (       1 calls)
     hinit0       :      0.17s CPU      0.17s WALL (       1 calls)

     Called by electrons:
     c_bands      :      5.56s CPU      5.78s WALL (       8 calls)
     sum_band     :      1.06s CPU      1.10s WALL (       8 calls)
     v_of_rho     :      0.05s CPU      0.05s WALL (       8 calls)
     newd         :      0.08s CPU      0.09s WALL (       8 calls)
     PAW_pot      :      0.72s CPU      0.83s WALL (       8 calls)
     mix_rho      :      0.00s CPU      0.00s WALL (       8 calls)

     Called by c_bands:
     init_us_2    :      0.15s CPU      0.16s WALL (    1064 calls)
     cegterg      :      5.34s CPU      5.55s WALL (     448 calls)

     Called by sum_band:
     sum_band:bec :      0.01s CPU      0.01s WALL (     448 calls)
     addusdens    :      0.07s CPU      0.07s WALL (       8 calls)

     Called by *egterg:
     h_psi        :      4.11s CPU      4.28s WALL (    1472 calls)
     s_psi        :      0.13s CPU      0.14s WALL (    1472 calls)
     g_psi        :      0.01s CPU      0.01s WALL (     968 calls)
     cdiaghg      :      0.50s CPU      0.51s WALL (    1360 calls)

     Called by h_psi:
     h_psi:pot    :      4.09s CPU      4.26s WALL (    1472 calls)
     h_psi:calbec :      0.18s CPU      0.19s WALL (    1472 calls)
     vloc_psi     :      3.76s CPU      3.91s WALL (    1472 calls)
     add_vuspsi   :      0.13s CPU      0.14s WALL (    1472 calls)

     General routines
     calbec       :      0.29s CPU      0.31s WALL (    2200 calls)
     fft          :      0.04s CPU      0.04s WALL (     115 calls)
     ffts         :      0.00s CPU      0.00s WALL (       8 calls)
     fftw         :      4.27s CPU      4.44s WALL (   35366 calls)

     Parallel routines
     fft_scatt_xy :      0.37s CPU      0.38s WALL (   35489 calls)
     fft_scatt_yz :      1.07s CPU      1.11s WALL (   35489 calls)

     PWSCF        :     9.01s CPU         9.50s WALL


   This run was terminated on:  23: 4:22  26Mar2024            

=------------------------------------------------------------------------------=
   JOB DONE.
=------------------------------------------------------------------------------=
