
     Program PWSCF v.6.3MaX starts on 26Mar2024 at 22:41:56 

     This program is part of the open-source Quantum ESPRESSO suite
     for quantum simulation of materials; please cite
         "P. Giannozzi et al., J. Phys.:Condens. Matter 21 395502 (2009);
         "P. Giannozzi et al., J. Phys.:Condens. Matter 29 465901 (2017);
          URL http://www.quantum-espresso.org", 
     in publications or presentations arising from this work. More details at
     http://www.quantum-espresso.org/quote

     Parallel version (MPI), running on     5 processors

     MPI processes distributed on     1 nodes
     R & G space division:  proc/nbgrp/npool/nimage =       5
     Waiting for input...
     Reading input from standard input

     Current dimensions of program PWSCF are:
     Max number of different atomic species (ntypx) = 10
     Max number of k-points (npk) =  40000
     Max angular momentum in pseudopotentials (lmaxx) =  3
               file Ni.pbesol-spn-kjpaw_psl.1.0.0.UPF: wavefunction(s)  3P 3D renormalized

     Subspace diagonalization in iterative solution of the eigenvalue problem:
     a serial algorithm will be used


     Parallelization info
     --------------------
     sticks:   dense  smooth     PW     G-vecs:    dense   smooth      PW
     Min          67      67     21                  802      802     148
     Max          68      68     22                  804      804     151
     Sum         337     337    109                 4015     4015     749



     bravais-lattice index     =            2
     lattice parameter (alat)  =       6.6500  a.u.
     unit-cell volume          =      73.5199 (a.u.)^3
     number of atoms/cell      =            1
     number of atomic types    =            1
     number of electrons       =        18.00
     number of Kohn-Sham states=           13
     kinetic-energy cutoff     =      55.0000  Ry
     charge density cutoff     =     220.0000  Ry
     convergence threshold     =      1.0E-08
     mixing beta               =       0.7000
     number of iterations used =            8  plain     mixing
     Exchange-correlation      = SLA PW PSX PSC ( 1  4 10  8 0 0)

     celldm(1)=   6.650000  celldm(2)=   0.000000  celldm(3)=   0.000000
     celldm(4)=   0.000000  celldm(5)=   0.000000  celldm(6)=   0.000000

     crystal axes: (cart. coord. in units of alat)
               a(1) = (  -0.500000   0.000000   0.500000 )  
               a(2) = (   0.000000   0.500000   0.500000 )  
               a(3) = (  -0.500000   0.500000   0.000000 )  

     reciprocal axes: (cart. coord. in units 2 pi/alat)
               b(1) = ( -1.000000 -1.000000  1.000000 )  
               b(2) = (  1.000000  1.000000  1.000000 )  
               b(3) = ( -1.000000  1.000000 -1.000000 )  


     PseudoPot. # 1 for Ni read from file:
     /home/lorenzo/pseudos/Ni/Ni.pbesol-spn-kjpaw_psl.1.0.0.UPF
     MD5 check sum: ef06ee83099c2673f0516457bd731f51
     Pseudo is Projector augmented-wave + core cor, Zval = 18.0
     Generated using "atomic" code by A. Dal Corso v.6.3
     Shape of augmentation charge: PSQ
     Using radial grid of 1195 points,  6 beta functions with: 
                l(1) =   0
                l(2) =   0
                l(3) =   1
                l(4) =   1
                l(5) =   2
                l(6) =   2
     Q(r) pseudized with 0 coefficients 


     atomic species   valence    mass     pseudopotential
        Ni            18.00    58.69340     Ni( 1.00)

     48 Sym. Ops., with inversion, found



   Cartesian axes

     site n.     atom                  positions (alat units)
         1           Ni  tau(   1) = (   0.0000000   0.0000000   0.0000000  )

     number of k points=    16  gaussian smearing, width (Ry)=  0.0100
                       cart. coord. in units 2pi/alat
        k(    1) = (   0.0000000   0.0000000   0.0000000), wk =   0.0092593
        k(    2) = (  -0.1666667   0.1666667  -0.1666667), wk =   0.0740741
        k(    3) = (  -0.3333333   0.3333333  -0.3333333), wk =   0.0740741
        k(    4) = (   0.5000000  -0.5000000   0.5000000), wk =   0.0370370
        k(    5) = (   0.0000000   0.3333333   0.0000000), wk =   0.0555556
        k(    6) = (  -0.1666667   0.5000000  -0.1666667), wk =   0.2222222
        k(    7) = (   0.6666667  -0.3333333   0.6666667), wk =   0.2222222
        k(    8) = (   0.5000000  -0.1666667   0.5000000), wk =   0.2222222
        k(    9) = (   0.3333333   0.0000000   0.3333333), wk =   0.1111111
        k(   10) = (   0.0000000   0.6666667   0.0000000), wk =   0.0555556
        k(   11) = (   0.8333333  -0.1666667   0.8333333), wk =   0.2222222
        k(   12) = (   0.6666667  -0.0000000   0.6666667), wk =   0.1111111
        k(   13) = (   0.0000000  -1.0000000   0.0000000), wk =   0.0277778
        k(   14) = (   0.6666667  -0.3333333   1.0000000), wk =   0.2222222
        k(   15) = (   0.5000000  -0.1666667   0.8333333), wk =   0.2222222
        k(   16) = (  -0.3333333  -1.0000000   0.0000000), wk =   0.1111111

     Dense  grid:     4015 G-vectors     FFT dimensions: (  24,  24,  24)

     Estimated max dynamical RAM per process >       4.63 MB

     Estimated total dynamical RAM >      23.13 MB

     Check: negative/imaginary core charge=   -0.000009    0.000000

     Initial potential from superposition of free atoms

     starting charge   17.99977, renormalised to   18.00000
     Starting wfcs are   10 randomized atomic wfcs +    3 random wfcs
     Checking if some PAW data can be deallocated... 

     total cpu time spent up to now is        1.1 secs

     Self-consistent Calculation

     iteration #  1     ecut=    55.00 Ry     beta= 0.70
     Davidson diagonalization with overlap
     ethr =  1.00E-02,  avg # of iterations =  3.9

     Threshold (ethr) on eigenvalues was too large:
     Diagonalizing with lowered threshold

     Davidson diagonalization with overlap
     ethr =  8.10E-06,  avg # of iterations =  3.1

     total cpu time spent up to now is        1.5 secs

     total energy              =    -426.55969308 Ry
     Harris-Foulkes estimate   =    -426.56001683 Ry
     estimated scf accuracy    <       0.00139987 Ry

     iteration #  2     ecut=    55.00 Ry     beta= 0.70
     Davidson diagonalization with overlap
     ethr =  7.78E-06,  avg # of iterations =  1.0

     total cpu time spent up to now is        1.7 secs

     total energy              =    -426.55963771 Ry
     Harris-Foulkes estimate   =    -426.55979561 Ry
     estimated scf accuracy    <       0.00026278 Ry

     iteration #  3     ecut=    55.00 Ry     beta= 0.70
     Davidson diagonalization with overlap
     ethr =  1.46E-06,  avg # of iterations =  2.6

     total cpu time spent up to now is        2.0 secs

     total energy              =    -426.55957020 Ry
     Harris-Foulkes estimate   =    -426.55995762 Ry
     estimated scf accuracy    <       0.00121470 Ry

     iteration #  4     ecut=    55.00 Ry     beta= 0.70
     Davidson diagonalization with overlap
     ethr =  1.46E-06,  avg # of iterations =  2.1

     total cpu time spent up to now is        2.2 secs

     total energy              =    -426.55975948 Ry
     Harris-Foulkes estimate   =    -426.55976051 Ry
     estimated scf accuracy    <       0.00000344 Ry

     iteration #  5     ecut=    55.00 Ry     beta= 0.70
     Davidson diagonalization with overlap
     ethr =  1.91E-08,  avg # of iterations =  2.9

     total cpu time spent up to now is        2.4 secs

     total energy              =    -426.55976066 Ry
     Harris-Foulkes estimate   =    -426.55976069 Ry
     estimated scf accuracy    <       0.00000011 Ry

     iteration #  6     ecut=    55.00 Ry     beta= 0.70
     Davidson diagonalization with overlap
     ethr =  6.20E-10,  avg # of iterations =  2.0

     total cpu time spent up to now is        2.7 secs

     total energy              =    -426.55976065 Ry
     Harris-Foulkes estimate   =    -426.55976067 Ry
     estimated scf accuracy    <       0.00000003 Ry

     iteration #  7     ecut=    55.00 Ry     beta= 0.70
     Davidson diagonalization with overlap
     ethr =  1.94E-10,  avg # of iterations =  2.0

     total cpu time spent up to now is        2.9 secs

     total energy              =    -426.55976065 Ry
     Harris-Foulkes estimate   =    -426.55976066 Ry
     estimated scf accuracy    <       0.00000003 Ry

     iteration #  8     ecut=    55.00 Ry     beta= 0.70
     Davidson diagonalization with overlap
     ethr =  1.45E-10,  avg # of iterations =  1.0

     total cpu time spent up to now is        3.1 secs

     End of self-consistent calculation

          k = 0.0000 0.0000 0.0000 (   531 PWs)   bands (ev):

   -85.2660 -45.6605 -45.6605 -45.6605   8.6179  15.6491  15.6491  15.6491
    16.7730  16.7730  41.2823  45.2007  45.2007

          k =-0.1667 0.1667-0.1667 (   519 PWs)   bands (ev):

   -85.2571 -45.7090 -45.6666 -45.6666   9.6801  15.4028  15.8315  15.8315
    16.7320  16.7320  36.3304  42.0532  43.6767

          k =-0.3333 0.3333-0.3333 (   504 PWs)   bands (ev):

   -85.2395 -45.8187 -45.6780 -45.6780  12.1453  15.4981  15.7627  15.7627
    17.1499  17.1499  28.2773  40.6134  42.5643

          k = 0.5000-0.5000 0.5000 (   502 PWs)   bands (ev):

   -85.2309 -45.8738 -45.6851 -45.6851  13.0622  15.6142  15.6142  17.3285
    17.5093  17.5093  23.5774  39.7927  42.3158

          k = 0.0000 0.3333 0.0000 (   516 PWs)   bands (ev):

   -85.2542 -45.7066 -45.6786 -45.6786  10.0230  15.1572  16.0537  16.0537
    16.3494  16.9512  39.4090  39.7454  39.7454

          k =-0.1667 0.5000-0.1667 (   503 PWs)   bands (ev):

   -85.2395 -45.7877 -45.6941 -45.6915  12.0685  14.8065  15.7127  16.2293
    17.1242  17.2803  31.4572  37.7271  38.1852

          k = 0.6667-0.3333 0.6667 (   508 PWs)   bands (ev):

   -85.2282 -45.8516 -45.7210 -45.7001  13.5638  15.0550  15.6620  16.0374
    17.5349  19.5377  24.6598  35.3843  38.0239

          k = 0.5000-0.1667 0.5000 (   507 PWs)   bands (ev):

   -85.2310 -45.8349 -45.7276 -45.6871  13.3864  15.2587  15.3865  16.0288
    17.0407  18.8487  26.6203  33.9086  40.8364

          k = 0.3333 0.0000 0.3333 (   513 PWs)   bands (ev):

   -85.2455 -45.7634 -45.7005 -45.6693  11.2826  15.0681  15.7849  16.2039
    16.3654  17.3681  33.8995  34.6756  44.2574

          k = 0.0000 0.6667 0.0000 (   500 PWs)   bands (ev):

   -85.2309 -45.8116 -45.7155 -45.7155  12.8445  14.2380  16.6698  17.0485
    17.0485  17.3173  33.3207  34.5731  34.5731

          k = 0.8333-0.1667 0.8333 (   503 PWs)   bands (ev):

   -85.2224 -45.8407 -45.7516 -45.7245  13.5940  14.1294  16.2770  17.0013
    17.5934  20.3050  28.3800  29.6853  34.0407

          k = 0.6667-0.0000 0.6667 (   506 PWs)   bands (ev):

   -85.2225 -45.8067 -45.8041 -45.7099  14.2949  14.4550  15.4098  16.6562
    17.2287  22.5439  25.2399  28.3045  36.4251

          k = 0.0000-1.0000 0.0000 (   492 PWs)   bands (ev):

   -85.2193 -45.8610 -45.7347 -45.7347  13.2273  13.8069  17.5051  17.6875
    17.6875  20.0673  27.0541  32.4488  32.4488

          k = 0.6667-0.3333 1.0000 (   507 PWs)   bands (ev):

   -85.2282 -45.8200 -45.7466 -45.7065  13.6926  14.5785  15.2602  16.7971
    17.0483  19.1528  29.8067  30.9238  34.5701

          k = 0.5000-0.1667 0.8333 (   500 PWs)   bands (ev):

   -85.2223 -45.8274 -45.7706 -45.7172  14.4408  14.4466  15.1872  16.5549
    17.4541  22.7222  24.3692  31.2154  31.9386

          k =-0.3333-1.0000 0.0000 (   506 PWs)   bands (ev):

   -85.2196 -45.8339 -45.7702 -45.7410  13.8570  14.2991  15.8283  16.9498
    17.6871  23.1228  27.4100  28.0838  29.7237

     the Fermi energy is    17.4973 ev

!    total energy              =    -426.55976066 Ry
     Harris-Foulkes estimate   =    -426.55976066 Ry
     estimated scf accuracy    <          9.0E-10 Ry

     total all-electron energy =     -3039.018105 Ry

     The total energy is the sum of the following terms:

     one-electron contribution =    -184.86664056 Ry
     hartree contribution      =     104.44597936 Ry
     xc contribution           =     -33.91063385 Ry
     ewald contribution        =    -223.38275374 Ry
     one-center paw contrib.   =     -88.84359768 Ry
     smearing contrib. (-TS)   =      -0.00211419 Ry

     convergence has been achieved in   8 iterations

     Forces acting on atoms (cartesian axes, Ry/au):

     atom    1 type  1   force =     0.00000000    0.00000000    0.00000000

     Total force =     0.000000     Total SCF correction =     0.000000


     Computing stress (Cartesian axis) and pressure

          total   stress  (Ry/bohr**3)                   (kbar)     P= -296.98
  -0.00201886  -0.00000000   0.00000000       -296.98     -0.00      0.00
  -0.00000000  -0.00201886   0.00000000         -0.00   -296.98      0.00
   0.00000000  -0.00000000  -0.00201886          0.00     -0.00   -296.98


     Writing output data file Ni.save/

     init_run     :      0.33s CPU      0.35s WALL (       1 calls)
     electrons    :      1.85s CPU      2.04s WALL (       1 calls)
     forces       :      0.02s CPU      0.02s WALL (       1 calls)
     stress       :      0.06s CPU      0.06s WALL (       1 calls)

     Called by init_run:
     wfcinit      :      0.06s CPU      0.06s WALL (       1 calls)
     potinit      :      0.12s CPU      0.14s WALL (       1 calls)
     hinit0       :      0.13s CPU      0.13s WALL (       1 calls)

     Called by electrons:
     c_bands      :      0.91s CPU      0.97s WALL (       9 calls)
     sum_band     :      0.19s CPU      0.20s WALL (       9 calls)
     v_of_rho     :      0.02s CPU      0.03s WALL (       9 calls)
     newd         :      0.03s CPU      0.04s WALL (       9 calls)
     PAW_pot      :      0.79s CPU      0.92s WALL (       9 calls)
     mix_rho      :      0.00s CPU      0.00s WALL (       9 calls)

     Called by c_bands:
     init_us_2    :      0.02s CPU      0.03s WALL (     336 calls)
     cegterg      :      0.88s CPU      0.93s WALL (     144 calls)

     Called by sum_band:
     sum_band:bec :      0.00s CPU      0.00s WALL (     144 calls)
     addusdens    :      0.03s CPU      0.03s WALL (       9 calls)

     Called by *egterg:
     h_psi        :      0.64s CPU      0.69s WALL (     491 calls)
     s_psi        :      0.02s CPU      0.02s WALL (     491 calls)
     g_psi        :      0.00s CPU      0.00s WALL (     331 calls)
     cdiaghg      :      0.14s CPU      0.15s WALL (     459 calls)

     Called by h_psi:
     h_psi:pot    :      0.64s CPU      0.68s WALL (     491 calls)
     h_psi:calbec :      0.03s CPU      0.03s WALL (     491 calls)
     vloc_psi     :      0.59s CPU      0.63s WALL (     491 calls)
     add_vuspsi   :      0.02s CPU      0.02s WALL (     491 calls)

     General routines
     calbec       :      0.05s CPU      0.05s WALL (     715 calls)
     fft          :      0.02s CPU      0.02s WALL (     126 calls)
     ffts         :      0.00s CPU      0.00s WALL (       9 calls)
     fftw         :      0.66s CPU      0.70s WALL (   11252 calls)

     Parallel routines
     fft_scatt_xy :      0.06s CPU      0.07s WALL (   11387 calls)
     fft_scatt_yz :      0.17s CPU      0.18s WALL (   11387 calls)

     PWSCF        :     3.00s CPU         3.26s WALL


   This run was terminated on:  22:42: 0  26Mar2024            

=------------------------------------------------------------------------------=
   JOB DONE.
=------------------------------------------------------------------------------=
