
     Program PWSCF v.6.3MaX starts on 26Mar2024 at 23: 5:54 

     This program is part of the open-source Quantum ESPRESSO suite
     for quantum simulation of materials; please cite
         "P. Giannozzi et al., J. Phys.:Condens. Matter 21 395502 (2009);
         "P. Giannozzi et al., J. Phys.:Condens. Matter 29 465901 (2017);
          URL http://www.quantum-espresso.org", 
     in publications or presentations arising from this work. More details at
     http://www.quantum-espresso.org/quote

     Parallel version (MPI), running on     5 processors

     MPI processes distributed on     1 nodes
     R & G space division:  proc/nbgrp/npool/nimage =       5
     Waiting for input...
     Reading input from standard input

     Current dimensions of program PWSCF are:
     Max number of different atomic species (ntypx) = 10
     Max number of k-points (npk) =  40000
     Max angular momentum in pseudopotentials (lmaxx) =  3

     Subspace diagonalization in iterative solution of the eigenvalue problem:
     a serial algorithm will be used


     Parallelization info
     --------------------
     sticks:   dense  smooth     PW     G-vecs:    dense   smooth      PW
     Min         116     116     37                 1850     1850     327
     Max         117     117     38                 1853     1853     329
     Sum         583     583    187                 9257     9257    1639



     bravais-lattice index     =            2
     lattice parameter (alat)  =       6.6500  a.u.
     unit-cell volume          =      73.5199 (a.u.)^3
     number of atoms/cell      =            1
     number of atomic types    =            1
     number of electrons       =        18.00
     number of Kohn-Sham states=           13
     kinetic-energy cutoff     =      95.0000  Ry
     charge density cutoff     =     380.0000  Ry
     convergence threshold     =      1.0E-08
     mixing beta               =       0.7000
     number of iterations used =            8  plain     mixing
     Exchange-correlation      = PBESOL ( 1  4 10  8 0 0)

     celldm(1)=   6.650000  celldm(2)=   0.000000  celldm(3)=   0.000000
     celldm(4)=   0.000000  celldm(5)=   0.000000  celldm(6)=   0.000000

     crystal axes: (cart. coord. in units of alat)
               a(1) = (  -0.500000   0.000000   0.500000 )  
               a(2) = (   0.000000   0.500000   0.500000 )  
               a(3) = (  -0.500000   0.500000   0.000000 )  

     reciprocal axes: (cart. coord. in units 2 pi/alat)
               b(1) = ( -1.000000 -1.000000  1.000000 )  
               b(2) = (  1.000000  1.000000  1.000000 )  
               b(3) = ( -1.000000  1.000000 -1.000000 )  


     PseudoPot. # 1 for Ni read from file:
     /home/lorenzo/pseudos/Ni/Ni.pbesol-spn-rrkjus_psl.1.0.0.UPF
     MD5 check sum: 6fc0a587bf949a08f2faed986b854013
     Pseudo is Ultrasoft + core correction, Zval = 18.0
     Generated using "atomic" code by A. Dal Corso v.6.3
     Using radial grid of 1195 points,  6 beta functions with: 
                l(1) =   0
                l(2) =   0
                l(3) =   1
                l(4) =   1
                l(5) =   2
                l(6) =   2
     Q(r) pseudized with 0 coefficients 


     atomic species   valence    mass     pseudopotential
        Ni            18.00    58.69340     Ni( 1.00)

     48 Sym. Ops., with inversion, found



   Cartesian axes

     site n.     atom                  positions (alat units)
         1           Ni  tau(   1) = (   0.0000000   0.0000000   0.0000000  )

     number of k points=    16  gaussian smearing, width (Ry)=  0.0100
                       cart. coord. in units 2pi/alat
        k(    1) = (   0.0000000   0.0000000   0.0000000), wk =   0.0092593
        k(    2) = (  -0.1666667   0.1666667  -0.1666667), wk =   0.0740741
        k(    3) = (  -0.3333333   0.3333333  -0.3333333), wk =   0.0740741
        k(    4) = (   0.5000000  -0.5000000   0.5000000), wk =   0.0370370
        k(    5) = (   0.0000000   0.3333333   0.0000000), wk =   0.0555556
        k(    6) = (  -0.1666667   0.5000000  -0.1666667), wk =   0.2222222
        k(    7) = (   0.6666667  -0.3333333   0.6666667), wk =   0.2222222
        k(    8) = (   0.5000000  -0.1666667   0.5000000), wk =   0.2222222
        k(    9) = (   0.3333333   0.0000000   0.3333333), wk =   0.1111111
        k(   10) = (   0.0000000   0.6666667   0.0000000), wk =   0.0555556
        k(   11) = (   0.8333333  -0.1666667   0.8333333), wk =   0.2222222
        k(   12) = (   0.6666667  -0.0000000   0.6666667), wk =   0.1111111
        k(   13) = (   0.0000000  -1.0000000   0.0000000), wk =   0.0277778
        k(   14) = (   0.6666667  -0.3333333   1.0000000), wk =   0.2222222
        k(   15) = (   0.5000000  -0.1666667   0.8333333), wk =   0.2222222
        k(   16) = (  -0.3333333  -1.0000000   0.0000000), wk =   0.1111111

     Dense  grid:     9257 G-vectors     FFT dimensions: (  30,  30,  30)

     Estimated max dynamical RAM per process >       9.31 MB

     Estimated total dynamical RAM >      46.56 MB

     Check: negative/imaginary core charge=   -0.000003    0.000000

     Initial potential from superposition of free atoms

     starting charge   17.99977, renormalised to   18.00000
     Starting wfcs are   10 randomized atomic wfcs +    3 random wfcs

     total cpu time spent up to now is        1.1 secs

     Self-consistent Calculation

     iteration #  1     ecut=    95.00 Ry     beta= 0.70
     Davidson diagonalization with overlap
     ethr =  1.00E-02,  avg # of iterations =  3.5

     Threshold (ethr) on eigenvalues was too large:
     Diagonalizing with lowered threshold

     Davidson diagonalization with overlap
     ethr =  8.56E-06,  avg # of iterations =  3.8

     total cpu time spent up to now is        1.7 secs

     total energy              =    -339.40304685 Ry
     Harris-Foulkes estimate   =    -339.40349418 Ry
     estimated scf accuracy    <       0.00144272 Ry

     iteration #  2     ecut=    95.00 Ry     beta= 0.70
     Davidson diagonalization with overlap
     ethr =  8.02E-06,  avg # of iterations =  1.0

     total cpu time spent up to now is        1.9 secs

     total energy              =    -339.40301969 Ry
     Harris-Foulkes estimate   =    -339.40314347 Ry
     estimated scf accuracy    <       0.00020355 Ry

     iteration #  3     ecut=    95.00 Ry     beta= 0.70
     Davidson diagonalization with overlap
     ethr =  1.13E-06,  avg # of iterations =  2.7

     total cpu time spent up to now is        2.2 secs

     total energy              =    -339.40295508 Ry
     Harris-Foulkes estimate   =    -339.40327005 Ry
     estimated scf accuracy    <       0.00097804 Ry

     iteration #  4     ecut=    95.00 Ry     beta= 0.70
     Davidson diagonalization with overlap
     ethr =  1.13E-06,  avg # of iterations =  2.1

     total cpu time spent up to now is        2.5 secs

     total energy              =    -339.40310895 Ry
     Harris-Foulkes estimate   =    -339.40311007 Ry
     estimated scf accuracy    <       0.00000360 Ry

     iteration #  5     ecut=    95.00 Ry     beta= 0.70
     Davidson diagonalization with overlap
     ethr =  2.00E-08,  avg # of iterations =  2.9

     total cpu time spent up to now is        2.7 secs

     total energy              =    -339.40311001 Ry
     Harris-Foulkes estimate   =    -339.40311002 Ry
     estimated scf accuracy    <       0.00000004 Ry

     iteration #  6     ecut=    95.00 Ry     beta= 0.70
     Davidson diagonalization with overlap
     ethr =  2.07E-10,  avg # of iterations =  2.0

     total cpu time spent up to now is        3.0 secs

     End of self-consistent calculation

          k = 0.0000 0.0000 0.0000 (  1139 PWs)   bands (ev):

   -85.2461 -45.6548 -45.6548 -45.6548   8.6000  15.6474  15.6474  15.6474
    16.7695  16.7695  41.2827  45.1959  45.1959

          k =-0.1667 0.1667-0.1667 (  1167 PWs)   bands (ev):

   -85.2375 -45.7112 -45.6634 -45.6634   9.6580  15.3990  15.8291  15.8291
    16.7272  16.7272  36.3187  42.0470  43.6687

          k =-0.3333 0.3333-0.3333 (  1149 PWs)   bands (ev):

   -85.2203 -45.8225 -45.6793 -45.6793  12.1261  15.4926  15.7586  15.7586
    17.1444  17.1444  28.2516  40.6099  42.5566

          k = 0.5000-0.5000 0.5000 (  1158 PWs)   bands (ev):

   -85.2117 -45.8782 -45.6874 -45.6874  13.0515  15.6096  15.6096  17.3259
    17.5044  17.5044  23.5348  39.7916  42.3100

          k = 0.0000 0.3333 0.0000 (  1154 PWs)   bands (ev):

   -85.2346 -45.7093 -45.6760 -45.6760  10.0003  15.1549  16.0502  16.0502
    16.3433  16.9474  39.4040  39.7382  39.7382

          k =-0.1667 0.5000-0.1667 (  1151 PWs)   bands (ev):

   -85.2204 -45.7910 -45.6950 -45.6944  12.0469  14.8026  15.7077  16.2252
    17.1180  17.2746  31.4388  37.7207  38.1799

          k = 0.6667-0.3333 0.6667 (  1153 PWs)   bands (ev):

   -85.2089 -45.8556 -45.7198 -45.7002  13.5562  15.0510  15.6586  16.0339
    17.5300  19.5297  24.6270  35.3710  38.0178

          k = 0.5000-0.1667 0.5000 (  1144 PWs)   bands (ev):

   -85.2118 -45.8377 -45.7269 -45.6873  13.3753  15.2546  15.3825  16.0248
    17.0367  18.8382  26.5953  33.8911  40.8293

          k = 0.3333 0.0000 0.3333 (  1147 PWs)   bands (ev):

   -85.2261 -45.7644 -45.6997 -45.6689  11.2608  15.0649  15.7807  16.2016
    16.3601  17.3628  33.8930  34.6513  44.2496

          k = 0.0000 0.6667 0.0000 (  1150 PWs)   bands (ev):

   -85.2118 -45.8146 -45.7178 -45.7178  12.8299  14.2347  16.6573  17.0442
    17.0442  17.3122  33.3047  34.5681  34.5681

          k = 0.8333-0.1667 0.8333 (  1149 PWs)   bands (ev):

   -85.2033 -45.8434 -45.7518 -45.7257  13.5876  14.1270  16.2729  16.9964
    17.5893  20.2941  28.3687  29.6479  34.0360

          k = 0.6667-0.0000 0.6667 (  1141 PWs)   bands (ev):

   -85.2032 -45.8062 -45.8051 -45.7105  14.2899  14.4515  15.4071  16.6515
    17.2250  22.5292  25.2356  28.2598  36.4195

          k = 0.0000-1.0000 0.0000 (  1162 PWs)   bands (ev):

   -85.2004 -45.8662 -45.7388 -45.7388  13.2205  13.8034  17.4991  17.6829
    17.6829  20.0648  27.0074  32.4449  32.4449

          k = 0.6667-0.3333 1.0000 (  1151 PWs)   bands (ev):

   -85.2089 -45.8215 -45.7470 -45.7065  13.6821  14.5757  15.2550  16.7924
    17.0451  19.1411  29.8012  30.8950  34.5446

          k = 0.5000-0.1667 0.8333 (  1152 PWs)   bands (ev):

   -85.2032 -45.8290 -45.7737 -45.7193  14.4352  14.4423  15.1840  16.5498
    17.4496  22.7182  24.3383  31.2096  31.8912

          k =-0.3333-1.0000 0.0000 (  1142 PWs)   bands (ev):

   -85.2004 -45.8343 -45.7704 -45.7397  13.8530  14.2966  15.8259  16.9453
    17.6837  23.1194  27.3824  28.0791  29.6771

     the Fermi energy is    17.4926 ev

!    total energy              =    -339.40311002 Ry
     Harris-Foulkes estimate   =    -339.40311002 Ry
     estimated scf accuracy    <          2.3E-09 Ry

     The total energy is the sum of the following terms:

     one-electron contribution =    -186.56416979 Ry
     hartree contribution      =     104.46150106 Ry
     xc contribution           =     -33.91557768 Ry
     ewald contribution        =    -223.38275369 Ry
     smearing contrib. (-TS)   =      -0.00210992 Ry

     convergence has been achieved in   6 iterations

     Forces acting on atoms (cartesian axes, Ry/au):

     atom    1 type  1   force =     0.00000000    0.00000000    0.00000000

     Total force =     0.000000     Total SCF correction =     0.000000


     Computing stress (Cartesian axis) and pressure

          total   stress  (Ry/bohr**3)                   (kbar)     P= -125.84
  -0.00085542  -0.00000000  -0.00000000       -125.84     -0.00     -0.00
  -0.00000000  -0.00085542   0.00000000         -0.00   -125.84      0.00
  -0.00000000   0.00000000  -0.00085542         -0.00      0.00   -125.84


     Writing output data file Ni.save/

     init_run     :      0.30s CPU      0.30s WALL (       1 calls)
     electrons    :      1.85s CPU      1.93s WALL (       1 calls)
     forces       :      0.04s CPU      0.04s WALL (       1 calls)
     stress       :      0.13s CPU      0.13s WALL (       1 calls)

     Called by init_run:
     wfcinit      :      0.09s CPU      0.09s WALL (       1 calls)
     potinit      :      0.01s CPU      0.01s WALL (       1 calls)
     hinit0       :      0.17s CPU      0.18s WALL (       1 calls)

     Called by electrons:
     c_bands      :      1.44s CPU      1.50s WALL (       7 calls)
     sum_band     :      0.32s CPU      0.33s WALL (       7 calls)
     v_of_rho     :      0.04s CPU      0.04s WALL (       7 calls)
     newd         :      0.07s CPU      0.07s WALL (       7 calls)
     mix_rho      :      0.00s CPU      0.00s WALL (       7 calls)

     Called by c_bands:
     init_us_2    :      0.04s CPU      0.04s WALL (     272 calls)
     cegterg      :      1.38s CPU      1.44s WALL (     112 calls)

     Called by sum_band:
     sum_band:bec :      0.00s CPU      0.00s WALL (     112 calls)
     addusdens    :      0.06s CPU      0.06s WALL (       7 calls)

     Called by *egterg:
     h_psi        :      1.09s CPU      1.13s WALL (     416 calls)
     s_psi        :      0.03s CPU      0.04s WALL (     416 calls)
     g_psi        :      0.00s CPU      0.00s WALL (     288 calls)
     cdiaghg      :      0.14s CPU      0.14s WALL (     384 calls)

     Called by h_psi:
     h_psi:pot    :      1.08s CPU      1.13s WALL (     416 calls)
     h_psi:calbec :      0.05s CPU      0.05s WALL (     416 calls)
     vloc_psi     :      1.00s CPU      1.04s WALL (     416 calls)
     add_vuspsi   :      0.03s CPU      0.04s WALL (     416 calls)

     General routines
     calbec       :      0.08s CPU      0.09s WALL (     608 calls)
     fft          :      0.03s CPU      0.03s WALL (     104 calls)
     ffts         :      0.00s CPU      0.00s WALL (       7 calls)
     fftw         :      1.13s CPU      1.17s WALL (    9102 calls)

     Parallel routines
     fft_scatt_xy :      0.09s CPU      0.10s WALL (    9213 calls)
     fft_scatt_yz :      0.33s CPU      0.34s WALL (    9213 calls)

     PWSCF        :     3.08s CPU         3.22s WALL


   This run was terminated on:  23: 5:57  26Mar2024            

=------------------------------------------------------------------------------=
   JOB DONE.
=------------------------------------------------------------------------------=
