
     Program PWSCF v.6.3MaX starts on 26Mar2024 at 22:18:25 

     This program is part of the open-source Quantum ESPRESSO suite
     for quantum simulation of materials; please cite
         "P. Giannozzi et al., J. Phys.:Condens. Matter 21 395502 (2009);
         "P. Giannozzi et al., J. Phys.:Condens. Matter 29 465901 (2017);
          URL http://www.quantum-espresso.org", 
     in publications or presentations arising from this work. More details at
     http://www.quantum-espresso.org/quote

     Parallel version (MPI), running on     5 processors

     MPI processes distributed on     1 nodes
     R & G space division:  proc/nbgrp/npool/nimage =       5
     Waiting for input...
     Reading input from standard input

     Current dimensions of program PWSCF are:
     Max number of different atomic species (ntypx) = 10
     Max number of k-points (npk) =  40000
     Max angular momentum in pseudopotentials (lmaxx) =  3

     Subspace diagonalization in iterative solution of the eigenvalue problem:
     a serial algorithm will be used


     Parallelization info
     --------------------
     sticks:   dense  smooth     PW     G-vecs:    dense   smooth      PW
     Min         119     119     39                 1967     1967     361
     Max         119     119     40                 1969     1969     363
     Sum         595     595    199                 9841     9841    1807



     bravais-lattice index     =            2
     lattice parameter (alat)  =       6.6500  a.u.
     unit-cell volume          =      73.5199 (a.u.)^3
     number of atoms/cell      =            1
     number of atomic types    =            1
     number of electrons       =        18.00
     number of Kohn-Sham states=           13
     kinetic-energy cutoff     =     100.0000  Ry
     charge density cutoff     =     400.0000  Ry
     convergence threshold     =      1.0E-08
     mixing beta               =       0.7000
     number of iterations used =            8  plain     mixing
     Exchange-correlation      = PBE ( 1  4  3  4 0 0)

     celldm(1)=   6.650000  celldm(2)=   0.000000  celldm(3)=   0.000000
     celldm(4)=   0.000000  celldm(5)=   0.000000  celldm(6)=   0.000000

     crystal axes: (cart. coord. in units of alat)
               a(1) = (  -0.500000   0.000000   0.500000 )  
               a(2) = (   0.000000   0.500000   0.500000 )  
               a(3) = (  -0.500000   0.500000   0.000000 )  

     reciprocal axes: (cart. coord. in units 2 pi/alat)
               b(1) = ( -1.000000 -1.000000  1.000000 )  
               b(2) = (  1.000000  1.000000  1.000000 )  
               b(3) = ( -1.000000  1.000000 -1.000000 )  


     PseudoPot. # 1 for Ni read from file:
     /home/lorenzo/pseudos/Ni/Ni.pbe-spn-rrkjus_psl.1.0.0.UPF
     MD5 check sum: 8b3fc9aac6dafe35f580d41bb18c3945
     Pseudo is Ultrasoft + core correction, Zval = 18.0
     Generated using "atomic" code by A. Dal Corso v.6.3
     Using radial grid of 1195 points,  6 beta functions with: 
                l(1) =   0
                l(2) =   0
                l(3) =   1
                l(4) =   1
                l(5) =   2
                l(6) =   2
     Q(r) pseudized with 0 coefficients 


     atomic species   valence    mass     pseudopotential
        Ni            18.00    58.69340     Ni( 1.00)

     48 Sym. Ops., with inversion, found



   Cartesian axes

     site n.     atom                  positions (alat units)
         1           Ni  tau(   1) = (   0.0000000   0.0000000   0.0000000  )

     number of k points=    47  gaussian smearing, width (Ry)=  0.0100
                       cart. coord. in units 2pi/alat
        k(    1) = (   0.0000000   0.0000000   0.0000000), wk =   0.0020000
        k(    2) = (  -0.1000000   0.1000000  -0.1000000), wk =   0.0160000
        k(    3) = (  -0.2000000   0.2000000  -0.2000000), wk =   0.0160000
        k(    4) = (  -0.3000000   0.3000000  -0.3000000), wk =   0.0160000
        k(    5) = (  -0.4000000   0.4000000  -0.4000000), wk =   0.0160000
        k(    6) = (   0.5000000  -0.5000000   0.5000000), wk =   0.0080000
        k(    7) = (   0.0000000   0.2000000   0.0000000), wk =   0.0120000
        k(    8) = (  -0.1000000   0.3000000  -0.1000000), wk =   0.0480000
        k(    9) = (  -0.2000000   0.4000000  -0.2000000), wk =   0.0480000
        k(   10) = (  -0.3000000   0.5000000  -0.3000000), wk =   0.0480000
        k(   11) = (   0.6000000  -0.4000000   0.6000000), wk =   0.0480000
        k(   12) = (   0.5000000  -0.3000000   0.5000000), wk =   0.0480000
        k(   13) = (   0.4000000  -0.2000000   0.4000000), wk =   0.0480000
        k(   14) = (   0.3000000  -0.1000000   0.3000000), wk =   0.0480000
        k(   15) = (   0.2000000   0.0000000   0.2000000), wk =   0.0240000
        k(   16) = (   0.0000000   0.4000000   0.0000000), wk =   0.0120000
        k(   17) = (  -0.1000000   0.5000000  -0.1000000), wk =   0.0480000
        k(   18) = (  -0.2000000   0.6000000  -0.2000000), wk =   0.0480000
        k(   19) = (   0.7000000  -0.3000000   0.7000000), wk =   0.0480000
        k(   20) = (   0.6000000  -0.2000000   0.6000000), wk =   0.0480000
        k(   21) = (   0.5000000  -0.1000000   0.5000000), wk =   0.0480000
        k(   22) = (   0.4000000   0.0000000   0.4000000), wk =   0.0240000
        k(   23) = (   0.0000000   0.6000000   0.0000000), wk =   0.0120000
        k(   24) = (  -0.1000000   0.7000000  -0.1000000), wk =   0.0480000
        k(   25) = (   0.8000000  -0.2000000   0.8000000), wk =   0.0480000
        k(   26) = (   0.7000000  -0.1000000   0.7000000), wk =   0.0480000
        k(   27) = (   0.6000000  -0.0000000   0.6000000), wk =   0.0240000
        k(   28) = (   0.0000000   0.8000000   0.0000000), wk =   0.0120000
        k(   29) = (   0.9000000  -0.1000000   0.9000000), wk =   0.0480000
        k(   30) = (   0.8000000   0.0000000   0.8000000), wk =   0.0240000
        k(   31) = (   0.0000000  -1.0000000   0.0000000), wk =   0.0060000
        k(   32) = (  -0.2000000   0.4000000   0.0000000), wk =   0.0480000
        k(   33) = (  -0.3000000   0.5000000  -0.1000000), wk =   0.0960000
        k(   34) = (   0.6000000  -0.4000000   0.8000000), wk =   0.0960000
        k(   35) = (   0.5000000  -0.3000000   0.7000000), wk =   0.0480000
        k(   36) = (  -0.2000000   0.6000000   0.0000000), wk =   0.0480000
        k(   37) = (   0.7000000  -0.3000000   0.9000000), wk =   0.0960000
        k(   38) = (   0.6000000  -0.2000000   0.8000000), wk =   0.0960000
        k(   39) = (   0.5000000  -0.1000000   0.7000000), wk =   0.0960000
        k(   40) = (   0.4000000   0.0000000   0.6000000), wk =   0.0480000
        k(   41) = (   0.8000000  -0.2000000   1.0000000), wk =   0.0480000
        k(   42) = (   0.7000000  -0.1000000   0.9000000), wk =   0.0960000
        k(   43) = (   0.6000000   0.0000000   0.8000000), wk =   0.0480000
        k(   44) = (  -0.2000000  -1.0000000   0.0000000), wk =   0.0240000
        k(   45) = (   0.6000000  -0.2000000   1.0000000), wk =   0.0480000
        k(   46) = (   0.5000000  -0.1000000   0.9000000), wk =   0.0480000
        k(   47) = (  -0.4000000  -1.0000000   0.0000000), wk =   0.0240000

     Dense  grid:     9841 G-vectors     FFT dimensions: (  30,  30,  30)

     Estimated max dynamical RAM per process >      11.36 MB

     Estimated total dynamical RAM >      56.78 MB

     Check: negative/imaginary core charge=   -0.000004    0.000000

     Initial potential from superposition of free atoms

     starting charge   17.99975, renormalised to   18.00000
     Starting wfcs are   10 randomized atomic wfcs +    3 random wfcs

     total cpu time spent up to now is        1.2 secs

     Self-consistent Calculation

     iteration #  1     ecut=   100.00 Ry     beta= 0.70
     Davidson diagonalization with overlap
     ethr =  1.00E-02,  avg # of iterations =  3.6

     Threshold (ethr) on eigenvalues was too large:
     Diagonalizing with lowered threshold

     Davidson diagonalization with overlap
     ethr =  2.39E-05,  avg # of iterations =  2.7

     total cpu time spent up to now is        2.7 secs

     total energy              =    -339.60596363 Ry
     Harris-Foulkes estimate   =    -339.60865418 Ry
     estimated scf accuracy    <       0.00430051 Ry

     iteration #  2     ecut=   100.00 Ry     beta= 0.70
     Davidson diagonalization with overlap
     ethr =  2.39E-05,  avg # of iterations =  2.4

     total cpu time spent up to now is        3.5 secs

     total energy              =    -339.60504795 Ry
     Harris-Foulkes estimate   =    -339.61072399 Ry
     estimated scf accuracy    <       0.01579022 Ry

     iteration #  3     ecut=   100.00 Ry     beta= 0.70
     Davidson diagonalization with overlap
     ethr =  2.39E-05,  avg # of iterations =  2.2

     total cpu time spent up to now is        4.2 secs

     total energy              =    -339.60775898 Ry
     Harris-Foulkes estimate   =    -339.60780186 Ry
     estimated scf accuracy    <       0.00015953 Ry

     iteration #  4     ecut=   100.00 Ry     beta= 0.70
     Davidson diagonalization with overlap
     ethr =  8.86E-07,  avg # of iterations =  2.1

     total cpu time spent up to now is        4.8 secs

     total energy              =    -339.60778390 Ry
     Harris-Foulkes estimate   =    -339.60778377 Ry
     estimated scf accuracy    <       0.00000057 Ry

     iteration #  5     ecut=   100.00 Ry     beta= 0.70
     Davidson diagonalization with overlap
     ethr =  3.14E-09,  avg # of iterations =  2.6

     total cpu time spent up to now is        5.7 secs

     total energy              =    -339.60778424 Ry
     Harris-Foulkes estimate   =    -339.60778426 Ry
     estimated scf accuracy    <       0.00000009 Ry

     iteration #  6     ecut=   100.00 Ry     beta= 0.70
     Davidson diagonalization with overlap
     ethr =  5.21E-10,  avg # of iterations =  1.2

     total cpu time spent up to now is        6.3 secs

     End of self-consistent calculation

          k = 0.0000 0.0000 0.0000 (  1243 PWs)   bands (ev):

   -85.2651 -45.5343 -45.5343 -45.5343   8.8236  15.9207  15.9207  15.9207
    17.0293  17.0293  41.4883  45.4354  45.4354

          k =-0.1000 0.1000-0.1000 (  1249 PWs)   bands (ev):

   -85.2619 -45.5556 -45.5373 -45.5373   9.2131  15.8163  16.0044  16.0044
    16.9964  16.9964  39.7743  42.8038  44.6306

          k =-0.2000 0.2000-0.2000 (  1242 PWs)   bands (ev):

   -85.2534 -45.6111 -45.5453 -45.5453  10.3218  15.5984  16.1303  16.1303
    17.0181  17.0181  34.8592  42.0164  43.6177

          k =-0.3000 0.3000-0.3000 (  1254 PWs)   bands (ev):

   -85.2430 -45.6795 -45.5552 -45.5552  11.8733  15.5882  16.0718  16.0718
    17.2904  17.2904  29.9860  41.1171  42.9564

          k =-0.4000 0.4000-0.4000 (  1251 PWs)   bands (ev):

   -85.2345 -45.7344 -45.5632 -45.5632  13.0332  15.9343  15.9343  16.4700
    17.6288  17.6288  25.8514  40.3041  42.6453

          k = 0.5000-0.5000 0.5000 (  1224 PWs)   bands (ev):

   -85.2312 -45.7552 -45.5662 -45.5662  13.3076  15.8735  15.8735  17.5459
    17.7735  17.7735  23.7899  39.9902  42.5764

          k = 0.0000 0.2000 0.0000 (  1247 PWs)   bands (ev):

   -85.2608 -45.5549 -45.5422 -45.5422   9.3418  15.7289  16.0687  16.0687
    16.8563  17.0970  40.5626  42.4760  42.4761

          k =-0.1000 0.3000-0.1000 (  1260 PWs)   bands (ev):

   -85.2541 -45.5962 -45.5517 -45.5483  10.2095  15.5070  16.2020  16.2304
    16.7641  17.1752  36.8080  40.8901  40.9263

          k =-0.2000 0.4000-0.2000 (  1243 PWs)   bands (ev):

   -85.2443 -45.6583 -45.5621 -45.5580  11.6383  15.3418  16.0615  16.2562
    17.1281  17.3974  31.7998  39.9342  40.0769

          k =-0.3000 0.5000-0.3000 (  1242 PWs)   bands (ev):

   -85.2352 -45.7156 -45.5698 -45.5695  13.0112  15.6034  15.8821  16.1365
    17.6832  17.8932  27.3135  39.1161  39.6796

          k = 0.6000-0.4000 0.6000 (  1229 PWs)   bands (ev):

   -85.2302 -45.7463 -45.5790 -45.5710  13.5105  15.6794  16.0318  16.4206
    17.7832  19.0267  24.1487  38.1140  40.2388

          k = 0.5000-0.3000 0.5000 (  1228 PWs)   bands (ev):

   -85.2313 -45.7394 -45.5818 -45.5661  13.4380  15.7353  16.0330  16.2739
    17.5898  18.7662  24.9481  37.4078  41.2211

          k = 0.4000-0.2000 0.4000 (  1249 PWs)   bands (ev):

   -85.2380 -45.6977 -45.5769 -45.5568  12.6384  15.5240  15.9215  16.1506
    17.1825  17.9397  28.7345  37.2658  42.3486

          k = 0.3000-0.1000 0.3000 (  1246 PWs)   bands (ev):

   -85.2478 -45.6372 -45.5656 -45.5463  11.1261  15.4257  16.1032  16.2772
    16.8043  17.4170  33.4403  37.7193  44.0726

          k = 0.2000 0.0000 0.2000 (  1253 PWs)   bands (ev):

   -85.2569 -45.5829 -45.5506 -45.5389   9.8438  15.6419  16.1187  16.1354
    16.8275  17.1199  38.1145  39.1554  44.4811

          k = 0.0000 0.4000 0.0000 (  1251 PWs)   bands (ev):

   -85.2496 -45.6082 -45.5630 -45.5630  10.7954  15.2431  16.4731  16.4918
    16.4918  17.2760  38.8055  38.8056  39.2127

          k =-0.1000 0.5000-0.1000 (  1254 PWs)   bands (ev):

   -85.2415 -45.6516 -45.5751 -45.5749  11.9465  14.9900  16.1318  16.6602
    17.0879  17.4580  34.0998  37.4493  38.1679

          k =-0.2000 0.6000-0.2000 (  1252 PWs)   bands (ev):

   -85.2331 -45.6978 -45.5916 -45.5829  13.2455  14.9157  15.8342  16.5975
    17.7259  18.2012  29.3923  36.1292  36.9287

          k = 0.7000-0.3000 0.7000 (  1238 PWs)   bands (ev):

   -85.2274 -45.7259 -45.6094 -45.5838  13.9560  15.0630  15.8182  16.4691
    17.8097  20.0581  25.4177  34.3245  37.3466

          k = 0.6000-0.2000 0.6000 (  1228 PWs)   bands (ev):

   -85.2267 -45.7265 -45.6208 -45.5775  14.0882  15.2064  15.8162  16.3975
    17.5907  20.8049  24.4988  33.0840  38.7154

          k = 0.5000-0.1000 0.5000 (  1244 PWs)   bands (ev):

   -85.2313 -45.7028 -45.6181 -45.5663  13.7064  15.3300  15.5326  16.4341
    17.1495  19.1707  28.0135  32.5526  40.9068

          k = 0.4000 0.0000 0.4000 (  1241 PWs)   bands (ev):

   -85.2394 -45.6689 -45.5968 -45.5543  12.4535  15.2297  15.8672  16.5589
    16.6810  18.1020  32.2185  33.0734  43.1330

          k = 0.0000 0.6000 0.0000 (  1266 PWs)   bands (ev):

   -85.2357 -45.6730 -45.5887 -45.5887  12.6321  14.6724  16.5199  17.1039
    17.1039  17.5014  35.3283  35.6723  35.6723

          k =-0.1000 0.7000-0.1000 (  1246 PWs)   bands (ev):

   -85.2290 -45.7029 -45.6047 -45.5980  13.3786  14.4912  16.4996  17.1889
    17.7334  18.2362  31.8804  32.9461  34.7835

          k = 0.8000-0.2000 0.8000 (  1241 PWs)   bands (ev):

   -85.2240 -45.7170 -45.6305 -45.5996  13.9542  14.5150  16.2051  17.0631
    17.8464  20.5051  27.7057  30.8348  34.9344

          k = 0.7000-0.1000 0.7000 (  1232 PWs)   bands (ev):

   -85.2226 -45.7064 -45.6594 -45.5927  14.4020  14.6551  15.8374  16.9103
    17.6509  23.1332  24.5098  29.4242  36.1315

          k = 0.6000-0.0000 0.6000 (  1238 PWs)   bands (ev):

   -85.2254 -45.6942 -45.6615 -45.5800  14.4854  15.0010  15.4037  16.7312
    17.3150  21.0734  27.0122  29.2281  38.2038

          k = 0.0000 0.8000 0.0000 (  1246 PWs)   bands (ev):

   -85.2244 -45.7242 -45.6093 -45.6093  13.4286  14.2326  17.6872  17.6990
    17.6990  18.3744  30.1394  33.4924  33.4924

          k = 0.9000-0.1000 0.9000 (  1239 PWs)   bands (ev):

   -85.2212 -45.7333 -45.6237 -45.6124  13.6077  14.1935  17.2869  17.5854
    17.8954  20.4782  28.2121  30.7094  33.2882

          k = 0.8000 0.0000 0.8000 (  1248 PWs)   bands (ev):

   -85.2205 -45.7199 -45.6497 -45.6061  13.9680  14.3757  16.5371  17.3574
    17.7884  22.7622  26.8034  27.8383  34.2291

          k = 0.0000-1.0000 0.0000 (  1234 PWs)   bands (ev):

   -85.2201 -45.7434 -45.6171 -45.6171  13.4660  14.0693  17.7590  17.9586
    17.9586  20.2953  27.2459  32.6928  32.6928

          k =-0.2000 0.4000 0.0000 (  1251 PWs)   bands (ev):

   -85.2468 -45.6319 -45.5724 -45.5538  11.2448  15.2637  16.1148  16.5080
    16.7275  17.4436  35.3155  35.9906  41.9259

          k =-0.3000 0.5000-0.1000 (  1251 PWs)   bands (ev):

   -85.2376 -45.6798 -45.5913 -45.5634  12.6740  15.1379  15.8175  16.5111
    17.1062  18.0561  30.7125  35.0508  39.5961

          k = 0.6000-0.4000 0.8000 (  1242 PWs)   bands (ev):

   -85.2302 -45.7200 -45.6025 -45.5737  13.7106  15.3253  15.6872  16.3711
    17.5598  19.2143  26.4406  35.0507  37.5897

          k = 0.5000-0.3000 0.7000 (  1230 PWs)   bands (ev):

   -85.2274 -45.7354 -45.6058 -45.5782  13.9375  15.3077  15.9623  16.2949
    17.7134  20.5366  23.9973  35.4305  36.5147

          k =-0.2000 0.6000 0.0000 (  1248 PWs)   bands (ev):

   -85.2342 -45.6822 -45.5992 -45.5815  12.9996  14.7746  15.9451  17.1035
    17.1572  18.0619  32.9069  33.4539  36.0680

          k = 0.7000-0.3000 0.9000 (  1236 PWs)   bands (ev):

   -85.2274 -45.7068 -45.6211 -45.5907  13.9233  14.7546  15.6983  16.9555
    17.6085  19.5446  28.6618  32.9189  33.8866

          k = 0.6000-0.2000 0.8000 (  1232 PWs)   bands (ev):

   -85.2240 -45.7147 -45.6398 -45.5932  14.3982  14.7980  15.6321  16.7658
    17.7261  21.9135  24.9545  31.8575  33.8489

          k = 0.5000-0.1000 0.7000 (  1238 PWs)   bands (ev):

   -85.2250 -45.7066 -45.6463 -45.5861  14.4731  14.9452  15.4140  16.7221
    17.5215  21.2453  26.0202  30.8389  35.2079

          k = 0.4000 0.0000 0.6000 (  1244 PWs)   bands (ev):

   -85.2303 -45.6948 -45.6271 -45.5740  13.8606  15.0556  15.4141  16.7896
    17.1372  19.2774  29.7034  30.9462  37.1944

          k = 0.8000-0.2000 1.0000 (  1237 PWs)   bands (ev):

   -85.2240 -45.7184 -45.6210 -45.6072  13.7262  14.3890  16.5218  17.5077
    17.6968  19.7855  30.3882  31.1521  31.9690

          k = 0.7000-0.1000 0.9000 (  1239 PWs)   bands (ev):

   -85.2212 -45.7145 -45.6463 -45.6095  14.0802  14.5104  16.1513  17.2381
    17.8492  22.3114  27.4028  28.8111  32.0562

          k = 0.6000 0.0000 0.8000 (  1234 PWs)   bands (ev):

   -85.2216 -45.6893 -45.6775 -45.6005  14.4927  14.7084  15.6354  16.9774
    17.7033  23.9687  25.0489  28.3055  33.3128

          k =-0.2000-1.0000 0.0000 (  1230 PWs)   bands (ev):

   -85.2201 -45.7315 -45.6292 -45.6176  13.7305  14.2448  16.9647  17.5322
    17.9590  21.7237  27.3704  30.4858  31.2647

          k = 0.6000-0.2000 1.0000 (  1231 PWs)   bands (ev):

   -85.2229 -45.7020 -45.6515 -45.6027  14.3735  14.8623  15.4100  17.0503
    17.6932  21.6940  27.9305  29.5996  31.6172

          k = 0.5000-0.1000 0.9000 (  1234 PWs)   bands (ev):

   -85.2212 -45.6920 -45.6696 -45.6091  14.4930  14.9988  15.2887  16.9262
    17.8349  24.2732  25.1065  29.6661  30.3761

          k =-0.4000-1.0000 0.0000 (  1232 PWs)   bands (ev):

   -85.2201 -45.6999 -45.6609 -45.6184  14.2668  14.7824  15.7011  17.0512
    17.9596  24.2707  27.2593  27.7863  29.3989

     the Fermi energy is    17.8001 ev

!    total energy              =    -339.60778425 Ry
     Harris-Foulkes estimate   =    -339.60778425 Ry
     estimated scf accuracy    <          6.8E-10 Ry

     The total energy is the sum of the following terms:

     one-electron contribution =    -186.70678569 Ry
     hartree contribution      =     104.81517729 Ry
     xc contribution           =     -34.33126988 Ry
     ewald contribution        =    -223.38275369 Ry
     smearing contrib. (-TS)   =      -0.00215228 Ry

     convergence has been achieved in   6 iterations

     Forces acting on atoms (cartesian axes, Ry/au):

     atom    1 type  1   force =     0.00000000    0.00000000    0.00000000

     Total force =     0.000000     Total SCF correction =     0.000000


     Computing stress (Cartesian axis) and pressure

          total   stress  (Ry/bohr**3)                   (kbar)     P=   -9.68
  -0.00006580  -0.00000000   0.00000000         -9.68     -0.00      0.00
  -0.00000000  -0.00006580   0.00000000         -0.00     -9.68      0.00
   0.00000000  -0.00000000  -0.00006580          0.00     -0.00     -9.68


     Writing output data file Ni.save/

     init_run     :      0.41s CPU      0.43s WALL (       1 calls)
     electrons    :      4.97s CPU      5.17s WALL (       1 calls)
     forces       :      0.07s CPU      0.07s WALL (       1 calls)
     stress       :      0.24s CPU      0.24s WALL (       1 calls)

     Called by init_run:
     wfcinit      :      0.21s CPU      0.22s WALL (       1 calls)
     potinit      :      0.01s CPU      0.01s WALL (       1 calls)
     hinit0       :      0.18s CPU      0.18s WALL (       1 calls)

     Called by electrons:
     c_bands      :      4.14s CPU      4.30s WALL (       7 calls)
     sum_band     :      0.74s CPU      0.77s WALL (       7 calls)
     v_of_rho     :      0.04s CPU      0.04s WALL (       7 calls)
     newd         :      0.07s CPU      0.07s WALL (       7 calls)
     mix_rho      :      0.00s CPU      0.00s WALL (       7 calls)

     Called by c_bands:
     init_us_2    :      0.11s CPU      0.12s WALL (     799 calls)
     cegterg      :      3.98s CPU      4.14s WALL (     329 calls)

     Called by sum_band:
     sum_band:bec :      0.00s CPU      0.00s WALL (     329 calls)
     addusdens    :      0.06s CPU      0.07s WALL (       7 calls)

     Called by *egterg:
     h_psi        :      3.02s CPU      3.14s WALL (    1167 calls)
     s_psi        :      0.10s CPU      0.11s WALL (    1167 calls)
     g_psi        :      0.01s CPU      0.01s WALL (     791 calls)
     cdiaghg      :      0.39s CPU      0.40s WALL (    1073 calls)

     Called by h_psi:
     h_psi:pot    :      3.00s CPU      3.12s WALL (    1167 calls)
     h_psi:calbec :      0.15s CPU      0.15s WALL (    1167 calls)
     vloc_psi     :      2.74s CPU      2.85s WALL (    1167 calls)
     add_vuspsi   :      0.10s CPU      0.11s WALL (    1167 calls)

     General routines
     calbec       :      0.25s CPU      0.26s WALL (    1731 calls)
     fft          :      0.02s CPU      0.03s WALL (     104 calls)
     ffts         :      0.00s CPU      0.00s WALL (       7 calls)
     fftw         :      3.08s CPU      3.20s WALL (   26109 calls)

     Parallel routines
     fft_scatt_xy :      0.27s CPU      0.28s WALL (   26220 calls)
     fft_scatt_yz :      0.74s CPU      0.77s WALL (   26220 calls)

     PWSCF        :     6.47s CPU         6.77s WALL


   This run was terminated on:  22:18:31  26Mar2024            

=------------------------------------------------------------------------------=
   JOB DONE.
=------------------------------------------------------------------------------=
