
     Program PWSCF v.6.3MaX starts on 26Mar2024 at 22:47:29 

     This program is part of the open-source Quantum ESPRESSO suite
     for quantum simulation of materials; please cite
         "P. Giannozzi et al., J. Phys.:Condens. Matter 21 395502 (2009);
         "P. Giannozzi et al., J. Phys.:Condens. Matter 29 465901 (2017);
          URL http://www.quantum-espresso.org", 
     in publications or presentations arising from this work. More details at
     http://www.quantum-espresso.org/quote

     Parallel version (MPI), running on     5 processors

     MPI processes distributed on     1 nodes
     R & G space division:  proc/nbgrp/npool/nimage =       5
     Waiting for input...
     Reading input from standard input

     Current dimensions of program PWSCF are:
     Max number of different atomic species (ntypx) = 10
     Max number of k-points (npk) =  40000
     Max angular momentum in pseudopotentials (lmaxx) =  3
               file Ni.pbe-spn-kjpaw_psl.1.0.0.UPF: wavefunction(s)  3P 3D renormalized

     Subspace diagonalization in iterative solution of the eigenvalue problem:
     a serial algorithm will be used


     Parallelization info
     --------------------
     sticks:   dense  smooth     PW     G-vecs:    dense   smooth      PW
     Min          79      79     24                 1032     1032     187
     Max          80      80     25                 1033     1033     191
     Sum         397     397    121                 5161     5161     941



     bravais-lattice index     =            2
     lattice parameter (alat)  =       6.6500  a.u.
     unit-cell volume          =      73.5199 (a.u.)^3
     number of atoms/cell      =            1
     number of atomic types    =            1
     number of electrons       =        18.00
     number of Kohn-Sham states=           13
     kinetic-energy cutoff     =      65.0000  Ry
     charge density cutoff     =     260.0000  Ry
     convergence threshold     =      1.0E-08
     mixing beta               =       0.7000
     number of iterations used =            8  plain     mixing
     Exchange-correlation      = SLA PW PBX PBC ( 1  4  3  4 0 0)

     celldm(1)=   6.650000  celldm(2)=   0.000000  celldm(3)=   0.000000
     celldm(4)=   0.000000  celldm(5)=   0.000000  celldm(6)=   0.000000

     crystal axes: (cart. coord. in units of alat)
               a(1) = (  -0.500000   0.000000   0.500000 )  
               a(2) = (   0.000000   0.500000   0.500000 )  
               a(3) = (  -0.500000   0.500000   0.000000 )  

     reciprocal axes: (cart. coord. in units 2 pi/alat)
               b(1) = ( -1.000000 -1.000000  1.000000 )  
               b(2) = (  1.000000  1.000000  1.000000 )  
               b(3) = ( -1.000000  1.000000 -1.000000 )  


     PseudoPot. # 1 for Ni read from file:
     /home/lorenzo/pseudos/Ni/Ni.pbe-spn-kjpaw_psl.1.0.0.UPF
     MD5 check sum: 6e86b733589c3ad8389697b807d86aa7
     Pseudo is Projector augmented-wave + core cor, Zval = 18.0
     Generated using "atomic" code by A. Dal Corso v.6.3
     Shape of augmentation charge: PSQ
     Using radial grid of 1195 points,  6 beta functions with: 
                l(1) =   0
                l(2) =   0
                l(3) =   1
                l(4) =   1
                l(5) =   2
                l(6) =   2
     Q(r) pseudized with 0 coefficients 


     atomic species   valence    mass     pseudopotential
        Ni            18.00    58.69340     Ni( 1.00)

     48 Sym. Ops., with inversion, found



   Cartesian axes

     site n.     atom                  positions (alat units)
         1           Ni  tau(   1) = (   0.0000000   0.0000000   0.0000000  )

     number of k points=    20  gaussian smearing, width (Ry)=  0.0100
                       cart. coord. in units 2pi/alat
        k(    1) = (   0.0000000   0.0000000   0.0000000), wk =   0.0058309
        k(    2) = (  -0.1428571   0.1428571  -0.1428571), wk =   0.0466472
        k(    3) = (  -0.2857143   0.2857143  -0.2857143), wk =   0.0466472
        k(    4) = (  -0.4285714   0.4285714  -0.4285714), wk =   0.0466472
        k(    5) = (   0.0000000   0.2857143   0.0000000), wk =   0.0349854
        k(    6) = (  -0.1428571   0.4285714  -0.1428571), wk =   0.1399417
        k(    7) = (  -0.2857143   0.5714286  -0.2857143), wk =   0.1399417
        k(    8) = (   0.5714286  -0.2857143   0.5714286), wk =   0.1399417
        k(    9) = (   0.4285714  -0.1428571   0.4285714), wk =   0.1399417
        k(   10) = (   0.2857143  -0.0000000   0.2857143), wk =   0.0699708
        k(   11) = (   0.0000000   0.5714286   0.0000000), wk =   0.0349854
        k(   12) = (  -0.1428571   0.7142857  -0.1428571), wk =   0.1399417
        k(   13) = (   0.7142857  -0.1428571   0.7142857), wk =   0.1399417
        k(   14) = (   0.5714286   0.0000000   0.5714286), wk =   0.0699708
        k(   15) = (   0.0000000   0.8571429   0.0000000), wk =   0.0349854
        k(   16) = (   0.8571429  -0.0000000   0.8571429), wk =   0.0699708
        k(   17) = (  -0.2857143   0.5714286   0.0000000), wk =   0.1399417
        k(   18) = (   0.5714286  -0.2857143   0.8571429), wk =   0.2798834
        k(   19) = (   0.7142857  -0.1428571   1.0000000), wk =   0.1399417
        k(   20) = (   0.5714286   0.0000000   0.8571429), wk =   0.1399417

     Dense  grid:     5161 G-vectors     FFT dimensions: (  25,  25,  25)

     Estimated max dynamical RAM per process >       5.76 MB

     Estimated total dynamical RAM >      28.78 MB

     Check: negative/imaginary core charge=   -0.000011    0.000000

     Initial potential from superposition of free atoms

     starting charge   17.99975, renormalised to   18.00000
     Starting wfcs are   10 randomized atomic wfcs +    3 random wfcs
     Checking if some PAW data can be deallocated... 

     total cpu time spent up to now is        1.2 secs

     Self-consistent Calculation

     iteration #  1     ecut=    65.00 Ry     beta= 0.70
     Davidson diagonalization with overlap
     ethr =  1.00E-02,  avg # of iterations =  3.5

     Threshold (ethr) on eigenvalues was too large:
     Diagonalizing with lowered threshold

     Davidson diagonalization with overlap
     ethr =  2.21E-05,  avg # of iterations =  3.2

     total cpu time spent up to now is        1.9 secs

     total energy              =    -429.14537571 Ry
     Harris-Foulkes estimate   =    -429.14774737 Ry
     estimated scf accuracy    <       0.00405777 Ry

     iteration #  2     ecut=    65.00 Ry     beta= 0.70
     Davidson diagonalization with overlap
     ethr =  2.25E-05,  avg # of iterations =  2.5

     total cpu time spent up to now is        2.2 secs

     total energy              =    -429.14457863 Ry
     Harris-Foulkes estimate   =    -429.14982003 Ry
     estimated scf accuracy    <       0.01427050 Ry

     iteration #  3     ecut=    65.00 Ry     beta= 0.70
     Davidson diagonalization with overlap
     ethr =  2.25E-05,  avg # of iterations =  2.1

     total cpu time spent up to now is        2.5 secs

     total energy              =    -429.14708532 Ry
     Harris-Foulkes estimate   =    -429.14711939 Ry
     estimated scf accuracy    <       0.00015187 Ry

     iteration #  4     ecut=    65.00 Ry     beta= 0.70
     Davidson diagonalization with overlap
     ethr =  8.44E-07,  avg # of iterations =  1.9

     total cpu time spent up to now is        2.8 secs

     total energy              =    -429.14710901 Ry
     Harris-Foulkes estimate   =    -429.14710885 Ry
     estimated scf accuracy    <       0.00000040 Ry

     iteration #  5     ecut=    65.00 Ry     beta= 0.70
     Davidson diagonalization with overlap
     ethr =  2.21E-09,  avg # of iterations =  3.0

     total cpu time spent up to now is        3.1 secs

     total energy              =    -429.14710941 Ry
     Harris-Foulkes estimate   =    -429.14710942 Ry
     estimated scf accuracy    <       0.00000005 Ry

     iteration #  6     ecut=    65.00 Ry     beta= 0.70
     Davidson diagonalization with overlap
     ethr =  2.74E-10,  avg # of iterations =  1.2

     total cpu time spent up to now is        3.4 secs

     End of self-consistent calculation

          k = 0.0000 0.0000 0.0000 (   645 PWs)   bands (ev):

   -85.2872 -45.5400 -45.5400 -45.5400   8.8283  15.9232  15.9232  15.9232
    17.0309  17.0309  41.4876  45.4402  45.4402

          k =-0.1429 0.1429-0.1429 (   646 PWs)   bands (ev):

   -85.2809 -45.5820 -45.5461 -45.5461   9.6133  15.7268  16.0722  16.0722
    16.9853  16.9853  37.7683  42.4159  44.1699

          k =-0.2857 0.2857-0.2857 (   640 PWs)   bands (ev):

   -85.2664 -45.6756 -45.5596 -45.5596  11.6531  15.5570  16.0923  16.0923
    17.2424  17.2424  30.6590  41.2557  43.0365

          k =-0.4286 0.4286-0.4286 (   640 PWs)   bands (ev):

   -85.2549 -45.7502 -45.5704 -45.5704  13.1825  15.9075  15.9075  16.8951
    17.7006  17.7006  24.9464  40.1544  42.6140

          k = 0.0000 0.2857 0.0000 (   657 PWs)   bands (ev):

   -85.2791 -45.5807 -45.5557 -45.5557   9.8692  15.5482  16.2216  16.2216
    16.7001  17.1647  39.9570  40.8733  40.8733

          k =-0.1429 0.4286-0.1429 (   648 PWs)   bands (ev):

   -85.2672 -45.6497 -45.5714 -45.5689  11.5010  15.2143  16.1091  16.4141
    17.0189  17.3929  33.4516  38.9153  39.5607

          k =-0.2857 0.5714-0.2857 (   643 PWs)   bands (ev):

   -85.2547 -45.7242 -45.5882 -45.5814  13.3688  15.3622  15.8188  16.2718
    17.7604  18.4335  26.9656  37.5461  38.5040

          k = 0.5714-0.2857 0.5714 (   650 PWs)   bands (ev):

   -85.2510 -45.7459 -45.6018 -45.5782  13.7449  15.5051  16.1485  16.1594
    17.6756  19.8802  24.1120  35.7563  39.8995

          k = 0.4286-0.1429 0.4286 (   643 PWs)   bands (ev):

   -85.2585 -45.7007 -45.5972 -45.5642  12.9146  15.3876  15.8163  16.2789
    17.0866  18.2752  28.9974  35.2062  42.3105

          k = 0.2857-0.0000 0.2857 (   644 PWs)   bands (ev):

   -85.2719 -45.6274 -45.5728 -45.5499  10.8402  15.4384  16.1222  16.3435
    16.6871  17.3830  35.5552  36.3305  45.5139

          k = 0.0000 0.5714 0.0000 (   640 PWs)   bands (ev):

   -85.2596 -45.6697 -45.5906 -45.5906  12.4030  14.7523  16.4344  17.0143
    17.0143  17.4715  36.0772  36.0772  36.0965

          k =-0.1429 0.7143-0.1429 (   652 PWs)   bands (ev):

   -85.2503 -45.7130 -45.6161 -45.6029  13.5806  14.5331  16.2755  17.0762
    17.7980  18.7934  30.3012  32.7095  34.9960

          k = 0.7143-0.1429 0.7143 (   649 PWs)   bands (ev):

   -85.2454 -45.7185 -45.6546 -45.5990  14.3184  14.6675  15.8829  16.8755
    17.7261  22.4352  24.8592  30.2078  36.0222

          k = 0.5714 0.0000 0.5714 (   662 PWs)   bands (ev):

   -85.2496 -45.7017 -45.6576 -45.5818  14.3580  15.1433  15.3255  16.6729
    17.2321  20.4574  27.7066  29.6318  38.9188

          k = 0.0000 0.8571 0.0000 (   652 PWs)   bands (ev):

   -85.2448 -45.7391 -45.6187 -45.6187  13.4618  14.1552  17.7238  17.8248
    17.8248  19.1385  28.9036  33.1105  33.1105

          k = 0.8571-0.0000 0.8571 (   648 PWs)   bands (ev):

   -85.2425 -45.7368 -45.6408 -45.6170  13.7388  14.2386  17.0225  17.5386
    17.8746  21.7711  27.3493  29.1175  33.4994

          k =-0.2857 0.5714 0.0000 (   645 PWs)   bands (ev):

   -85.2565 -45.6892 -45.6113 -45.5787  13.1372  14.9347  15.7135  16.9466
    17.0236  18.3735  31.8010  32.6091  37.3122

          k = 0.5714-0.2857 0.8571 (   663 PWs)   bands (ev):

   -85.2484 -45.7189 -45.6385 -45.5933  14.3100  14.9580  15.4899  16.7095
    17.6164  20.8017  26.0454  32.4375  34.3553

          k = 0.7143-0.1429 1.0000 (   654 PWs)   bands (ev):

   -85.2444 -45.7219 -45.6421 -45.6170  13.9954  14.4952  16.1751  17.3380
    17.8223  21.3780  29.3741  29.4418  30.7324

          k = 0.5714 0.0000 0.8571 (   658 PWs)   bands (ev):

   -85.2436 -45.6947 -45.6813 -45.6135  14.4420  14.8284  15.5309  16.9769
    17.8194  24.6309  25.0756  28.2887  31.6061

     the Fermi energy is    17.8066 ev

!    total energy              =    -429.14710941 Ry
     Harris-Foulkes estimate   =    -429.14710941 Ry
     estimated scf accuracy    <          1.9E-09 Ry

     total all-electron energy =     -3041.579217 Ry

     The total energy is the sum of the following terms:

     one-electron contribution =    -185.14840445 Ry
     hartree contribution      =     104.80022671 Ry
     xc contribution           =     -34.32388811 Ry
     ewald contribution        =    -223.38275369 Ry
     one-center paw contrib.   =     -91.08965424 Ry
     smearing contrib. (-TS)   =      -0.00263563 Ry

     convergence has been achieved in   6 iterations

     Forces acting on atoms (cartesian axes, Ry/au):

     atom    1 type  1   force =     0.00000000    0.00000000    0.00000000

     Total force =     0.000000     Total SCF correction =     0.000000


     Computing stress (Cartesian axis) and pressure

          total   stress  (Ry/bohr**3)                   (kbar)     P=  -30.23
  -0.00020552  -0.00000000  -0.00000000        -30.23     -0.00     -0.00
  -0.00000000  -0.00020552   0.00000000         -0.00    -30.23      0.00
  -0.00000000   0.00000000  -0.00020552         -0.00      0.00    -30.23


     Writing output data file Ni.save/

     init_run     :      0.44s CPU      0.47s WALL (       1 calls)
     electrons    :      2.03s CPU      2.19s WALL (       1 calls)
     forces       :      0.03s CPU      0.03s WALL (       1 calls)
     stress       :      0.08s CPU      0.08s WALL (       1 calls)

     Called by init_run:
     wfcinit      :      0.06s CPU      0.07s WALL (       1 calls)
     potinit      :      0.15s CPU      0.17s WALL (       1 calls)
     hinit0       :      0.20s CPU      0.21s WALL (       1 calls)

     Called by electrons:
     c_bands      :      1.21s CPU      1.27s WALL (       7 calls)
     sum_band     :      0.23s CPU      0.24s WALL (       7 calls)
     v_of_rho     :      0.02s CPU      0.03s WALL (       7 calls)
     newd         :      0.04s CPU      0.04s WALL (       7 calls)
     PAW_pot      :      0.67s CPU      0.77s WALL (       7 calls)
     mix_rho      :      0.00s CPU      0.00s WALL (       7 calls)

     Called by c_bands:
     init_us_2    :      0.03s CPU      0.03s WALL (     340 calls)
     cegterg      :      1.16s CPU      1.23s WALL (     140 calls)

     Called by sum_band:
     sum_band:bec :      0.00s CPU      0.00s WALL (     140 calls)
     addusdens    :      0.03s CPU      0.03s WALL (       7 calls)

     Called by *egterg:
     h_psi        :      0.85s CPU      0.90s WALL (     510 calls)
     s_psi        :      0.02s CPU      0.03s WALL (     510 calls)
     g_psi        :      0.00s CPU      0.00s WALL (     350 calls)
     cdiaghg      :      0.18s CPU      0.19s WALL (     470 calls)

     Called by h_psi:
     h_psi:pot    :      0.85s CPU      0.90s WALL (     510 calls)
     h_psi:calbec :      0.04s CPU      0.04s WALL (     510 calls)
     vloc_psi     :      0.78s CPU      0.83s WALL (     510 calls)
     add_vuspsi   :      0.03s CPU      0.03s WALL (     510 calls)

     General routines
     calbec       :      0.06s CPU      0.07s WALL (     750 calls)
     fft          :      0.03s CPU      0.03s WALL (     104 calls)
     ffts         :      0.00s CPU      0.00s WALL (       7 calls)
     fftw         :      0.87s CPU      0.93s WALL (   11266 calls)

     Parallel routines
     fft_scatt_xy :      0.07s CPU      0.07s WALL (   11377 calls)
     fft_scatt_yz :      0.27s CPU      0.28s WALL (   11377 calls)

     PWSCF        :     3.33s CPU         3.57s WALL


   This run was terminated on:  22:47:32  26Mar2024            

=------------------------------------------------------------------------------=
   JOB DONE.
=------------------------------------------------------------------------------=
