
     Program PWSCF v.6.3MaX starts on 26Mar2024 at 22:30:48 

     This program is part of the open-source Quantum ESPRESSO suite
     for quantum simulation of materials; please cite
         "P. Giannozzi et al., J. Phys.:Condens. Matter 21 395502 (2009);
         "P. Giannozzi et al., J. Phys.:Condens. Matter 29 465901 (2017);
          URL http://www.quantum-espresso.org", 
     in publications or presentations arising from this work. More details at
     http://www.quantum-espresso.org/quote

     Parallel version (MPI), running on     5 processors

     MPI processes distributed on     1 nodes
     R & G space division:  proc/nbgrp/npool/nimage =       5
     Waiting for input...
     Reading input from standard input

     Current dimensions of program PWSCF are:
     Max number of different atomic species (ntypx) = 10
     Max number of k-points (npk) =  40000
     Max angular momentum in pseudopotentials (lmaxx) =  3

     Subspace diagonalization in iterative solution of the eigenvalue problem:
     a serial algorithm will be used


     Parallelization info
     --------------------
     sticks:   dense  smooth     PW     G-vecs:    dense   smooth      PW
     Min          37      37     12                  327      327      67
     Max          38      38     13                  329      329      70
     Sum         187     187     61                 1639     1639     339



     bravais-lattice index     =            2
     lattice parameter (alat)  =       6.6500  a.u.
     unit-cell volume          =      73.5199 (a.u.)^3
     number of atoms/cell      =            1
     number of atomic types    =            1
     number of electrons       =        18.00
     number of Kohn-Sham states=           13
     kinetic-energy cutoff     =      30.0000  Ry
     charge density cutoff     =     120.0000  Ry
     convergence threshold     =      1.0E-08
     mixing beta               =       0.7000
     number of iterations used =            8  plain     mixing
     Exchange-correlation      = PBESOL ( 1  4 10  8 0 0)

     celldm(1)=   6.650000  celldm(2)=   0.000000  celldm(3)=   0.000000
     celldm(4)=   0.000000  celldm(5)=   0.000000  celldm(6)=   0.000000

     crystal axes: (cart. coord. in units of alat)
               a(1) = (  -0.500000   0.000000   0.500000 )  
               a(2) = (   0.000000   0.500000   0.500000 )  
               a(3) = (  -0.500000   0.500000   0.000000 )  

     reciprocal axes: (cart. coord. in units 2 pi/alat)
               b(1) = ( -1.000000 -1.000000  1.000000 )  
               b(2) = (  1.000000  1.000000  1.000000 )  
               b(3) = ( -1.000000  1.000000 -1.000000 )  


     PseudoPot. # 1 for Ni read from file:
     /home/lorenzo/pseudos/Ni/Ni.pbesol-spn-rrkjus_psl.1.0.0.UPF
     MD5 check sum: 6fc0a587bf949a08f2faed986b854013
     Pseudo is Ultrasoft + core correction, Zval = 18.0
     Generated using "atomic" code by A. Dal Corso v.6.3
     Using radial grid of 1195 points,  6 beta functions with: 
                l(1) =   0
                l(2) =   0
                l(3) =   1
                l(4) =   1
                l(5) =   2
                l(6) =   2
     Q(r) pseudized with 0 coefficients 


     atomic species   valence    mass     pseudopotential
        Ni            18.00    58.69340     Ni( 1.00)

     48 Sym. Ops., with inversion, found



   Cartesian axes

     site n.     atom                  positions (alat units)
         1           Ni  tau(   1) = (   0.0000000   0.0000000   0.0000000  )

     number of k points=    10  gaussian smearing, width (Ry)=  0.0100
                       cart. coord. in units 2pi/alat
        k(    1) = (   0.0000000   0.0000000   0.0000000), wk =   0.0160000
        k(    2) = (  -0.2000000   0.2000000  -0.2000000), wk =   0.1280000
        k(    3) = (  -0.4000000   0.4000000  -0.4000000), wk =   0.1280000
        k(    4) = (   0.0000000   0.4000000   0.0000000), wk =   0.0960000
        k(    5) = (  -0.2000000   0.6000000  -0.2000000), wk =   0.3840000
        k(    6) = (   0.6000000  -0.2000000   0.6000000), wk =   0.3840000
        k(    7) = (   0.4000000   0.0000000   0.4000000), wk =   0.1920000
        k(    8) = (   0.0000000   0.8000000   0.0000000), wk =   0.0960000
        k(    9) = (   0.8000000   0.0000000   0.8000000), wk =   0.1920000
        k(   10) = (   0.6000000  -0.2000000   1.0000000), wk =   0.3840000

     Dense  grid:     1639 G-vectors     FFT dimensions: (  18,  18,  18)

     Estimated max dynamical RAM per process >       2.26 MB

     Estimated total dynamical RAM >      11.32 MB

     Check: negative/imaginary core charge=   -0.000070    0.000000

     Initial potential from superposition of free atoms

     starting charge   17.99977, renormalised to   18.00000
     Starting wfcs are   10 randomized atomic wfcs +    3 random wfcs

     total cpu time spent up to now is        0.9 secs

     Self-consistent Calculation

     iteration #  1     ecut=    30.00 Ry     beta= 0.70
     Davidson diagonalization with overlap
     ethr =  1.00E-02,  avg # of iterations =  4.2

     total cpu time spent up to now is        1.0 secs

     total energy              =    -334.52459333 Ry
     Harris-Foulkes estimate   =    -335.44486619 Ry
     estimated scf accuracy    <       1.20528921 Ry

     iteration #  2     ecut=    30.00 Ry     beta= 0.70
     Davidson diagonalization with overlap
     ethr =  6.70E-03,  avg # of iterations =  2.0

     total cpu time spent up to now is        1.0 secs

     total energy              =    -334.53557574 Ry
     Harris-Foulkes estimate   =    -335.90112800 Ry
     estimated scf accuracy    <       3.52568277 Ry

     iteration #  3     ecut=    30.00 Ry     beta= 0.70
     Davidson diagonalization with overlap
     ethr =  6.70E-03,  avg # of iterations =  1.9

     total cpu time spent up to now is        1.1 secs

     total energy              =    -335.09909818 Ry
     Harris-Foulkes estimate   =    -335.10434993 Ry
     estimated scf accuracy    <       0.01287913 Ry

     iteration #  4     ecut=    30.00 Ry     beta= 0.70
     Davidson diagonalization with overlap
     ethr =  7.16E-05,  avg # of iterations =  2.0

     total cpu time spent up to now is        1.1 secs

     total energy              =    -335.10068257 Ry
     Harris-Foulkes estimate   =    -335.10072365 Ry
     estimated scf accuracy    <       0.00022428 Ry

     iteration #  5     ecut=    30.00 Ry     beta= 0.70
     Davidson diagonalization with overlap
     ethr =  1.25E-06,  avg # of iterations =  2.2

     total cpu time spent up to now is        1.2 secs

     total energy              =    -335.10070929 Ry
     Harris-Foulkes estimate   =    -335.10071914 Ry
     estimated scf accuracy    <       0.00002459 Ry

     iteration #  6     ecut=    30.00 Ry     beta= 0.70
     Davidson diagonalization with overlap
     ethr =  1.37E-07,  avg # of iterations =  1.1

     total cpu time spent up to now is        1.2 secs

     End of self-consistent calculation

          k = 0.0000 0.0000 0.0000 (   181 PWs)   bands (ev):

   -88.6539 -41.7697 -41.7697 -41.7697   9.4415  18.9106  18.9106  18.9106
    19.4663  19.4663  41.7906  45.7808  45.7808

          k =-0.2000 0.2000-0.2000 (   193 PWs)   bands (ev):

   -88.6936 -44.2077 -42.3395 -42.3395  10.9029  16.7388  17.9477  17.9477
    18.7433  18.7433  34.6325  42.3528  43.6488

          k =-0.4000 0.4000-0.4000 (   204 PWs)   bands (ev):

   -88.7380 -44.6240 -43.7526 -43.7526  14.0310  16.7647  17.0970  17.0970
    17.6236  17.6236  26.3154  40.5828  42.5924

          k = 0.0000 0.4000 0.0000 (   202 PWs)   bands (ev):

   -88.7452 -44.6115 -43.4394 -43.4394  11.3638  16.8223  16.8223  17.3198
    17.4247  17.9734  38.5161  38.5161  39.2154

          k =-0.2000 0.6000-0.2000 (   205 PWs)   bands (ev):

   -88.7466 -44.8986 -43.9450 -43.6752  13.8810  15.5747  16.8192  17.2289
    17.9191  18.4417  29.3573  36.0056  36.8020

          k = 0.6000-0.2000 0.6000 (   206 PWs)   bands (ev):

   -88.7451 -44.8929 -44.0566 -43.8583  14.7899  15.8136  16.5649  17.1366
    17.5816  20.9065  24.6097  33.0296  38.6008

          k = 0.4000 0.0000 0.4000 (   200 PWs)   bands (ev):

   -88.7235 -44.6908 -43.5604 -42.8797  13.0745  15.7520  17.1231  17.4589
    18.4481  18.5117  31.8007  33.3455  43.3900

          k = 0.0000 0.8000 0.0000 (   206 PWs)   bands (ev):

   -88.7558 -44.7708 -44.1925 -44.1925  14.3973  15.3921  17.4063  17.4063
    18.0413  18.7337  30.2141  33.5265  33.5265

          k = 0.8000 0.0000 0.8000 (   208 PWs)   bands (ev):

   -88.7614 -44.8912 -44.4221 -44.3243  14.4735  15.2031  16.5838  17.6635
    17.7895  22.5674  26.7658  28.2571  34.1337

          k = 0.6000-0.2000 1.0000 (   210 PWs)   bands (ev):

   -88.7766 -45.1145 -44.5967 -44.4053  14.7546  15.6209  15.9416  17.0255
    17.2815  21.5177  27.6815  29.6255  31.7985

     the Fermi energy is    18.3789 ev

!    total energy              =    -335.10071236 Ry
     Harris-Foulkes estimate   =    -335.10071236 Ry
     estimated scf accuracy    <          5.7E-09 Ry

     The total energy is the sum of the following terms:

     one-electron contribution =    -178.98593011 Ry
     hartree contribution      =     100.89721302 Ry
     xc contribution           =     -33.62773800 Ry
     ewald contribution        =    -223.38275371 Ry
     smearing contrib. (-TS)   =      -0.00150356 Ry

     convergence has been achieved in   6 iterations

     Forces acting on atoms (cartesian axes, Ry/au):

     atom    1 type  1   force =     0.00000000    0.00000000    0.00000000

     Total force =     0.000000     Total SCF correction =     0.000000


     Computing stress (Cartesian axis) and pressure

          total   stress  (Ry/bohr**3)                   (kbar)     P=********
  -0.23431766   0.00000000  -0.00000000     -34469.31      0.00     -0.00
   0.00000000  -0.23431766  -0.00000000          0.00 -34469.31     -0.00
  -0.00000000  -0.00000000  -0.23431766         -0.00     -0.00 -34469.31


     Writing output data file Ni.save/

     init_run     :      0.12s CPU      0.12s WALL (       1 calls)
     electrons    :      0.33s CPU      0.37s WALL (       1 calls)
     forces       :      0.01s CPU      0.01s WALL (       1 calls)
     stress       :      0.02s CPU      0.02s WALL (       1 calls)

     Called by init_run:
     wfcinit      :      0.02s CPU      0.02s WALL (       1 calls)
     potinit      :      0.00s CPU      0.00s WALL (       1 calls)
     hinit0       :      0.09s CPU      0.09s WALL (       1 calls)

     Called by electrons:
     c_bands      :      0.27s CPU      0.29s WALL (       6 calls)
     sum_band     :      0.05s CPU      0.05s WALL (       6 calls)
     v_of_rho     :      0.01s CPU      0.01s WALL (       7 calls)
     newd         :      0.01s CPU      0.01s WALL (       7 calls)
     mix_rho      :      0.00s CPU      0.00s WALL (       6 calls)

     Called by c_bands:
     init_us_2    :      0.01s CPU      0.01s WALL (     150 calls)
     cegterg      :      0.26s CPU      0.28s WALL (      60 calls)

     Called by sum_band:
     sum_band:bec :      0.00s CPU      0.00s WALL (      60 calls)
     addusdens    :      0.01s CPU      0.01s WALL (       6 calls)

     Called by *egterg:
     h_psi        :      0.17s CPU      0.19s WALL (     204 calls)
     s_psi        :      0.00s CPU      0.00s WALL (     204 calls)
     g_psi        :      0.00s CPU      0.00s WALL (     134 calls)
     cdiaghg      :      0.07s CPU      0.07s WALL (     194 calls)

     Called by h_psi:
     h_psi:pot    :      0.17s CPU      0.18s WALL (     204 calls)
     h_psi:calbec :      0.01s CPU      0.01s WALL (     204 calls)
     vloc_psi     :      0.16s CPU      0.17s WALL (     204 calls)
     add_vuspsi   :      0.00s CPU      0.00s WALL (     204 calls)

     General routines
     calbec       :      0.01s CPU      0.01s WALL (     314 calls)
     fft          :      0.01s CPU      0.01s WALL (     103 calls)
     ffts         :      0.00s CPU      0.00s WALL (       6 calls)
     fftw         :      0.17s CPU      0.19s WALL (    4874 calls)

     Parallel routines
     fft_scatt_xy :      0.02s CPU      0.02s WALL (    4983 calls)
     fft_scatt_yz :      0.06s CPU      0.06s WALL (    4983 calls)

     PWSCF        :     1.24s CPU         1.31s WALL


   This run was terminated on:  22:30:49  26Mar2024            

=------------------------------------------------------------------------------=
   JOB DONE.
=------------------------------------------------------------------------------=
