
     Program PWSCF v.6.3MaX starts on 26Mar2024 at 22:25: 8 

     This program is part of the open-source Quantum ESPRESSO suite
     for quantum simulation of materials; please cite
         "P. Giannozzi et al., J. Phys.:Condens. Matter 21 395502 (2009);
         "P. Giannozzi et al., J. Phys.:Condens. Matter 29 465901 (2017);
          URL http://www.quantum-espresso.org", 
     in publications or presentations arising from this work. More details at
     http://www.quantum-espresso.org/quote

     Parallel version (MPI), running on     5 processors

     MPI processes distributed on     1 nodes
     R & G space division:  proc/nbgrp/npool/nimage =       5
     Waiting for input...
     Reading input from standard input

     Current dimensions of program PWSCF are:
     Max number of different atomic species (ntypx) = 10
     Max number of k-points (npk) =  40000
     Max angular momentum in pseudopotentials (lmaxx) =  3

     Subspace diagonalization in iterative solution of the eigenvalue problem:
     a serial algorithm will be used


     Parallelization info
     --------------------
     sticks:   dense  smooth     PW     G-vecs:    dense   smooth      PW
     Min          17      17      7                  112      112      33
     Max          19      19      8                  113      113      35
     Sum          91      91     37                  561      561     169



     bravais-lattice index     =            2
     lattice parameter (alat)  =       6.6500  a.u.
     unit-cell volume          =      73.5199 (a.u.)^3
     number of atoms/cell      =            1
     number of atomic types    =            1
     number of electrons       =        18.00
     number of Kohn-Sham states=           13
     kinetic-energy cutoff     =      15.0000  Ry
     charge density cutoff     =      60.0000  Ry
     convergence threshold     =      1.0E-08
     mixing beta               =       0.7000
     number of iterations used =            8  plain     mixing
     Exchange-correlation      = PBESOL ( 1  4 10  8 0 0)

     celldm(1)=   6.650000  celldm(2)=   0.000000  celldm(3)=   0.000000
     celldm(4)=   0.000000  celldm(5)=   0.000000  celldm(6)=   0.000000

     crystal axes: (cart. coord. in units of alat)
               a(1) = (  -0.500000   0.000000   0.500000 )  
               a(2) = (   0.000000   0.500000   0.500000 )  
               a(3) = (  -0.500000   0.500000   0.000000 )  

     reciprocal axes: (cart. coord. in units 2 pi/alat)
               b(1) = ( -1.000000 -1.000000  1.000000 )  
               b(2) = (  1.000000  1.000000  1.000000 )  
               b(3) = ( -1.000000  1.000000 -1.000000 )  


     PseudoPot. # 1 for Ni read from file:
     /home/lorenzo/pseudos/Ni/Ni.pbesol-spn-rrkjus_psl.1.0.0.UPF
     MD5 check sum: 6fc0a587bf949a08f2faed986b854013
     Pseudo is Ultrasoft + core correction, Zval = 18.0
     Generated using "atomic" code by A. Dal Corso v.6.3
     Using radial grid of 1195 points,  6 beta functions with: 
                l(1) =   0
                l(2) =   0
                l(3) =   1
                l(4) =   1
                l(5) =   2
                l(6) =   2
     Q(r) pseudized with 0 coefficients 


     atomic species   valence    mass     pseudopotential
        Ni            18.00    58.69340     Ni( 1.00)

     48 Sym. Ops., with inversion, found



   Cartesian axes

     site n.     atom                  positions (alat units)
         1           Ni  tau(   1) = (   0.0000000   0.0000000   0.0000000  )

     number of k points=    20  gaussian smearing, width (Ry)=  0.0100
                       cart. coord. in units 2pi/alat
        k(    1) = (   0.0000000   0.0000000   0.0000000), wk =   0.0058309
        k(    2) = (  -0.1428571   0.1428571  -0.1428571), wk =   0.0466472
        k(    3) = (  -0.2857143   0.2857143  -0.2857143), wk =   0.0466472
        k(    4) = (  -0.4285714   0.4285714  -0.4285714), wk =   0.0466472
        k(    5) = (   0.0000000   0.2857143   0.0000000), wk =   0.0349854
        k(    6) = (  -0.1428571   0.4285714  -0.1428571), wk =   0.1399417
        k(    7) = (  -0.2857143   0.5714286  -0.2857143), wk =   0.1399417
        k(    8) = (   0.5714286  -0.2857143   0.5714286), wk =   0.1399417
        k(    9) = (   0.4285714  -0.1428571   0.4285714), wk =   0.1399417
        k(   10) = (   0.2857143  -0.0000000   0.2857143), wk =   0.0699708
        k(   11) = (   0.0000000   0.5714286   0.0000000), wk =   0.0349854
        k(   12) = (  -0.1428571   0.7142857  -0.1428571), wk =   0.1399417
        k(   13) = (   0.7142857  -0.1428571   0.7142857), wk =   0.1399417
        k(   14) = (   0.5714286   0.0000000   0.5714286), wk =   0.0699708
        k(   15) = (   0.0000000   0.8571429   0.0000000), wk =   0.0349854
        k(   16) = (   0.8571429  -0.0000000   0.8571429), wk =   0.0699708
        k(   17) = (  -0.2857143   0.5714286   0.0000000), wk =   0.1399417
        k(   18) = (   0.5714286  -0.2857143   0.8571429), wk =   0.2798834
        k(   19) = (   0.7142857  -0.1428571   1.0000000), wk =   0.1399417
        k(   20) = (   0.5714286   0.0000000   0.8571429), wk =   0.1399417

     Dense  grid:      561 G-vectors     FFT dimensions: (  12,  12,  12)

     Estimated max dynamical RAM per process >       1.14 MB

     Estimated total dynamical RAM >       5.72 MB

     Check: negative/imaginary core charge=   -0.001444    0.000000

     Initial potential from superposition of free atoms
     Check: negative starting charge=   -0.123826

     starting charge   17.99977, renormalised to   18.00000

     negative rho (up, down):  1.238E-01 0.000E+00
     Starting wfcs are   10 randomized atomic wfcs +    3 random wfcs

     total cpu time spent up to now is        0.9 secs

     Self-consistent Calculation

     iteration #  1     ecut=    15.00 Ry     beta= 0.70
     Davidson diagonalization with overlap
     ethr =  1.00E-02,  avg # of iterations =  3.4

     total cpu time spent up to now is        1.1 secs

     total energy              =    -271.72417182 Ry
     Harris-Foulkes estimate   =    -309.84221600 Ry
     estimated scf accuracy    <      46.71274263 Ry

     iteration #  2     ecut=    15.00 Ry     beta= 0.70
     Davidson diagonalization with overlap
     ethr =  1.00E-02,  avg # of iterations =  3.0

     negative rho (up, down):  8.900E-04 0.000E+00

     total cpu time spent up to now is        1.2 secs

     total energy              =    -279.58695463 Ry
     Harris-Foulkes estimate   =    -280.45722428 Ry
     estimated scf accuracy    <       2.52695078 Ry

     iteration #  3     ecut=    15.00 Ry     beta= 0.70
     Davidson diagonalization with overlap
     ethr =  1.00E-02,  avg # of iterations =  1.1

     negative rho (up, down):  4.235E-03 0.000E+00

     total cpu time spent up to now is        1.3 secs

     total energy              =    -279.64491121 Ry
     Harris-Foulkes estimate   =    -279.67676799 Ry
     estimated scf accuracy    <       0.16506644 Ry

     iteration #  4     ecut=    15.00 Ry     beta= 0.70
     Davidson diagonalization with overlap
     ethr =  9.17E-04,  avg # of iterations =  1.2

     negative rho (up, down):  4.182E-03 0.000E+00

     total cpu time spent up to now is        1.3 secs

     total energy              =    -279.64879656 Ry
     Harris-Foulkes estimate   =    -279.64898102 Ry
     estimated scf accuracy    <       0.00033855 Ry

     iteration #  5     ecut=    15.00 Ry     beta= 0.70
     Davidson diagonalization with overlap
     ethr =  1.88E-06,  avg # of iterations =  2.5

     negative rho (up, down):  4.184E-03 0.000E+00

     total cpu time spent up to now is        1.4 secs

     total energy              =    -279.64885419 Ry
     Harris-Foulkes estimate   =    -279.64885666 Ry
     estimated scf accuracy    <       0.00000425 Ry

     iteration #  6     ecut=    15.00 Ry     beta= 0.70
     Davidson diagonalization with overlap
     ethr =  2.36E-08,  avg # of iterations =  2.0

     negative rho (up, down):  4.185E-03 0.000E+00

     total cpu time spent up to now is        1.5 secs

     total energy              =    -279.64885499 Ry
     Harris-Foulkes estimate   =    -279.64885500 Ry
     estimated scf accuracy    <       0.00000008 Ry

     iteration #  7     ecut=    15.00 Ry     beta= 0.70
     Davidson diagonalization with overlap
     ethr =  4.20E-10,  avg # of iterations =  1.9

     negative rho (up, down):  4.185E-03 0.000E+00

     total cpu time spent up to now is        1.5 secs

     End of self-consistent calculation

          k = 0.0000 0.0000 0.0000 (    65 PWs)   bands (ev):

  -161.3059 -44.9151 -44.9151 -44.9151  13.4379  29.1097  29.1097  30.1568
    30.1568  30.1568  48.2071  52.7614  52.7614

          k =-0.1429 0.1429-0.1429 (    62 PWs)   bands (ev):

  -160.2476 -41.9870 -41.9870 -41.8894  14.4267  28.6990  30.3694  30.3694
    32.8705  32.8705  49.4893  50.8069  55.4515

          k =-0.2857 0.2857-0.2857 (    68 PWs)   bands (ev):

  -161.4114 -51.8694 -44.9809 -44.9809  16.6178  24.4446  28.8899  28.8899
    30.9344  30.9344  42.9226  49.5651  54.9469

          k =-0.4286 0.4286-0.4286 (    73 PWs)   bands (ev):

  -162.8455 -58.4159 -49.9521 -49.9521  19.8547  22.1393  22.1393  23.8731
    28.2936  28.2936  35.9946  47.4869  49.0610

          k = 0.0000 0.2857 0.0000 (    64 PWs)   bands (ev):

  -160.7891 -44.9533 -44.9533 -42.3543  14.5123  29.0517  29.6666  30.1339
    30.1339  30.4451  50.7243  50.9883  53.8253

          k =-0.1429 0.4286-0.1429 (    69 PWs)   bands (ev):

  -161.7212 -56.0736 -45.7641 -43.9005  16.3810  24.9239  26.7871  27.0142
    29.7251  31.8391  42.3710  50.5613  51.4035

          k =-0.2857 0.5714-0.2857 (    70 PWs)   bands (ev):

  -161.7893 -56.1015 -49.0874 -43.7985  19.4512  23.1418  24.6014  26.6190
    29.4684  30.5400  37.3539  48.9196  49.0276

          k = 0.5714-0.2857 0.5714 (    73 PWs)   bands (ev):

  -162.5646 -58.2452 -50.3628 -49.9780  20.6753  21.8789  22.2645  26.1259
    27.0871  28.5937  33.0476  48.4163  48.4448

          k = 0.4286-0.1429 0.4286 (    70 PWs)   bands (ev):

  -161.8662 -58.4736 -45.7288 -44.7646  18.2317  23.5097  26.0218  26.3714
    28.3061  31.6460  39.2743  49.6825  50.4876

          k = 0.2857-0.0000 0.2857 (    67 PWs)   bands (ev):

  -161.2909 -53.1774 -45.2244 -42.5860  15.5742  24.5146  26.7982  28.9062
    30.1228  31.5622  44.8201  51.9354  51.9796

          k = 0.0000 0.5714 0.0000 (    76 PWs)   bands (ev):

  -163.5769 -61.5737 -52.5119 -52.5119  17.3666  22.1176  22.1176  24.1731
    25.7987  26.1500  43.1518  43.3985  43.3985

          k =-0.1429 0.7143-0.1429 (    77 PWs)   bands (ev):

  -163.6744 -62.6678 -54.8075 -52.9128  19.9477  21.2426  21.4896  23.2714
    24.7835  25.9510  37.2318  41.3849  42.9376

          k = 0.7143-0.1429 0.7143 (    72 PWs)   bands (ev):

  -161.9240 -52.8769 -51.2408 -48.4763  22.0011  23.6200  24.9143  25.3039
    27.4354  32.5532  36.3565  43.5482  45.0440

          k = 0.5714 0.0000 0.5714 (    73 PWs)   bands (ev):

  -162.2601 -55.6530 -50.9203 -49.0261  21.2276  23.4014  23.9516  24.6930
    29.9474  30.6872  37.2676  41.7195  48.8355

          k = 0.0000 0.8571 0.0000 (    72 PWs)   bands (ev):

  -161.7262 -51.3973 -51.3973 -49.6655  21.5326  25.0710  25.5117  25.5117
    26.6449  28.4175  39.2017  41.0724  41.0724

          k = 0.8571-0.0000 0.8571 (    71 PWs)   bands (ev):

  -161.5911 -53.6410 -48.7784 -47.0142  23.1363  23.7794  24.6904  25.8908
    31.4862  31.7812  34.4268  42.0726  42.3295

          k =-0.2857 0.5714 0.0000 (    75 PWs)   bands (ev):

  -163.2094 -60.5972 -54.9278 -48.0598  18.3109  21.2942  23.7427  24.6212
    26.1701  28.2322  39.3736  42.0683  48.3788

          k = 0.5714-0.2857 0.8571 (    75 PWs)   bands (ev):

  -162.8555 -58.1639 -53.8575 -50.4014  20.7941  22.0701  22.9649  23.9281
    27.4476  30.1531  34.6579  42.4137  45.5666

          k = 0.7143-0.1429 1.0000 (    72 PWs)   bands (ev):

  -161.7907 -55.9489 -49.1205 -46.9069  21.9169  22.8345  24.1882  28.1749
    29.2299  32.6087  36.3984  41.0997  43.6205

          k = 0.5714 0.0000 0.8571 (    72 PWs)   bands (ev):

  -161.7965 -54.6692 -49.0156 -48.2665  23.2439  24.1521  24.4356  25.0961
    27.6325  32.7495  37.1008  40.1372  46.0013

     the Fermi energy is    29.7542 ev

!    total energy              =    -279.64885500 Ry
     Harris-Foulkes estimate   =    -279.64885500 Ry
     estimated scf accuracy    <          1.2E-09 Ry

     The total energy is the sum of the following terms:

     one-electron contribution =     -65.78979706 Ry
     hartree contribution      =      34.65295479 Ry
     xc contribution           =     -25.12878528 Ry
     ewald contribution        =    -223.38275371 Ry
     smearing contrib. (-TS)   =      -0.00047374 Ry

     convergence has been achieved in   7 iterations

     negative rho (up, down):  4.185E-03 0.000E+00

     Forces acting on atoms (cartesian axes, Ry/au):

     atom    1 type  1   force =     0.00000000    0.00000000    0.00000000

     Total force =     0.000000     Total SCF correction =     0.000000


     Computing stress (Cartesian axis) and pressure


     negative rho (up, down):  4.185E-03 0.000E+00
          total   stress  (Ry/bohr**3)                   (kbar)     P=********
  -0.85640575   0.00000000   0.00000000    -125981.61      0.00      0.00
   0.00000000  -0.85640575   0.00000000          0.00-125981.61      0.00
  -0.00000000   0.00000000  -0.85640575         -0.00      0.00-125981.61


     Writing output data file Ni.save/

     init_run     :      0.08s CPU      0.08s WALL (       1 calls)
     electrons    :      0.55s CPU      0.64s WALL (       1 calls)
     forces       :      0.01s CPU      0.01s WALL (       1 calls)
     stress       :      0.02s CPU      0.02s WALL (       1 calls)

     Called by init_run:
     wfcinit      :      0.01s CPU      0.02s WALL (       1 calls)
     potinit      :      0.00s CPU      0.00s WALL (       1 calls)
     hinit0       :      0.06s CPU      0.06s WALL (       1 calls)

     Called by electrons:
     c_bands      :      0.49s CPU      0.56s WALL (       7 calls)
     sum_band     :      0.05s CPU      0.06s WALL (       7 calls)
     v_of_rho     :      0.01s CPU      0.01s WALL (       8 calls)
     newd         :      0.01s CPU      0.01s WALL (       8 calls)
     mix_rho      :      0.00s CPU      0.00s WALL (       7 calls)

     Called by c_bands:
     init_us_2    :      0.01s CPU      0.01s WALL (     340 calls)
     cegterg      :      0.48s CPU      0.54s WALL (     140 calls)

     Called by sum_band:
     sum_band:bec :      0.00s CPU      0.00s WALL (     140 calls)
     addusdens    :      0.00s CPU      0.00s WALL (       7 calls)

     Called by *egterg:
     h_psi        :      0.25s CPU      0.28s WALL (     461 calls)
     s_psi        :      0.01s CPU      0.01s WALL (     461 calls)
     g_psi        :      0.00s CPU      0.00s WALL (     301 calls)
     cdiaghg      :      0.18s CPU      0.20s WALL (     441 calls)

     Called by h_psi:
     h_psi:pot    :      0.24s CPU      0.28s WALL (     461 calls)
     h_psi:calbec :      0.02s CPU      0.02s WALL (     461 calls)
     vloc_psi     :      0.22s CPU      0.25s WALL (     461 calls)
     add_vuspsi   :      0.01s CPU      0.01s WALL (     461 calls)

     General routines
     calbec       :      0.02s CPU      0.03s WALL (     701 calls)
     fft          :      0.00s CPU      0.00s WALL (     114 calls)
     ffts         :      0.00s CPU      0.00s WALL (       7 calls)
     fftw         :      0.22s CPU      0.26s WALL (   11650 calls)

     Parallel routines
     fft_scatt_xy :      0.03s CPU      0.03s WALL (   11771 calls)
     fft_scatt_yz :      0.10s CPU      0.12s WALL (   11771 calls)

     PWSCF        :     1.50s CPU         1.64s WALL


   This run was terminated on:  22:25: 9  26Mar2024            

=------------------------------------------------------------------------------=
   JOB DONE.
=------------------------------------------------------------------------------=
