
     Program PWSCF v.6.3MaX starts on 26Mar2024 at 23: 3:14 

     This program is part of the open-source Quantum ESPRESSO suite
     for quantum simulation of materials; please cite
         "P. Giannozzi et al., J. Phys.:Condens. Matter 21 395502 (2009);
         "P. Giannozzi et al., J. Phys.:Condens. Matter 29 465901 (2017);
          URL http://www.quantum-espresso.org", 
     in publications or presentations arising from this work. More details at
     http://www.quantum-espresso.org/quote

     Parallel version (MPI), running on     5 processors

     MPI processes distributed on     1 nodes
     R & G space division:  proc/nbgrp/npool/nimage =       5
     Waiting for input...
     Reading input from standard input

     Current dimensions of program PWSCF are:
     Max number of different atomic species (ntypx) = 10
     Max number of k-points (npk) =  40000
     Max angular momentum in pseudopotentials (lmaxx) =  3
               file Ni.pbesol-spn-kjpaw_psl.1.0.0.UPF: wavefunction(s)  3P 3D renormalized

     Subspace diagonalization in iterative solution of the eigenvalue problem:
     a serial algorithm will be used


     Parallelization info
     --------------------
     sticks:   dense  smooth     PW     G-vecs:    dense   smooth      PW
     Min         111     111     32                 1688     1688     290
     Max         112     112     33                 1689     1689     293
     Sum         559     559    163                 8441     8441    1459



     bravais-lattice index     =            2
     lattice parameter (alat)  =       6.6500  a.u.
     unit-cell volume          =      73.5199 (a.u.)^3
     number of atoms/cell      =            1
     number of atomic types    =            1
     number of electrons       =        18.00
     number of Kohn-Sham states=           13
     kinetic-energy cutoff     =      90.0000  Ry
     charge density cutoff     =     360.0000  Ry
     convergence threshold     =      1.0E-08
     mixing beta               =       0.7000
     number of iterations used =            8  plain     mixing
     Exchange-correlation      = SLA PW PSX PSC ( 1  4 10  8 0 0)

     celldm(1)=   6.650000  celldm(2)=   0.000000  celldm(3)=   0.000000
     celldm(4)=   0.000000  celldm(5)=   0.000000  celldm(6)=   0.000000

     crystal axes: (cart. coord. in units of alat)
               a(1) = (  -0.500000   0.000000   0.500000 )  
               a(2) = (   0.000000   0.500000   0.500000 )  
               a(3) = (  -0.500000   0.500000   0.000000 )  

     reciprocal axes: (cart. coord. in units 2 pi/alat)
               b(1) = ( -1.000000 -1.000000  1.000000 )  
               b(2) = (  1.000000  1.000000  1.000000 )  
               b(3) = ( -1.000000  1.000000 -1.000000 )  


     PseudoPot. # 1 for Ni read from file:
     /home/lorenzo/pseudos/Ni/Ni.pbesol-spn-kjpaw_psl.1.0.0.UPF
     MD5 check sum: ef06ee83099c2673f0516457bd731f51
     Pseudo is Projector augmented-wave + core cor, Zval = 18.0
     Generated using "atomic" code by A. Dal Corso v.6.3
     Shape of augmentation charge: PSQ
     Using radial grid of 1195 points,  6 beta functions with: 
                l(1) =   0
                l(2) =   0
                l(3) =   1
                l(4) =   1
                l(5) =   2
                l(6) =   2
     Q(r) pseudized with 0 coefficients 


     atomic species   valence    mass     pseudopotential
        Ni            18.00    58.69340     Ni( 1.00)

     48 Sym. Ops., with inversion, found



   Cartesian axes

     site n.     atom                  positions (alat units)
         1           Ni  tau(   1) = (   0.0000000   0.0000000   0.0000000  )

     number of k points=    35  gaussian smearing, width (Ry)=  0.0100
                       cart. coord. in units 2pi/alat
        k(    1) = (   0.0000000   0.0000000   0.0000000), wk =   0.0027435
        k(    2) = (  -0.1111111   0.1111111  -0.1111111), wk =   0.0219479
        k(    3) = (  -0.2222222   0.2222222  -0.2222222), wk =   0.0219479
        k(    4) = (  -0.3333333   0.3333333  -0.3333333), wk =   0.0219479
        k(    5) = (  -0.4444444   0.4444444  -0.4444444), wk =   0.0219479
        k(    6) = (   0.0000000   0.2222222   0.0000000), wk =   0.0164609
        k(    7) = (  -0.1111111   0.3333333  -0.1111111), wk =   0.0658436
        k(    8) = (  -0.2222222   0.4444444  -0.2222222), wk =   0.0658436
        k(    9) = (  -0.3333333   0.5555556  -0.3333333), wk =   0.0658436
        k(   10) = (   0.5555556  -0.3333333   0.5555556), wk =   0.0658436
        k(   11) = (   0.4444444  -0.2222222   0.4444444), wk =   0.0658436
        k(   12) = (   0.3333333  -0.1111111   0.3333333), wk =   0.0658436
        k(   13) = (   0.2222222  -0.0000000   0.2222222), wk =   0.0329218
        k(   14) = (   0.0000000   0.4444444   0.0000000), wk =   0.0164609
        k(   15) = (  -0.1111111   0.5555556  -0.1111111), wk =   0.0658436
        k(   16) = (  -0.2222222   0.6666667  -0.2222222), wk =   0.0658436
        k(   17) = (   0.6666667  -0.2222222   0.6666667), wk =   0.0658436
        k(   18) = (   0.5555556  -0.1111111   0.5555556), wk =   0.0658436
        k(   19) = (   0.4444444   0.0000000   0.4444444), wk =   0.0329218
        k(   20) = (   0.0000000   0.6666667   0.0000000), wk =   0.0164609
        k(   21) = (  -0.1111111   0.7777778  -0.1111111), wk =   0.0658436
        k(   22) = (   0.7777778  -0.1111111   0.7777778), wk =   0.0658436
        k(   23) = (   0.6666667  -0.0000000   0.6666667), wk =   0.0329218
        k(   24) = (   0.0000000   0.8888889   0.0000000), wk =   0.0164609
        k(   25) = (   0.8888889   0.0000000   0.8888889), wk =   0.0329218
        k(   26) = (  -0.2222222   0.4444444   0.0000000), wk =   0.0658436
        k(   27) = (  -0.3333333   0.5555556  -0.1111111), wk =   0.1316872
        k(   28) = (   0.5555556  -0.3333333   0.7777778), wk =   0.1316872
        k(   29) = (  -0.2222222   0.6666667   0.0000000), wk =   0.0658436
        k(   30) = (   0.6666667  -0.2222222   0.8888889), wk =   0.1316872
        k(   31) = (   0.5555556  -0.1111111   0.7777778), wk =   0.1316872
        k(   32) = (   0.4444444   0.0000000   0.6666667), wk =   0.0658436
        k(   33) = (   0.7777778  -0.1111111   1.0000000), wk =   0.0658436
        k(   34) = (   0.6666667  -0.0000000   0.8888889), wk =   0.0658436
        k(   35) = (   0.5555556  -0.1111111   1.0000000), wk =   0.0658436

     Dense  grid:     8441 G-vectors     FFT dimensions: (  30,  30,  30)

     Estimated max dynamical RAM per process >       9.43 MB

     Estimated total dynamical RAM >      47.17 MB

     Check: negative/imaginary core charge=   -0.000002    0.000000

     Initial potential from superposition of free atoms

     starting charge   17.99977, renormalised to   18.00000
     Starting wfcs are   10 randomized atomic wfcs +    3 random wfcs
     Checking if some PAW data can be deallocated... 

     total cpu time spent up to now is        1.2 secs

     Self-consistent Calculation

     iteration #  1     ecut=    90.00 Ry     beta= 0.70
     Davidson diagonalization with overlap
     ethr =  1.00E-02,  avg # of iterations =  3.7

     Threshold (ethr) on eigenvalues was too large:
     Diagonalizing with lowered threshold

     Davidson diagonalization with overlap
     ethr =  1.14E-05,  avg # of iterations =  3.0

     total cpu time spent up to now is        2.4 secs

     total energy              =    -426.57756240 Ry
     Harris-Foulkes estimate   =    -426.57845084 Ry
     estimated scf accuracy    <       0.00198665 Ry

     iteration #  2     ecut=    90.00 Ry     beta= 0.70
     Davidson diagonalization with overlap
     ethr =  1.10E-05,  avg # of iterations =  2.0

     total cpu time spent up to now is        3.0 secs

     total energy              =    -426.57716871 Ry
     Harris-Foulkes estimate   =    -426.57837524 Ry
     estimated scf accuracy    <       0.00254755 Ry

     iteration #  3     ecut=    90.00 Ry     beta= 0.70
     Davidson diagonalization with overlap
     ethr =  1.10E-05,  avg # of iterations =  2.1

     total cpu time spent up to now is        3.6 secs

     total energy              =    -426.57779457 Ry
     Harris-Foulkes estimate   =    -426.57802475 Ry
     estimated scf accuracy    <       0.00068003 Ry

     iteration #  4     ecut=    90.00 Ry     beta= 0.70
     Davidson diagonalization with overlap
     ethr =  3.78E-06,  avg # of iterations =  1.5

     total cpu time spent up to now is        4.1 secs

     total energy              =    -426.57789534 Ry
     Harris-Foulkes estimate   =    -426.57789520 Ry
     estimated scf accuracy    <       0.00000030 Ry

     iteration #  5     ecut=    90.00 Ry     beta= 0.70
     Davidson diagonalization with overlap
     ethr =  1.67E-09,  avg # of iterations =  3.1

     total cpu time spent up to now is        4.9 secs

     total energy              =    -426.57789766 Ry
     Harris-Foulkes estimate   =    -426.57789776 Ry
     estimated scf accuracy    <       0.00000035 Ry

     iteration #  6     ecut=    90.00 Ry     beta= 0.70
     Davidson diagonalization with overlap
     ethr =  1.67E-09,  avg # of iterations =  1.0

     total cpu time spent up to now is        5.4 secs

     total energy              =    -426.57789765 Ry
     Harris-Foulkes estimate   =    -426.57789767 Ry
     estimated scf accuracy    <       0.00000006 Ry

     iteration #  7     ecut=    90.00 Ry     beta= 0.70
     Davidson diagonalization with overlap
     ethr =  3.34E-10,  avg # of iterations =  1.1

     total cpu time spent up to now is        5.9 secs

     End of self-consistent calculation

          k = 0.0000 0.0000 0.0000 (  1067 PWs)   bands (ev):

   -85.1874 -45.5937 -45.5937 -45.5937   8.6021  15.6974  15.6974  15.6974
    16.8265  16.8265  41.2790  45.1984  45.1984

          k =-0.1111 0.1111-0.1111 (  1046 PWs)   bands (ev):

   -85.1833 -45.6194 -45.5971 -45.5971   9.0817  15.5709  15.7984  15.7984
    16.7886  16.7886  39.0666  42.4558  44.2665

          k =-0.2222 0.2222-0.2222 (  1059 PWs)   bands (ev):

   -85.1732 -45.6866 -45.6068 -45.6068  10.4243  15.3373  15.9162  15.9162
    16.8505  16.8505  33.5137  41.6302  43.1957

          k =-0.3333 0.3333-0.3333 (  1059 PWs)   bands (ev):

   -85.1616 -45.7621 -45.6176 -45.6176  12.1374  15.5252  15.8099  15.8099
    17.2012  17.2012  28.2711  40.6059  42.5693

          k =-0.4444 0.4444-0.4444 (  1062 PWs)   bands (ev):

   -85.1540 -45.8110 -45.6247 -45.6247  13.0085  15.6798  15.6798  16.8971
    17.5161  17.5161  24.2900  39.8852  42.3387

          k = 0.0000 0.2222 0.0000 (  1046 PWs)   bands (ev):

   -85.1820 -45.6188 -45.6031 -45.6031   9.2398  15.4629  15.8803  15.8803
    16.6152  16.9098  40.1907  41.8162  41.8162

          k =-0.1111 0.3333-0.1111 (  1048 PWs)   bands (ev):

   -85.1739 -45.6684 -45.6144 -45.6107  10.2940  15.2062  15.9968  16.0607
    16.5642  17.0171  35.6949  40.1047  40.3897

          k =-0.2222 0.4444-0.2222 (  1058 PWs)   bands (ev):

   -85.1628 -45.7382 -45.6257 -45.6232  11.9393  15.0877  15.7626  16.0466
    17.1366  17.2991  30.2261  39.2081  39.3735

          k =-0.3333 0.5556-0.3333 (  1059 PWs)   bands (ev):

   -85.1539 -45.7928 -45.6366 -45.6318  13.1462  15.4250  15.7694  15.9067
    17.5555  18.2447  25.5879  38.1237  39.2441

          k = 0.5556-0.3333 0.5556 (  1060 PWs)   bands (ev):

   -85.1513 -45.8082 -45.6445 -45.6296  13.3541  15.4354  15.8370  16.1758
    17.4990  19.1420  23.7414  36.9894  40.3526

          k = 0.4444-0.2222 0.4444 (  1060 PWs)   bands (ev):

   -85.1564 -45.7769 -45.6429 -45.6206  12.8921  15.4709  15.6133  15.9136
    17.1116  18.0889  27.0063  36.4940  41.5976

          k = 0.3333-0.1111 0.3333 (  1060 PWs)   bands (ev):

   -85.1666 -45.7150 -45.6315 -45.6086  11.3744  15.1539  15.8356  16.0763
    16.6337  17.3775  32.0023  36.7736  43.4843

          k = 0.2222-0.0000 0.2222 (  1043 PWs)   bands (ev):

   -85.1773 -45.6521 -45.6134 -45.5992   9.8525  15.3654  15.9143  15.9608
    16.5866  16.9610  37.2296  38.1654  44.4797

          k = 0.0000 0.4444 0.0000 (  1054 PWs)   bands (ev):

   -85.1685 -45.6832 -45.6279 -45.6279  10.9879  14.8915  16.1988  16.3949
    16.3949  17.1234  37.8071  37.8071  38.7486

          k =-0.1111 0.5556-0.1111 (  1055 PWs)   bands (ev):

   -85.1594 -45.7299 -45.6434 -45.6411  12.2753  14.6282  15.8717  16.5581
    17.1651  17.3497  32.7996  36.4456  36.6358

          k =-0.2222 0.6667-0.2222 (  1054 PWs)   bands (ev):

   -85.1510 -45.7720 -45.6649 -45.6473  13.4849  14.6164  15.6063  16.4549
    17.5951  18.7954  27.7785  34.2643  36.1897

          k = 0.6667-0.2222 0.6667 (  1069 PWs)   bands (ev):

   -85.1471 -45.7868 -45.6861 -45.6445  13.9570  14.7786  15.5950  16.3246
    17.5183  21.1424  24.0797  32.4604  37.1454

          k = 0.5556-0.1111 0.5556 (  1062 PWs)   bands (ev):

   -85.1496 -45.7713 -45.6920 -45.6331  13.8947  15.0412  15.2794  16.2885
    17.1051  19.8842  26.3514  31.4801  39.2196

          k = 0.4444 0.0000 0.4444 (  1061 PWs)   bands (ev):

   -85.1573 -45.7433 -45.6703 -45.6189  12.8589  14.9736  15.4965  16.3436
    16.6029  18.3094  30.7610  31.7788  42.1360

          k = 0.0000 0.6667 0.0000 (  1058 PWs)   bands (ev):

   -85.1531 -45.7539 -45.6564 -45.6564  12.8480  14.2779  16.6890  17.0987
    17.0987  17.3712  33.3204  34.5766  34.5766

          k =-0.1111 0.7778-0.1111 (  1054 PWs)   bands (ev):

   -85.1467 -45.7792 -45.6754 -45.6641  13.3793  14.1368  16.5523  17.1278
    17.6136  18.9187  30.4385  30.9568  33.8837

          k = 0.7778-0.1111 0.7778 (  1065 PWs)   bands (ev):

   -85.1433 -45.7778 -45.7084 -45.6616  13.8640  14.2512  16.0445  16.9612
    17.5796  21.9143  26.2745  28.8011  34.5417

          k = 0.6667-0.0000 0.6667 (  1063 PWs)   bands (ev):

   -85.1444 -45.7452 -45.7442 -45.6493  14.3295  14.4874  15.4486  16.7066
    17.2810  22.5539  25.2558  28.2785  36.4302

          k = 0.0000 0.8889 0.0000 (  1066 PWs)   bands (ev):

   -85.1430 -45.7996 -45.6748 -45.6748  13.2549  13.8961  17.5361  17.6560
    17.6560  19.3075  28.0885  32.7017  32.7017

          k = 0.8889 0.0000 0.8889 (  1063 PWs)   bands (ev):

   -85.1417 -45.7978 -45.6887 -45.6737  13.4237  13.9490  17.0794  17.4190
    17.6873  21.0519  27.1026  29.9305  32.9407

          k =-0.2222 0.4444 0.0000 (  1058 PWs)   bands (ev):

   -85.1653 -45.7082 -45.6399 -45.6177  11.5177  14.9399  15.8110  16.4110
    16.5633  17.4007  34.1381  34.7993  40.5516

          k =-0.3333 0.5556-0.1111 (  1058 PWs)   bands (ev):

   -85.1555 -45.7559 -45.6620 -45.6293  13.0430  14.8774  15.4588  16.3512
    17.0577  18.2955  29.1406  33.9975  37.9378

          k = 0.5556-0.3333 0.7778 (  1065 PWs)   bands (ev):

   -85.1491 -45.7886 -45.6726 -45.6392  13.7800  15.0057  15.5293  16.2038
    17.4448  20.0440  24.8215  34.2973  35.9352

          k =-0.2222 0.6667 0.0000 (  1056 PWs)   bands (ev):

   -85.1517 -45.7583 -45.6700 -45.6499  13.2669  14.4308  15.7356  17.0768
    17.0964  18.3915  31.6282  32.2344  34.0434

          k = 0.6667-0.2222 0.8889 (  1059 PWs)   bands (ev):

   -85.1458 -45.7723 -45.6964 -45.6584  13.9729  14.4789  15.4938  16.8196
    17.5016  20.6269  27.1620  31.4235  32.3657

          k = 0.5556-0.1111 0.7778 (  1070 PWs)   bands (ev):

   -85.1444 -45.7654 -45.7182 -45.6556  14.4255  14.4879  15.2864  16.6230
    17.4572  22.6845  24.5591  29.9675  33.3908

          k = 0.4444 0.0000 0.6667 (  1058 PWs)   bands (ev):

   -85.1483 -45.7597 -45.7047 -45.6425  14.1235  14.8684  14.9653  16.6344
    17.1190  20.0821  28.1309  29.7686  35.3499

          k = 0.7778-0.1111 1.0000 (  1055 PWs)   bands (ev):

   -85.1428 -45.7867 -45.6895 -45.6742  13.5894  14.1059  16.4421  17.2884
    17.6552  20.9157  28.3555  30.1062  30.9982

          k = 0.6667-0.0000 0.8889 (  1070 PWs)   bands (ev):

   -85.1420 -45.7700 -45.7178 -45.6713  13.9605  14.3446  15.8230  16.9691
    17.6520  23.4110  26.2405  27.6826  31.5734

          k = 0.5556-0.1111 1.0000 (  1056 PWs)   bands (ev):

   -85.1424 -45.7550 -45.7270 -45.6727  14.1903  14.7484  15.1487  16.7827
    17.6527  23.4122  26.5573  28.6048  29.6864

     the Fermi energy is    17.5651 ev

!    total energy              =    -426.57789766 Ry
     Harris-Foulkes estimate   =    -426.57789766 Ry
     estimated scf accuracy    <          9.0E-10 Ry

     total all-electron energy =     -3039.036242 Ry

     The total energy is the sum of the following terms:

     one-electron contribution =    -184.95626127 Ry
     hartree contribution      =     104.53410679 Ry
     xc contribution           =     -33.92319048 Ry
     ewald contribution        =    -223.38275369 Ry
     one-center paw contrib.   =     -88.84736186 Ry
     smearing contrib. (-TS)   =      -0.00243715 Ry

     convergence has been achieved in   7 iterations

     Forces acting on atoms (cartesian axes, Ry/au):

     atom    1 type  1   force =     0.00000000    0.00000000    0.00000000

     Total force =     0.000000     Total SCF correction =     0.000000


     Computing stress (Cartesian axis) and pressure

          total   stress  (Ry/bohr**3)                   (kbar)     P= -134.39
  -0.00091359  -0.00000000  -0.00000000       -134.39     -0.00     -0.00
  -0.00000000  -0.00091359   0.00000000         -0.00   -134.39      0.00
  -0.00000000   0.00000000  -0.00091359         -0.00      0.00   -134.39


     Writing output data file Ni.save/

     init_run     :      0.42s CPU      0.45s WALL (       1 calls)
     electrons    :      4.46s CPU      4.69s WALL (       1 calls)
     forces       :      0.05s CPU      0.05s WALL (       1 calls)
     stress       :      0.17s CPU      0.17s WALL (       1 calls)

     Called by init_run:
     wfcinit      :      0.14s CPU      0.15s WALL (       1 calls)
     potinit      :      0.09s CPU      0.11s WALL (       1 calls)
     hinit0       :      0.15s CPU      0.16s WALL (       1 calls)

     Called by electrons:
     c_bands      :      3.11s CPU      3.23s WALL (       8 calls)
     sum_band     :      0.63s CPU      0.66s WALL (       8 calls)
     v_of_rho     :      0.04s CPU      0.04s WALL (       8 calls)
     newd         :      0.07s CPU      0.08s WALL (       8 calls)
     PAW_pot      :      0.69s CPU      0.79s WALL (       8 calls)
     mix_rho      :      0.00s CPU      0.00s WALL (       8 calls)

     Called by c_bands:
     init_us_2    :      0.09s CPU      0.09s WALL (     665 calls)
     cegterg      :      2.99s CPU      3.10s WALL (     280 calls)

     Called by sum_band:
     sum_band:bec :      0.00s CPU      0.00s WALL (     280 calls)
     addusdens    :      0.06s CPU      0.06s WALL (       8 calls)

     Called by *egterg:
     h_psi        :      2.32s CPU      2.41s WALL (     926 calls)
     s_psi        :      0.08s CPU      0.08s WALL (     926 calls)
     g_psi        :      0.01s CPU      0.01s WALL (     611 calls)
     cdiaghg      :      0.29s CPU      0.30s WALL (     856 calls)

     Called by h_psi:
     h_psi:pot    :      2.31s CPU      2.40s WALL (     926 calls)
     h_psi:calbec :      0.10s CPU      0.10s WALL (     926 calls)
     vloc_psi     :      2.13s CPU      2.21s WALL (     926 calls)
     add_vuspsi   :      0.08s CPU      0.08s WALL (     926 calls)

     General routines
     calbec       :      0.18s CPU      0.19s WALL (    1381 calls)
     fft          :      0.02s CPU      0.03s WALL (     115 calls)
     ffts         :      0.00s CPU      0.00s WALL (       8 calls)
     fftw         :      2.40s CPU      2.50s WALL (   22096 calls)

     Parallel routines
     fft_scatt_xy :      0.21s CPU      0.22s WALL (   22219 calls)
     fft_scatt_yz :      0.56s CPU      0.58s WALL (   22219 calls)

     PWSCF        :     5.87s CPU         6.21s WALL


   This run was terminated on:  23: 3:20  26Mar2024            

=------------------------------------------------------------------------------=
   JOB DONE.
=------------------------------------------------------------------------------=
