
     Program PWSCF v.6.3MaX starts on 26Mar2024 at 22:45: 2 

     This program is part of the open-source Quantum ESPRESSO suite
     for quantum simulation of materials; please cite
         "P. Giannozzi et al., J. Phys.:Condens. Matter 21 395502 (2009);
         "P. Giannozzi et al., J. Phys.:Condens. Matter 29 465901 (2017);
          URL http://www.quantum-espresso.org", 
     in publications or presentations arising from this work. More details at
     http://www.quantum-espresso.org/quote

     Parallel version (MPI), running on     5 processors

     MPI processes distributed on     1 nodes
     R & G space division:  proc/nbgrp/npool/nimage =       5
     Waiting for input...
     Reading input from standard input

     Current dimensions of program PWSCF are:
     Max number of different atomic species (ntypx) = 10
     Max number of k-points (npk) =  40000
     Max angular momentum in pseudopotentials (lmaxx) =  3

     Subspace diagonalization in iterative solution of the eigenvalue problem:
     a serial algorithm will be used


     Parallelization info
     --------------------
     sticks:   dense  smooth     PW     G-vecs:    dense   smooth      PW
     Min          73      73     24                  928      928     178
     Max          74      74     25                  930      930     181
     Sum         367     367    121                 4645     4645     893



     bravais-lattice index     =            2
     lattice parameter (alat)  =       6.6500  a.u.
     unit-cell volume          =      73.5199 (a.u.)^3
     number of atoms/cell      =            1
     number of atomic types    =            1
     number of electrons       =        18.00
     number of Kohn-Sham states=           13
     kinetic-energy cutoff     =      60.0000  Ry
     charge density cutoff     =     240.0000  Ry
     convergence threshold     =      1.0E-08
     mixing beta               =       0.7000
     number of iterations used =            8  plain     mixing
     Exchange-correlation      = PBE ( 1  4  3  4 0 0)

     celldm(1)=   6.650000  celldm(2)=   0.000000  celldm(3)=   0.000000
     celldm(4)=   0.000000  celldm(5)=   0.000000  celldm(6)=   0.000000

     crystal axes: (cart. coord. in units of alat)
               a(1) = (  -0.500000   0.000000   0.500000 )  
               a(2) = (   0.000000   0.500000   0.500000 )  
               a(3) = (  -0.500000   0.500000   0.000000 )  

     reciprocal axes: (cart. coord. in units 2 pi/alat)
               b(1) = ( -1.000000 -1.000000  1.000000 )  
               b(2) = (  1.000000  1.000000  1.000000 )  
               b(3) = ( -1.000000  1.000000 -1.000000 )  


     PseudoPot. # 1 for Ni read from file:
     /home/lorenzo/pseudos/Ni/Ni.pbe-spn-rrkjus_psl.1.0.0.UPF
     MD5 check sum: 8b3fc9aac6dafe35f580d41bb18c3945
     Pseudo is Ultrasoft + core correction, Zval = 18.0
     Generated using "atomic" code by A. Dal Corso v.6.3
     Using radial grid of 1195 points,  6 beta functions with: 
                l(1) =   0
                l(2) =   0
                l(3) =   1
                l(4) =   1
                l(5) =   2
                l(6) =   2
     Q(r) pseudized with 0 coefficients 


     atomic species   valence    mass     pseudopotential
        Ni            18.00    58.69340     Ni( 1.00)

     48 Sym. Ops., with inversion, found



   Cartesian axes

     site n.     atom                  positions (alat units)
         1           Ni  tau(   1) = (   0.0000000   0.0000000   0.0000000  )

     number of k points=    29  gaussian smearing, width (Ry)=  0.0100
                       cart. coord. in units 2pi/alat
        k(    1) = (   0.0000000   0.0000000   0.0000000), wk =   0.0039062
        k(    2) = (  -0.1250000   0.1250000  -0.1250000), wk =   0.0312500
        k(    3) = (  -0.2500000   0.2500000  -0.2500000), wk =   0.0312500
        k(    4) = (  -0.3750000   0.3750000  -0.3750000), wk =   0.0312500
        k(    5) = (   0.5000000  -0.5000000   0.5000000), wk =   0.0156250
        k(    6) = (   0.0000000   0.2500000   0.0000000), wk =   0.0234375
        k(    7) = (  -0.1250000   0.3750000  -0.1250000), wk =   0.0937500
        k(    8) = (  -0.2500000   0.5000000  -0.2500000), wk =   0.0937500
        k(    9) = (   0.6250000  -0.3750000   0.6250000), wk =   0.0937500
        k(   10) = (   0.5000000  -0.2500000   0.5000000), wk =   0.0937500
        k(   11) = (   0.3750000  -0.1250000   0.3750000), wk =   0.0937500
        k(   12) = (   0.2500000   0.0000000   0.2500000), wk =   0.0468750
        k(   13) = (   0.0000000   0.5000000   0.0000000), wk =   0.0234375
        k(   14) = (  -0.1250000   0.6250000  -0.1250000), wk =   0.0937500
        k(   15) = (   0.7500000  -0.2500000   0.7500000), wk =   0.0937500
        k(   16) = (   0.6250000  -0.1250000   0.6250000), wk =   0.0937500
        k(   17) = (   0.5000000   0.0000000   0.5000000), wk =   0.0468750
        k(   18) = (   0.0000000   0.7500000   0.0000000), wk =   0.0234375
        k(   19) = (   0.8750000  -0.1250000   0.8750000), wk =   0.0937500
        k(   20) = (   0.7500000   0.0000000   0.7500000), wk =   0.0468750
        k(   21) = (   0.0000000  -1.0000000   0.0000000), wk =   0.0117188
        k(   22) = (  -0.2500000   0.5000000   0.0000000), wk =   0.0937500
        k(   23) = (   0.6250000  -0.3750000   0.8750000), wk =   0.1875000
        k(   24) = (   0.5000000  -0.2500000   0.7500000), wk =   0.0937500
        k(   25) = (   0.7500000  -0.2500000   1.0000000), wk =   0.0937500
        k(   26) = (   0.6250000  -0.1250000   0.8750000), wk =   0.1875000
        k(   27) = (   0.5000000   0.0000000   0.7500000), wk =   0.0937500
        k(   28) = (  -0.2500000  -1.0000000   0.0000000), wk =   0.0468750
        k(   29) = (  -0.5000000  -1.0000000   0.0000000), wk =   0.0234375

     Dense  grid:     4645 G-vectors     FFT dimensions: (  24,  24,  24)

     Estimated max dynamical RAM per process >       5.47 MB

     Estimated total dynamical RAM >      27.34 MB

     Check: negative/imaginary core charge=   -0.000009    0.000000

     Initial potential from superposition of free atoms

     starting charge   17.99975, renormalised to   18.00000
     Starting wfcs are   10 randomized atomic wfcs +    3 random wfcs

     total cpu time spent up to now is        1.0 secs

     Self-consistent Calculation

     iteration #  1     ecut=    60.00 Ry     beta= 0.70
     Davidson diagonalization with overlap
     ethr =  1.00E-02,  avg # of iterations =  3.6

     Threshold (ethr) on eigenvalues was too large:
     Diagonalizing with lowered threshold

     Davidson diagonalization with overlap
     ethr =  2.02E-05,  avg # of iterations =  2.9

     total cpu time spent up to now is        1.5 secs

     total energy              =    -339.58979705 Ry
     Harris-Foulkes estimate   =    -339.59193332 Ry
     estimated scf accuracy    <       0.00370575 Ry

     iteration #  2     ecut=    60.00 Ry     beta= 0.70
     Davidson diagonalization with overlap
     ethr =  2.06E-05,  avg # of iterations =  2.5

     total cpu time spent up to now is        1.8 secs

     total energy              =    -339.58888512 Ry
     Harris-Foulkes estimate   =    -339.59444149 Ry
     estimated scf accuracy    <       0.01648801 Ry

     iteration #  3     ecut=    60.00 Ry     beta= 0.70
     Davidson diagonalization with overlap
     ethr =  2.06E-05,  avg # of iterations =  2.1

     total cpu time spent up to now is        2.0 secs

     total energy              =    -339.59144541 Ry
     Harris-Foulkes estimate   =    -339.59145400 Ry
     estimated scf accuracy    <       0.00009077 Ry

     iteration #  4     ecut=    60.00 Ry     beta= 0.70
     Davidson diagonalization with overlap
     ethr =  5.04E-07,  avg # of iterations =  2.3

     total cpu time spent up to now is        2.3 secs

     total energy              =    -339.59145870 Ry
     Harris-Foulkes estimate   =    -339.59145854 Ry
     estimated scf accuracy    <       0.00000059 Ry

     iteration #  5     ecut=    60.00 Ry     beta= 0.70
     Davidson diagonalization with overlap
     ethr =  3.28E-09,  avg # of iterations =  2.1

     total cpu time spent up to now is        2.5 secs

     total energy              =    -339.59145882 Ry
     Harris-Foulkes estimate   =    -339.59145884 Ry
     estimated scf accuracy    <       0.00000007 Ry

     iteration #  6     ecut=    60.00 Ry     beta= 0.70
     Davidson diagonalization with overlap
     ethr =  3.73E-10,  avg # of iterations =  1.6

     total cpu time spent up to now is        2.8 secs

     End of self-consistent calculation

          k = 0.0000 0.0000 0.0000 (   561 PWs)   bands (ev):

   -85.3142 -45.5706 -45.5706 -45.5706   8.8364  15.8948  15.8948  15.8948
    17.0011  17.0011  41.4899  45.4392  45.4392

          k =-0.1250 0.1250-0.1250 (   570 PWs)   bands (ev):

   -85.3097 -45.6037 -45.5756 -45.5756   9.4389  15.7395  16.0165  16.0165
    16.9586  16.9586  38.6417  42.5506  44.3552

          k =-0.2500 0.2500-0.2500 (   576 PWs)   bands (ev):

   -85.2980 -45.6817 -45.5870 -45.5870  11.0853  15.5115  16.0988  16.0988
    17.0979  17.0979  32.3666  41.5953  43.2419

          k =-0.3750 0.3750-0.3750 (   589 PWs)   bands (ev):

   -85.2865 -45.7595 -45.5984 -45.5984  12.8328  15.9396  15.9396  16.1291
    17.5260  17.5260  26.7786  40.4755  42.6958

          k = 0.5000-0.5000 0.5000 (   580 PWs)   bands (ev):

   -85.2812 -45.7915 -45.6030 -45.6030  13.2943  15.8479  15.8479  17.5488
    17.7445  17.7445  23.7905  39.9938  42.5777

          k = 0.0000 0.2500 0.0000 (   568 PWs)   bands (ev):

   -85.3080 -45.6026 -45.5831 -45.5831   9.6377  15.6029  16.1245  16.1245
    16.7406  17.1048  40.2052  41.5354  41.5354

          k =-0.1250 0.3750-0.1250 (   574 PWs)   bands (ev):

   -85.2986 -45.6605 -45.5964 -45.5927  10.9379  15.3088  16.1636  16.3152
    16.8141  17.2603  34.8257  39.6950  40.1822

          k =-0.2500 0.5000-0.2500 (   579 PWs)   bands (ev):

   -85.2868 -45.7339 -45.6080 -45.6076  12.7678  15.2986  15.8480  16.2382
    17.6065  17.7041  28.8515  38.8183  38.9509

          k = 0.6250-0.3750 0.6250 (   578 PWs)   bands (ev):

   -85.2795 -45.7779 -45.6223 -45.6104  13.6020  15.5401  16.0922  16.1727
    17.7594  19.3199  24.3707  37.2075  39.4902

          k = 0.5000-0.2500 0.5000 (   581 PWs)   bands (ev):

   -85.2812 -45.7675 -45.6265 -45.6030  13.4932  15.6427  15.9741  16.0918
    17.4656  18.9054  25.5732  36.1873  41.4270

          k = 0.3750-0.1250 0.3750 (   579 PWs)   bands (ev):

   -85.2908 -45.7099 -45.6170 -45.5896  12.1989  15.3275  15.9352  16.2627
    16.9048  17.8188  30.7680  36.1663  43.1150

          k = 0.2500 0.0000 0.2500 (   576 PWs)   bands (ev):

   -85.3026 -45.6419 -45.5962 -45.5784  10.3989  15.4968  16.1142  16.2223
    16.7157  17.2157  36.6200  37.4732  45.0423

          k = 0.0000 0.5000 0.0000 (   576 PWs)   bands (ev):

   -85.2924 -45.6774 -45.6124 -45.6124  11.7491  14.9303  16.3390  16.7568
    16.7568  17.3593  37.1472  37.1472  37.9121

          k =-0.1250 0.6250-0.1250 (   579 PWs)   bands (ev):

   -85.2829 -45.7244 -45.6316 -45.6255  13.0850  14.6736  16.0844  16.8840
    17.6441  17.8520  31.7693  35.0416  35.8509

          k = 0.7500-0.2500 0.7500 (   579 PWs)   bands (ev):

   -85.2756 -45.7543 -45.6597 -45.6284  14.0391  14.7266  15.8542  16.7309
    17.7980  20.3408  26.4539  32.4964  36.0636

          k = 0.6250-0.1250 0.6250 (   577 PWs)   bands (ev):

   -85.2748 -45.7483 -45.6813 -45.6189  14.3589  14.9456  15.6215  16.6017
    17.4908  21.5658  25.0240  30.8874  37.8194

          k = 0.5000 0.0000 0.5000 (   574 PWs)   bands (ev):

   -85.2810 -45.7288 -45.6642 -45.6029  13.7632  15.1867  15.4545  16.5461
    16.9764  19.1910  29.5016  30.8467  40.8053

          k = 0.0000 0.7500 0.0000 (   576 PWs)   bands (ev):

   -85.2765 -45.7500 -45.6413 -45.6413  13.3455  14.2985  17.5403  17.5403
    17.6198  17.7349  31.3607  33.9255  33.9255

          k = 0.8750-0.1250 0.8750 (   580 PWs)   bands (ev):

   -85.2717 -45.7646 -45.6629 -45.6461  13.6673  14.2374  16.9830  17.4500
    17.8512  20.5141  28.7001  29.9959  33.6130

          k = 0.7500 0.0000 0.7500 (   588 PWs)   bands (ev):

   -85.2713 -45.7439 -45.7000 -45.6370  14.1813  14.4837  16.1420  17.1574
    17.6661  23.7171  25.2711  27.9386  35.0365

          k = 0.0000-1.0000 0.0000 (   588 PWs)   bands (ev):

   -85.2704 -45.7798 -45.6537 -45.6537  13.4491  14.0476  17.7296  17.9293
    17.9293  20.2968  27.2504  32.6946  32.6946

          k =-0.2500 0.5000 0.0000 (   578 PWs)   bands (ev):

   -85.2891 -45.7012 -45.6275 -45.6010  12.3740  15.0271  15.8647  16.7708
    16.8166  17.8536  33.2096  33.9093  39.2692

          k = 0.6250-0.3750 0.8750 (   577 PWs)   bands (ev):

   -85.2795 -45.7435 -45.6520 -45.6143  13.8362  15.0531  15.5066  16.6036
    17.4227  19.2987  27.8090  33.3373  36.4340

          k = 0.5000-0.2500 0.7500 (   578 PWs)   bands (ev):

   -85.2755 -45.7617 -45.6599 -45.6215  14.2080  15.0335  15.7167  16.4734
    17.6661  21.3921  24.1577  33.8829  34.7933

          k = 0.7500-0.2500 1.0000 (   577 PWs)   bands (ev):

   -85.2755 -45.7459 -45.6590 -45.6367  13.8190  14.5270  16.0264  17.3310
    17.5364  19.6100  30.6811  31.2955  32.2633

          k = 0.6250-0.1250 0.8750 (   577 PWs)   bands (ev):

   -85.2715 -45.7418 -45.6910 -45.6419  14.3196  14.6777  15.6899  17.0071
    17.7692  22.7971  26.0389  29.6919  31.9288

          k = 0.5000 0.0000 0.7500 (   572 PWs)   bands (ev):

   -85.2730 -45.7297 -45.7013 -45.6304  14.6080  14.9132  15.2027  16.8568
    17.5439  21.9628  26.8024  29.0821  33.7171

          k =-0.2500-1.0000 0.0000 (   582 PWs)   bands (ev):

   -85.2701 -45.7612 -45.6721 -45.6543  13.8444  14.3228  16.6036  17.3882
    17.9299  22.3004  27.4503  29.6767  30.7457

          k =-0.5000-1.0000 0.0000 (   560 PWs)   bands (ev):

   -85.2692 -45.7159 -45.7159 -45.6544  14.3622  15.1725  15.1725  16.9186
    17.9305  25.7165  25.7165  27.9534  29.0571

     the Fermi energy is    17.7600 ev

!    total energy              =    -339.59145883 Ry
     Harris-Foulkes estimate   =    -339.59145883 Ry
     estimated scf accuracy    <          1.1E-10 Ry

     The total energy is the sum of the following terms:

     one-electron contribution =    -186.64566422 Ry
     hartree contribution      =     104.75878480 Ry
     xc contribution           =     -34.31906477 Ry
     ewald contribution        =    -223.38275372 Ry
     smearing contrib. (-TS)   =      -0.00276092 Ry

     convergence has been achieved in   6 iterations

     Forces acting on atoms (cartesian axes, Ry/au):

     atom    1 type  1   force =     0.00000000    0.00000000    0.00000000

     Total force =     0.000000     Total SCF correction =     0.000000


     Computing stress (Cartesian axis) and pressure

          total   stress  (Ry/bohr**3)                   (kbar)     P=  -26.70
  -0.00018151   0.00000000   0.00000000        -26.70      0.00      0.00
   0.00000000  -0.00018151  -0.00000000          0.00    -26.70     -0.00
   0.00000000  -0.00000000  -0.00018151          0.00     -0.00    -26.70


     Writing output data file Ni.save/

     init_run     :      0.23s CPU      0.24s WALL (       1 calls)
     electrons    :      1.70s CPU      1.81s WALL (       1 calls)
     forces       :      0.03s CPU      0.03s WALL (       1 calls)
     stress       :      0.08s CPU      0.08s WALL (       1 calls)

     Called by init_run:
     wfcinit      :      0.08s CPU      0.09s WALL (       1 calls)
     potinit      :      0.01s CPU      0.01s WALL (       1 calls)
     hinit0       :      0.14s CPU      0.14s WALL (       1 calls)

     Called by electrons:
     c_bands      :      1.39s CPU      1.48s WALL (       7 calls)
     sum_band     :      0.26s CPU      0.28s WALL (       7 calls)
     v_of_rho     :      0.02s CPU      0.02s WALL (       7 calls)
     newd         :      0.03s CPU      0.03s WALL (       7 calls)
     mix_rho      :      0.00s CPU      0.00s WALL (       7 calls)

     Called by c_bands:
     init_us_2    :      0.04s CPU      0.04s WALL (     493 calls)
     cegterg      :      1.34s CPU      1.43s WALL (     203 calls)

     Called by sum_band:
     sum_band:bec :      0.00s CPU      0.00s WALL (     203 calls)
     addusdens    :      0.03s CPU      0.03s WALL (       7 calls)

     Called by *egterg:
     h_psi        :      0.95s CPU      1.02s WALL (     726 calls)
     s_psi        :      0.03s CPU      0.03s WALL (     726 calls)
     g_psi        :      0.00s CPU      0.00s WALL (     494 calls)
     cdiaghg      :      0.22s CPU      0.23s WALL (     668 calls)

     Called by h_psi:
     h_psi:pot    :      0.94s CPU      1.01s WALL (     726 calls)
     h_psi:calbec :      0.05s CPU      0.05s WALL (     726 calls)
     vloc_psi     :      0.86s CPU      0.92s WALL (     726 calls)
     add_vuspsi   :      0.03s CPU      0.03s WALL (     726 calls)

     General routines
     calbec       :      0.07s CPU      0.08s WALL (    1074 calls)
     fft          :      0.01s CPU      0.01s WALL (     104 calls)
     ffts         :      0.00s CPU      0.00s WALL (       7 calls)
     fftw         :      0.96s CPU      1.03s WALL (   16173 calls)

     Parallel routines
     fft_scatt_xy :      0.09s CPU      0.10s WALL (   16284 calls)
     fft_scatt_yz :      0.27s CPU      0.29s WALL (   16284 calls)

     PWSCF        :     2.78s CPU         2.96s WALL


   This run was terminated on:  22:45: 5  26Mar2024            

=------------------------------------------------------------------------------=
   JOB DONE.
=------------------------------------------------------------------------------=
