
     Program PWSCF v.6.3MaX starts on 26Mar2024 at 22:24:46 

     This program is part of the open-source Quantum ESPRESSO suite
     for quantum simulation of materials; please cite
         "P. Giannozzi et al., J. Phys.:Condens. Matter 21 395502 (2009);
         "P. Giannozzi et al., J. Phys.:Condens. Matter 29 465901 (2017);
          URL http://www.quantum-espresso.org", 
     in publications or presentations arising from this work. More details at
     http://www.quantum-espresso.org/quote

     Parallel version (MPI), running on     5 processors

     MPI processes distributed on     1 nodes
     R & G space division:  proc/nbgrp/npool/nimage =       5
     Waiting for input...
     Reading input from standard input

     Current dimensions of program PWSCF are:
     Max number of different atomic species (ntypx) = 10
     Max number of k-points (npk) =  40000
     Max angular momentum in pseudopotentials (lmaxx) =  3
               file Ni.pbe-spn-kjpaw_psl.1.0.0.UPF: wavefunction(s)  3P 3D renormalized

     Subspace diagonalization in iterative solution of the eigenvalue problem:
     a serial algorithm will be used


     Parallelization info
     --------------------
     sticks:   dense  smooth     PW     G-vecs:    dense   smooth      PW
     Min          17      17      7                  112      112      33
     Max          19      19      8                  113      113      35
     Sum          91      91     37                  561      561     169



     bravais-lattice index     =            2
     lattice parameter (alat)  =       6.6500  a.u.
     unit-cell volume          =      73.5199 (a.u.)^3
     number of atoms/cell      =            1
     number of atomic types    =            1
     number of electrons       =        18.00
     number of Kohn-Sham states=           13
     kinetic-energy cutoff     =      15.0000  Ry
     charge density cutoff     =      60.0000  Ry
     convergence threshold     =      1.0E-08
     mixing beta               =       0.7000
     number of iterations used =            8  plain     mixing
     Exchange-correlation      = SLA PW PBX PBC ( 1  4  3  4 0 0)

     celldm(1)=   6.650000  celldm(2)=   0.000000  celldm(3)=   0.000000
     celldm(4)=   0.000000  celldm(5)=   0.000000  celldm(6)=   0.000000

     crystal axes: (cart. coord. in units of alat)
               a(1) = (  -0.500000   0.000000   0.500000 )  
               a(2) = (   0.000000   0.500000   0.500000 )  
               a(3) = (  -0.500000   0.500000   0.000000 )  

     reciprocal axes: (cart. coord. in units 2 pi/alat)
               b(1) = ( -1.000000 -1.000000  1.000000 )  
               b(2) = (  1.000000  1.000000  1.000000 )  
               b(3) = ( -1.000000  1.000000 -1.000000 )  


     PseudoPot. # 1 for Ni read from file:
     /home/lorenzo/pseudos/Ni/Ni.pbe-spn-kjpaw_psl.1.0.0.UPF
     MD5 check sum: 6e86b733589c3ad8389697b807d86aa7
     Pseudo is Projector augmented-wave + core cor, Zval = 18.0
     Generated using "atomic" code by A. Dal Corso v.6.3
     Shape of augmentation charge: PSQ
     Using radial grid of 1195 points,  6 beta functions with: 
                l(1) =   0
                l(2) =   0
                l(3) =   1
                l(4) =   1
                l(5) =   2
                l(6) =   2
     Q(r) pseudized with 0 coefficients 


     atomic species   valence    mass     pseudopotential
        Ni            18.00    58.69340     Ni( 1.00)

     48 Sym. Ops., with inversion, found



   Cartesian axes

     site n.     atom                  positions (alat units)
         1           Ni  tau(   1) = (   0.0000000   0.0000000   0.0000000  )

     number of k points=     8  gaussian smearing, width (Ry)=  0.0100
                       cart. coord. in units 2pi/alat
        k(    1) = (   0.0000000   0.0000000   0.0000000), wk =   0.0312500
        k(    2) = (  -0.2500000   0.2500000  -0.2500000), wk =   0.2500000
        k(    3) = (   0.5000000  -0.5000000   0.5000000), wk =   0.1250000
        k(    4) = (   0.0000000   0.5000000   0.0000000), wk =   0.1875000
        k(    5) = (   0.7500000  -0.2500000   0.7500000), wk =   0.7500000
        k(    6) = (   0.5000000   0.0000000   0.5000000), wk =   0.3750000
        k(    7) = (   0.0000000  -1.0000000   0.0000000), wk =   0.0937500
        k(    8) = (  -0.5000000  -1.0000000   0.0000000), wk =   0.1875000

     Dense  grid:      561 G-vectors     FFT dimensions: (  12,  12,  12)

     Estimated max dynamical RAM per process >       1.11 MB

     Estimated total dynamical RAM >       5.56 MB

     Check: negative/imaginary core charge=   -0.001438    0.000000

     Initial potential from superposition of free atoms
     Check: negative starting charge=   -0.125591

     starting charge   17.99975, renormalised to   18.00000

     negative rho (up, down):  1.256E-01 0.000E+00
     Starting wfcs are   10 randomized atomic wfcs +    3 random wfcs
     Checking if some PAW data can be deallocated... 

     total cpu time spent up to now is        0.9 secs

     Self-consistent Calculation

     iteration #  1     ecut=    15.00 Ry     beta= 0.70
     Davidson diagonalization with overlap
     ethr =  1.00E-02,  avg # of iterations =  3.8

     total cpu time spent up to now is        1.1 secs

     total energy              =    -359.61455800 Ry
     Harris-Foulkes estimate   =    -399.91888339 Ry
     estimated scf accuracy    <      47.02550027 Ry

     iteration #  2     ecut=    15.00 Ry     beta= 0.70
     Davidson diagonalization with overlap
     ethr =  1.00E-02,  avg # of iterations =  3.4

     total cpu time spent up to now is        1.2 secs

     total energy              =    -366.20609224 Ry
     Harris-Foulkes estimate   =    -367.20808876 Ry
     estimated scf accuracy    <       2.02695274 Ry

     iteration #  3     ecut=    15.00 Ry     beta= 0.70
     Davidson diagonalization with overlap
     ethr =  1.00E-02,  avg # of iterations =  1.0

     negative rho (up, down):  2.794E-03 0.000E+00

     total cpu time spent up to now is        1.3 secs

     total energy              =    -366.18854285 Ry
     Harris-Foulkes estimate   =    -366.25527390 Ry
     estimated scf accuracy    <       0.12948460 Ry

     iteration #  4     ecut=    15.00 Ry     beta= 0.70
     Davidson diagonalization with overlap
     ethr =  7.19E-04,  avg # of iterations =  1.0

     negative rho (up, down):  2.722E-03 0.000E+00

     total cpu time spent up to now is        1.5 secs

     total energy              =    -366.19230351 Ry
     Harris-Foulkes estimate   =    -366.19240331 Ry
     estimated scf accuracy    <       0.00027028 Ry

     iteration #  5     ecut=    15.00 Ry     beta= 0.70
     Davidson diagonalization with overlap
     ethr =  1.50E-06,  avg # of iterations =  2.4

     negative rho (up, down):  2.735E-03 0.000E+00

     total cpu time spent up to now is        1.6 secs

     total energy              =    -366.19235175 Ry
     Harris-Foulkes estimate   =    -366.19236669 Ry
     estimated scf accuracy    <       0.00003104 Ry

     iteration #  6     ecut=    15.00 Ry     beta= 0.70
     Davidson diagonalization with overlap
     ethr =  1.72E-07,  avg # of iterations =  1.4

     negative rho (up, down):  2.737E-03 0.000E+00

     total cpu time spent up to now is        1.7 secs

     total energy              =    -366.19235396 Ry
     Harris-Foulkes estimate   =    -366.19235408 Ry
     estimated scf accuracy    <       0.00000035 Ry

     iteration #  7     ecut=    15.00 Ry     beta= 0.70
     Davidson diagonalization with overlap
     ethr =  1.96E-09,  avg # of iterations =  1.9

     negative rho (up, down):  2.738E-03 0.000E+00

     total cpu time spent up to now is        1.8 secs

     End of self-consistent calculation

          k = 0.0000 0.0000 0.0000 (    65 PWs)   bands (ev):

  -169.6751 -48.4279 -48.4279 -48.4279  13.4398  33.6174  33.6174  34.3867
    34.3867  34.3867  48.4322  52.9034  52.9034

          k =-0.2500 0.2500-0.2500 (    68 PWs)   bands (ev):

  -169.8768 -55.7209 -48.5145 -48.5145  15.9155  28.3534  32.8450  32.8450
    35.4547  35.4547  44.8142  50.4457  55.4227

          k = 0.5000-0.5000 0.5000 (    76 PWs)   bands (ev):

  -172.2723 -71.4278 -54.6785 -54.6785  21.3760  22.2477  22.2477  23.2365
    29.2906  32.3305  32.3305  48.2851  48.2851

          k = 0.0000 0.5000 0.0000 (    76 PWs)   bands (ev):

  -172.1880 -66.2339 -56.5865 -56.5865  16.4641  25.4481  25.4481  28.3652
    29.3528  30.2213  43.7744  43.7744  44.1256

          k = 0.7500-0.2500 0.7500 (    74 PWs)   bands (ev):

  -171.1692 -62.7082 -56.2568 -52.9604  21.5770  24.9850  25.4768  28.2470
    30.9104  33.4066  36.6536  44.3675  45.2857

          k = 0.5000 0.0000 0.5000 (    75 PWs)   bands (ev):

  -171.6613 -66.0678 -56.9334 -52.8448  19.3251  23.6924  27.6740  28.2159
    29.1755  34.4534  39.0570  41.6748  49.7920

          k = 0.0000-1.0000 0.0000 (    64 PWs)   bands (ev):

  -167.5579 -45.9125 -45.3631 -45.3631  24.9121  28.8200  29.2196  38.2839
    38.2839  39.9590  41.2392  41.4103  41.4103

          k =-0.5000-1.0000 0.0000 (    68 PWs)   bands (ev):

  -168.9304 -51.0312 -51.0312 -48.2021  27.1527  27.1527  27.3706  30.0275
    31.3340  38.9994  41.5954  41.5954  51.9475

     the Fermi energy is    33.3135 ev

!    total energy              =    -366.19235401 Ry
     Harris-Foulkes estimate   =    -366.19235401 Ry
     estimated scf accuracy    <          2.0E-09 Ry

     total all-electron energy =     -2978.624462 Ry

     The total energy is the sum of the following terms:

     one-electron contribution =     -61.12637940 Ry
     hartree contribution      =      33.26746898 Ry
     xc contribution           =     -25.01188199 Ry
     ewald contribution        =    -223.38275371 Ry
     one-center paw contrib.   =     -89.93748197 Ry
     smearing contrib. (-TS)   =      -0.00132591 Ry

     convergence has been achieved in   7 iterations

     negative rho (up, down):  2.738E-03 0.000E+00

     Forces acting on atoms (cartesian axes, Ry/au):

     atom    1 type  1   force =     0.00000000    0.00000000    0.00000000

     Total force =     0.000000     Total SCF correction =     0.000000


     Computing stress (Cartesian axis) and pressure


     negative rho (up, down):  2.738E-03 0.000E+00
          total   stress  (Ry/bohr**3)                   (kbar)     P=********
  -0.92145938   0.00000000   0.00000000    -135551.33      0.00      0.00
   0.00000000  -0.92145938  -0.00000000          0.00-135551.33     -0.00
   0.00000000  -0.00000000  -0.92145938          0.00     -0.00-135551.33


     Writing output data file Ni.save/

     init_run     :      0.17s CPU      0.19s WALL (       1 calls)
     electrons    :      0.79s CPU      0.93s WALL (       1 calls)
     forces       :      0.00s CPU      0.00s WALL (       1 calls)
     stress       :      0.01s CPU      0.01s WALL (       1 calls)

     Called by init_run:
     wfcinit      :      0.01s CPU      0.01s WALL (       1 calls)
     potinit      :      0.09s CPU      0.11s WALL (       1 calls)
     hinit0       :      0.06s CPU      0.06s WALL (       1 calls)

     Called by electrons:
     c_bands      :      0.16s CPU      0.19s WALL (       7 calls)
     sum_band     :      0.02s CPU      0.03s WALL (       7 calls)
     v_of_rho     :      0.00s CPU      0.00s WALL (       8 calls)
     newd         :      0.01s CPU      0.01s WALL (       8 calls)
     PAW_pot      :      0.69s CPU      0.81s WALL (       8 calls)
     mix_rho      :      0.00s CPU      0.00s WALL (       7 calls)

     Called by c_bands:
     init_us_2    :      0.00s CPU      0.00s WALL (     136 calls)
     cegterg      :      0.15s CPU      0.18s WALL (      56 calls)

     Called by sum_band:
     sum_band:bec :      0.00s CPU      0.00s WALL (      56 calls)
     addusdens    :      0.00s CPU      0.00s WALL (       7 calls)

     Called by *egterg:
     h_psi        :      0.08s CPU      0.09s WALL (     182 calls)
     s_psi        :      0.00s CPU      0.00s WALL (     182 calls)
     g_psi        :      0.00s CPU      0.00s WALL (     118 calls)
     cdiaghg      :      0.06s CPU      0.07s WALL (     174 calls)

     Called by h_psi:
     h_psi:pot    :      0.08s CPU      0.09s WALL (     182 calls)
     h_psi:calbec :      0.00s CPU      0.01s WALL (     182 calls)
     vloc_psi     :      0.07s CPU      0.08s WALL (     182 calls)
     add_vuspsi   :      0.00s CPU      0.00s WALL (     182 calls)

     General routines
     calbec       :      0.01s CPU      0.01s WALL (     278 calls)
     fft          :      0.00s CPU      0.00s WALL (     114 calls)
     ffts         :      0.00s CPU      0.00s WALL (       7 calls)
     fftw         :      0.07s CPU      0.08s WALL (    4650 calls)

     Parallel routines
     fft_scatt_xy :      0.01s CPU      0.01s WALL (    4771 calls)
     fft_scatt_yz :      0.03s CPU      0.03s WALL (    4771 calls)

     PWSCF        :     1.70s CPU         1.91s WALL


   This run was terminated on:  22:24:48  26Mar2024            

=------------------------------------------------------------------------------=
   JOB DONE.
=------------------------------------------------------------------------------=
