
     Program PWSCF v.6.3MaX starts on 26Mar2024 at 22:38: 3 

     This program is part of the open-source Quantum ESPRESSO suite
     for quantum simulation of materials; please cite
         "P. Giannozzi et al., J. Phys.:Condens. Matter 21 395502 (2009);
         "P. Giannozzi et al., J. Phys.:Condens. Matter 29 465901 (2017);
          URL http://www.quantum-espresso.org", 
     in publications or presentations arising from this work. More details at
     http://www.quantum-espresso.org/quote

     Parallel version (MPI), running on     5 processors

     MPI processes distributed on     1 nodes
     R & G space division:  proc/nbgrp/npool/nimage =       5
     Waiting for input...
     Reading input from standard input

     Current dimensions of program PWSCF are:
     Max number of different atomic species (ntypx) = 10
     Max number of k-points (npk) =  40000
     Max angular momentum in pseudopotentials (lmaxx) =  3

     Subspace diagonalization in iterative solution of the eigenvalue problem:
     a serial algorithm will be used


     Parallelization info
     --------------------
     sticks:   dense  smooth     PW     G-vecs:    dense   smooth      PW
     Min          53      53     18                  595      595     121
     Max          56      56     19                  595      595     123
     Sum         271     271     91                 2975     2975     609



     bravais-lattice index     =            2
     lattice parameter (alat)  =       6.6500  a.u.
     unit-cell volume          =      73.5199 (a.u.)^3
     number of atoms/cell      =            1
     number of atomic types    =            1
     number of electrons       =        18.00
     number of Kohn-Sham states=           13
     kinetic-energy cutoff     =      45.0000  Ry
     charge density cutoff     =     180.0000  Ry
     convergence threshold     =      1.0E-08
     mixing beta               =       0.7000
     number of iterations used =            8  plain     mixing
     Exchange-correlation      = PBE ( 1  4  3  4 0 0)

     celldm(1)=   6.650000  celldm(2)=   0.000000  celldm(3)=   0.000000
     celldm(4)=   0.000000  celldm(5)=   0.000000  celldm(6)=   0.000000

     crystal axes: (cart. coord. in units of alat)
               a(1) = (  -0.500000   0.000000   0.500000 )  
               a(2) = (   0.000000   0.500000   0.500000 )  
               a(3) = (  -0.500000   0.500000   0.000000 )  

     reciprocal axes: (cart. coord. in units 2 pi/alat)
               b(1) = ( -1.000000 -1.000000  1.000000 )  
               b(2) = (  1.000000  1.000000  1.000000 )  
               b(3) = ( -1.000000  1.000000 -1.000000 )  


     PseudoPot. # 1 for Ni read from file:
     /home/lorenzo/pseudos/Ni/Ni.pbe-spn-rrkjus_psl.1.0.0.UPF
     MD5 check sum: 8b3fc9aac6dafe35f580d41bb18c3945
     Pseudo is Ultrasoft + core correction, Zval = 18.0
     Generated using "atomic" code by A. Dal Corso v.6.3
     Using radial grid of 1195 points,  6 beta functions with: 
                l(1) =   0
                l(2) =   0
                l(3) =   1
                l(4) =   1
                l(5) =   2
                l(6) =   2
     Q(r) pseudized with 0 coefficients 


     atomic species   valence    mass     pseudopotential
        Ni            18.00    58.69340     Ni( 1.00)

     48 Sym. Ops., with inversion, found



   Cartesian axes

     site n.     atom                  positions (alat units)
         1           Ni  tau(   1) = (   0.0000000   0.0000000   0.0000000  )

     number of k points=    35  gaussian smearing, width (Ry)=  0.0100
                       cart. coord. in units 2pi/alat
        k(    1) = (   0.0000000   0.0000000   0.0000000), wk =   0.0027435
        k(    2) = (  -0.1111111   0.1111111  -0.1111111), wk =   0.0219479
        k(    3) = (  -0.2222222   0.2222222  -0.2222222), wk =   0.0219479
        k(    4) = (  -0.3333333   0.3333333  -0.3333333), wk =   0.0219479
        k(    5) = (  -0.4444444   0.4444444  -0.4444444), wk =   0.0219479
        k(    6) = (   0.0000000   0.2222222   0.0000000), wk =   0.0164609
        k(    7) = (  -0.1111111   0.3333333  -0.1111111), wk =   0.0658436
        k(    8) = (  -0.2222222   0.4444444  -0.2222222), wk =   0.0658436
        k(    9) = (  -0.3333333   0.5555556  -0.3333333), wk =   0.0658436
        k(   10) = (   0.5555556  -0.3333333   0.5555556), wk =   0.0658436
        k(   11) = (   0.4444444  -0.2222222   0.4444444), wk =   0.0658436
        k(   12) = (   0.3333333  -0.1111111   0.3333333), wk =   0.0658436
        k(   13) = (   0.2222222  -0.0000000   0.2222222), wk =   0.0329218
        k(   14) = (   0.0000000   0.4444444   0.0000000), wk =   0.0164609
        k(   15) = (  -0.1111111   0.5555556  -0.1111111), wk =   0.0658436
        k(   16) = (  -0.2222222   0.6666667  -0.2222222), wk =   0.0658436
        k(   17) = (   0.6666667  -0.2222222   0.6666667), wk =   0.0658436
        k(   18) = (   0.5555556  -0.1111111   0.5555556), wk =   0.0658436
        k(   19) = (   0.4444444   0.0000000   0.4444444), wk =   0.0329218
        k(   20) = (   0.0000000   0.6666667   0.0000000), wk =   0.0164609
        k(   21) = (  -0.1111111   0.7777778  -0.1111111), wk =   0.0658436
        k(   22) = (   0.7777778  -0.1111111   0.7777778), wk =   0.0658436
        k(   23) = (   0.6666667  -0.0000000   0.6666667), wk =   0.0329218
        k(   24) = (   0.0000000   0.8888889   0.0000000), wk =   0.0164609
        k(   25) = (   0.8888889   0.0000000   0.8888889), wk =   0.0329218
        k(   26) = (  -0.2222222   0.4444444   0.0000000), wk =   0.0658436
        k(   27) = (  -0.3333333   0.5555556  -0.1111111), wk =   0.1316872
        k(   28) = (   0.5555556  -0.3333333   0.7777778), wk =   0.1316872
        k(   29) = (  -0.2222222   0.6666667   0.0000000), wk =   0.0658436
        k(   30) = (   0.6666667  -0.2222222   0.8888889), wk =   0.1316872
        k(   31) = (   0.5555556  -0.1111111   0.7777778), wk =   0.1316872
        k(   32) = (   0.4444444   0.0000000   0.6666667), wk =   0.0658436
        k(   33) = (   0.7777778  -0.1111111   1.0000000), wk =   0.0658436
        k(   34) = (   0.6666667  -0.0000000   0.8888889), wk =   0.0658436
        k(   35) = (   0.5555556  -0.1111111   1.0000000), wk =   0.0658436

     Dense  grid:     2975 G-vectors     FFT dimensions: (  24,  24,  24)

     Estimated max dynamical RAM per process >       3.97 MB

     Estimated total dynamical RAM >      19.83 MB

     Check: negative/imaginary core charge=   -0.000034    0.000000

     Initial potential from superposition of free atoms

     starting charge   17.99975, renormalised to   18.00000
     Starting wfcs are   10 randomized atomic wfcs +    3 random wfcs

     total cpu time spent up to now is        0.9 secs

     Self-consistent Calculation

     iteration #  1     ecut=    45.00 Ry     beta= 0.70
     Davidson diagonalization with overlap
     ethr =  1.00E-02,  avg # of iterations =  4.0

     Threshold (ethr) on eigenvalues was too large:
     Diagonalizing with lowered threshold

     Davidson diagonalization with overlap
     ethr =  3.32E-05,  avg # of iterations =  2.1

     total cpu time spent up to now is        1.5 secs

     total energy              =    -339.43856574 Ry
     Harris-Foulkes estimate   =    -339.44029179 Ry
     estimated scf accuracy    <       0.00607633 Ry

     iteration #  2     ecut=    45.00 Ry     beta= 0.70
     Davidson diagonalization with overlap
     ethr =  3.38E-05,  avg # of iterations =  1.0

     total cpu time spent up to now is        1.8 secs

     total energy              =    -339.43899996 Ry
     Harris-Foulkes estimate   =    -339.43894298 Ry
     estimated scf accuracy    <       0.00026649 Ry

     iteration #  3     ecut=    45.00 Ry     beta= 0.70
     Davidson diagonalization with overlap
     ethr =  1.48E-06,  avg # of iterations =  2.3

     total cpu time spent up to now is        2.1 secs

     total energy              =    -339.43900340 Ry
     Harris-Foulkes estimate   =    -339.43905759 Ry
     estimated scf accuracy    <       0.00014200 Ry

     iteration #  4     ecut=    45.00 Ry     beta= 0.70
     Davidson diagonalization with overlap
     ethr =  7.89E-07,  avg # of iterations =  2.0

     total cpu time spent up to now is        2.3 secs

     total energy              =    -339.43903633 Ry
     Harris-Foulkes estimate   =    -339.43903844 Ry
     estimated scf accuracy    <       0.00001686 Ry

     iteration #  5     ecut=    45.00 Ry     beta= 0.70
     Davidson diagonalization with overlap
     ethr =  9.37E-08,  avg # of iterations =  1.6

     total cpu time spent up to now is        2.6 secs

     total energy              =    -339.43903867 Ry
     Harris-Foulkes estimate   =    -339.43903869 Ry
     estimated scf accuracy    <       0.00000005 Ry

     iteration #  6     ecut=    45.00 Ry     beta= 0.70
     Davidson diagonalization with overlap
     ethr =  2.55E-10,  avg # of iterations =  3.1

     total cpu time spent up to now is        2.9 secs

     End of self-consistent calculation

          k = 0.0000 0.0000 0.0000 (   339 PWs)   bands (ev):

   -85.3806 -45.3086 -45.3086 -45.3086   8.9643  15.9861  15.9861  15.9861
    17.1190  17.1190  41.4794  45.4254  45.4254

          k =-0.1111 0.1111-0.1111 (   362 PWs)   bands (ev):

   -85.3771 -45.4686 -45.3933 -45.3933   9.4172  15.8347  16.0520  16.0520
    16.9870  16.9870  39.2559  42.6871  44.4651

          k =-0.2222 0.2222-0.2222 (   362 PWs)   bands (ev):

   -85.3670 -45.5263 -45.4063 -45.4063  10.7494  15.6027  16.1737  16.1737
    17.0389  17.0389  33.7443  41.8534  43.3845

          k =-0.3333 0.3333-0.3333 (   359 PWs)   bands (ev):

   -85.3554 -45.5799 -45.3982 -45.3982  12.4632  15.7884  16.0688  16.0688
    17.4069  17.4069  28.5455  40.8181  42.7670

          k =-0.4444 0.4444-0.4444 (   374 PWs)   bands (ev):

   -85.3482 -45.7331 -45.4397 -45.4397  13.3178  15.9231  15.9231  17.0998
    17.6810  17.6810  24.5572  40.0926  42.5554

          k = 0.0000 0.2222 0.0000 (   359 PWs)   bands (ev):

   -85.3757 -45.4846 -45.3695 -45.3695   9.5778  15.7516  16.1027  16.1027
    16.8363  17.1628  40.3680  42.0089  42.0089

          k =-0.1111 0.3333-0.1111 (   364 PWs)   bands (ev):

   -85.3678 -45.5069 -45.4525 -45.3929  10.6164  15.4748  16.2247  16.3062
    16.7661  17.2188  35.9015  40.2977  40.5998

          k =-0.2222 0.4444-0.2222 (   375 PWs)   bands (ev):

   -85.3569 -45.6175 -45.4842 -45.4568  12.2400  15.3117  15.9806  16.2677
    17.3296  17.4793  30.4605  39.4013  39.5550

          k =-0.3333 0.5556-0.3333 (   373 PWs)   bands (ev):

   -85.3480 -45.6745 -45.4854 -45.4461  13.4360  15.6411  16.0056  16.1279
    17.7393  18.4329  25.8580  38.3042  39.4400

          k = 0.5556-0.3333 0.5556 (   370 PWs)   bands (ev):

   -85.3454 -45.6979 -45.4579 -45.4294  13.6433  15.6738  16.0614  16.3968
    17.6936  19.3315  24.0314  37.1919  40.5484

          k = 0.4444-0.2222 0.4444 (   372 PWs)   bands (ev):

   -85.3505 -45.6483 -45.4811 -45.4381  13.1850  15.6955  15.8624  16.1280
    17.3038  18.2828  27.2620  36.7068  41.8290

          k = 0.3333-0.1111 0.3333 (   372 PWs)   bands (ev):

   -85.3607 -45.5979 -45.4642 -45.4371  11.6837  15.3884  16.0903  16.2873
    16.8168  17.5548  32.2266  36.9933  43.6970

          k = 0.2222-0.0000 0.2222 (   367 PWs)   bands (ev):

   -85.3712 -45.4960 -45.4452 -45.4256  10.1750  15.6095  16.1766  16.1783
    16.7699  17.1649  37.3971  38.4155  44.6926

          k = 0.0000 0.4444 0.0000 (   367 PWs)   bands (ev):

   -85.3624 -45.5194 -45.4474 -45.4474  11.2984  15.1626  16.4035  16.6307
    16.6307  17.3083  38.0038  38.0038  38.8996

          k =-0.1111 0.5556-0.1111 (   370 PWs)   bands (ev):

   -85.3535 -45.5792 -45.4734 -45.4549  12.5721  14.8819  16.1017  16.7791
    17.3794  17.5447  33.0111  36.6445  36.8159

          k =-0.2222 0.6667-0.2222 (   379 PWs)   bands (ev):

   -85.3453 -45.6545 -45.5290 -45.5010  13.7441  14.8503  15.8435  16.6453
    17.7677  18.9836  28.0215  34.4751  36.3879

          k = 0.6667-0.2222 0.6667 (   376 PWs)   bands (ev):

   -85.3414 -45.6715 -45.5428 -45.4765  14.2178  14.9872  15.8229  16.5220
    17.7095  21.3214  24.3635  32.6990  37.3405

          k = 0.5556-0.1111 0.5556 (   381 PWs)   bands (ev):

   -85.3440 -45.6827 -45.5549 -45.4913  14.1495  15.2529  15.5054  16.4682
    17.2874  20.0782  26.5774  31.7372  39.4048

          k = 0.4444 0.0000 0.4444 (   367 PWs)   bands (ev):

   -85.3513 -45.5535 -45.5019 -45.4421  13.1482  15.2260  15.7521  16.5402
    16.8089  18.5430  30.9348  32.0952  42.3181

          k = 0.0000 0.6667 0.0000 (   379 PWs)   bands (ev):

   -85.3473 -45.6647 -45.4939 -45.4939  13.1188  14.5490  16.8897  17.2916
    17.2916  17.5492  33.5030  34.7807  34.7807

          k =-0.1111 0.7778-0.1111 (   379 PWs)   bands (ev):

   -85.3411 -45.6923 -45.5228 -45.4924  13.6319  14.3978  16.7463  17.3330
    17.7884  19.1121  30.6030  31.2412  34.0906

          k = 0.7778-0.1111 0.7778 (   379 PWs)   bands (ev):

   -85.3378 -45.6527 -45.5904 -45.5068  14.1161  14.4823  16.2420  17.1517
    17.7530  22.1074  26.4929  29.1014  34.7437

          k = 0.6667-0.0000 0.6667 (   383 PWs)   bands (ev):

   -85.3390 -45.6535 -45.6346 -45.5077  14.5845  14.6918  15.6431  16.8670
    17.4700  22.7653  25.4220  28.6013  36.6235

          k = 0.0000 0.8889 0.0000 (   379 PWs)   bands (ev):

   -85.3375 -45.6649 -45.5348 -45.5348  13.5058  14.1640  17.6874  17.8393
    17.8393  19.5218  28.3597  32.9129  32.9129

          k = 0.8889 0.0000 0.8889 (   371 PWs)   bands (ev):

   -85.3360 -45.6720 -45.5035 -45.4841  13.6799  14.2340  17.2782  17.6142
    17.8741  21.2422  27.3756  30.1901  33.1516

          k =-0.2222 0.4444 0.0000 (   372 PWs)   bands (ev):

   -85.3594 -45.5687 -45.4727 -45.4599  11.8205  15.1887  16.0338  16.6248
    16.7616  17.5933  34.3085  35.0610  40.7518

          k =-0.3333 0.5556-0.1111 (   378 PWs)   bands (ev):

   -85.3498 -45.6392 -45.5195 -45.4805  13.3200  15.1061  15.6842  16.5503
    17.2444  18.4825  29.3704  34.2220  38.1653

          k = 0.5556-0.3333 0.7778 (   376 PWs)   bands (ev):

   -85.3434 -45.6781 -45.5236 -45.4761  14.0451  15.2189  15.7596  16.4024
    17.6292  20.2375  25.0905  34.4944  36.2010

          k =-0.2222 0.6667 0.0000 (   375 PWs)   bands (ev):

   -85.3459 -45.6327 -45.4982 -45.4867  13.5348  14.6989  15.9635  17.2565
    17.2998  18.5872  31.8099  32.4661  34.3217

          k = 0.6667-0.2222 0.8889 (   374 PWs)   bands (ev):

   -85.3400 -45.6382 -45.5430 -45.4835  14.2242  14.7186  15.7311  17.0101
    17.6926  20.8385  27.3947  31.6161  32.6902

          k = 0.5556-0.1111 0.7778 (   378 PWs)   bands (ev):

   -85.3389 -45.6504 -45.5759 -45.5113  14.6723  14.7047  15.5077  16.8018
    17.6424  22.8721  24.8073  30.2330  33.6529

          k = 0.4444 0.0000 0.6667 (   377 PWs)   bands (ev):

   -85.3425 -45.6454 -45.5590 -45.4786  14.3634  15.0913  15.2137  16.8094
    17.3285  20.2895  28.3019  30.0777  35.5987

          k = 0.7778-0.1111 1.0000 (   369 PWs)   bands (ev):

   -85.3370 -45.6425 -45.5008 -45.4808  13.8522  14.3881  16.6534  17.4921
    17.8469  21.1235  28.6009  30.2956  31.3280

          k = 0.6667-0.0000 0.8889 (   380 PWs)   bands (ev):

   -85.3365 -45.6487 -45.6014 -45.5321  14.1938  14.5804  16.0230  17.1353
    17.8352  23.5863  26.4176  28.0183  31.8447

          k = 0.5556-0.1111 1.0000 (   385 PWs)   bands (ev):

   -85.3370 -45.6470 -45.6133 -45.5724  14.4069  14.9608  15.3538  16.9518
    17.8259  23.6100  26.7273  28.7997  30.0758

     the Fermi energy is    17.7478 ev

!    total energy              =    -339.43903873 Ry
     Harris-Foulkes estimate   =    -339.43903874 Ry
     estimated scf accuracy    <          8.1E-09 Ry

     The total energy is the sum of the following terms:

     one-electron contribution =    -186.40140566 Ry
     hartree contribution      =     104.67474786 Ry
     xc contribution           =     -34.32713423 Ry
     ewald contribution        =    -223.38275378 Ry
     smearing contrib. (-TS)   =      -0.00249292 Ry

     convergence has been achieved in   6 iterations

     Forces acting on atoms (cartesian axes, Ry/au):

     atom    1 type  1   force =     0.00000000    0.00000000    0.00000000

     Total force =     0.000000     Total SCF correction =     0.000000


     Computing stress (Cartesian axis) and pressure

          total   stress  (Ry/bohr**3)                   (kbar)     P=-2405.77
  -0.01635409   0.00000000   0.00000000      -2405.77      0.00      0.00
   0.00000000  -0.01635409  -0.00000000          0.00  -2405.77     -0.00
   0.00000000  -0.00000000  -0.01635409          0.00     -0.00  -2405.77


     Writing output data file Ni.save/

     init_run     :      0.19s CPU      0.19s WALL (       1 calls)
     electrons    :      1.85s CPU      1.97s WALL (       1 calls)
     forces       :      0.02s CPU      0.02s WALL (       1 calls)
     stress       :      0.07s CPU      0.07s WALL (       1 calls)

     Called by init_run:
     wfcinit      :      0.07s CPU      0.07s WALL (       1 calls)
     potinit      :      0.00s CPU      0.00s WALL (       1 calls)
     hinit0       :      0.11s CPU      0.11s WALL (       1 calls)

     Called by electrons:
     c_bands      :      1.53s CPU      1.63s WALL (       7 calls)
     sum_band     :      0.28s CPU      0.30s WALL (       7 calls)
     v_of_rho     :      0.02s CPU      0.02s WALL (       7 calls)
     newd         :      0.02s CPU      0.02s WALL (       7 calls)
     mix_rho      :      0.00s CPU      0.00s WALL (       7 calls)

     Called by c_bands:
     init_us_2    :      0.03s CPU      0.03s WALL (     595 calls)
     cegterg      :      1.49s CPU      1.58s WALL (     245 calls)

     Called by sum_band:
     sum_band:bec :      0.00s CPU      0.00s WALL (     245 calls)
     addusdens    :      0.02s CPU      0.02s WALL (       7 calls)

     Called by *egterg:
     h_psi        :      1.08s CPU      1.15s WALL (     841 calls)
     s_psi        :      0.03s CPU      0.03s WALL (     841 calls)
     g_psi        :      0.00s CPU      0.00s WALL (     561 calls)
     cdiaghg      :      0.25s CPU      0.26s WALL (     771 calls)

     Called by h_psi:
     h_psi:pot    :      1.07s CPU      1.14s WALL (     841 calls)
     h_psi:calbec :      0.04s CPU      0.05s WALL (     841 calls)
     vloc_psi     :      0.99s CPU      1.06s WALL (     841 calls)
     add_vuspsi   :      0.03s CPU      0.03s WALL (     841 calls)

     General routines
     calbec       :      0.07s CPU      0.08s WALL (    1261 calls)
     fft          :      0.01s CPU      0.01s WALL (     104 calls)
     ffts         :      0.00s CPU      0.00s WALL (       7 calls)
     fftw         :      1.11s CPU      1.19s WALL (   18909 calls)

     Parallel routines
     fft_scatt_xy :      0.10s CPU      0.11s WALL (   19020 calls)
     fft_scatt_yz :      0.30s CPU      0.32s WALL (   19020 calls)

     PWSCF        :     2.87s CPU         3.06s WALL


   This run was terminated on:  22:38: 6  26Mar2024            

=------------------------------------------------------------------------------=
   JOB DONE.
=------------------------------------------------------------------------------=
