
     Program PWSCF v.6.3MaX starts on 26Mar2024 at 22:46:25 

     This program is part of the open-source Quantum ESPRESSO suite
     for quantum simulation of materials; please cite
         "P. Giannozzi et al., J. Phys.:Condens. Matter 21 395502 (2009);
         "P. Giannozzi et al., J. Phys.:Condens. Matter 29 465901 (2017);
          URL http://www.quantum-espresso.org", 
     in publications or presentations arising from this work. More details at
     http://www.quantum-espresso.org/quote

     Parallel version (MPI), running on     5 processors

     MPI processes distributed on     1 nodes
     R & G space division:  proc/nbgrp/npool/nimage =       5
     Waiting for input...
     Reading input from standard input

     Current dimensions of program PWSCF are:
     Max number of different atomic species (ntypx) = 10
     Max number of k-points (npk) =  40000
     Max angular momentum in pseudopotentials (lmaxx) =  3
               file Ni.pbesol-spn-kjpaw_psl.1.0.0.UPF: wavefunction(s)  3P 3D renormalized

     Subspace diagonalization in iterative solution of the eigenvalue problem:
     a serial algorithm will be used


     Parallelization info
     --------------------
     sticks:   dense  smooth     PW     G-vecs:    dense   smooth      PW
     Min          79      79     24                 1032     1032     178
     Max          80      80     25                 1033     1033     181
     Sum         397     397    121                 5161     5161     893



     bravais-lattice index     =            2
     lattice parameter (alat)  =       6.6500  a.u.
     unit-cell volume          =      73.5199 (a.u.)^3
     number of atoms/cell      =            1
     number of atomic types    =            1
     number of electrons       =        18.00
     number of Kohn-Sham states=           13
     kinetic-energy cutoff     =      65.0000  Ry
     charge density cutoff     =     260.0000  Ry
     convergence threshold     =      1.0E-08
     mixing beta               =       0.7000
     number of iterations used =            8  plain     mixing
     Exchange-correlation      = SLA PW PSX PSC ( 1  4 10  8 0 0)

     celldm(1)=   6.650000  celldm(2)=   0.000000  celldm(3)=   0.000000
     celldm(4)=   0.000000  celldm(5)=   0.000000  celldm(6)=   0.000000

     crystal axes: (cart. coord. in units of alat)
               a(1) = (  -0.500000   0.000000   0.500000 )  
               a(2) = (   0.000000   0.500000   0.500000 )  
               a(3) = (  -0.500000   0.500000   0.000000 )  

     reciprocal axes: (cart. coord. in units 2 pi/alat)
               b(1) = ( -1.000000 -1.000000  1.000000 )  
               b(2) = (  1.000000  1.000000  1.000000 )  
               b(3) = ( -1.000000  1.000000 -1.000000 )  


     PseudoPot. # 1 for Ni read from file:
     /home/lorenzo/pseudos/Ni/Ni.pbesol-spn-kjpaw_psl.1.0.0.UPF
     MD5 check sum: ef06ee83099c2673f0516457bd731f51
     Pseudo is Projector augmented-wave + core cor, Zval = 18.0
     Generated using "atomic" code by A. Dal Corso v.6.3
     Shape of augmentation charge: PSQ
     Using radial grid of 1195 points,  6 beta functions with: 
                l(1) =   0
                l(2) =   0
                l(3) =   1
                l(4) =   1
                l(5) =   2
                l(6) =   2
     Q(r) pseudized with 0 coefficients 


     atomic species   valence    mass     pseudopotential
        Ni            18.00    58.69340     Ni( 1.00)

     48 Sym. Ops., with inversion, found



   Cartesian axes

     site n.     atom                  positions (alat units)
         1           Ni  tau(   1) = (   0.0000000   0.0000000   0.0000000  )

     number of k points=     3  gaussian smearing, width (Ry)=  0.0100
                       cart. coord. in units 2pi/alat
        k(    1) = (   0.0000000   0.0000000   0.0000000), wk =   0.2500000
        k(    2) = (   0.5000000  -0.5000000   0.5000000), wk =   1.0000000
        k(    3) = (   0.0000000  -1.0000000   0.0000000), wk =   0.7500000

     Dense  grid:     5161 G-vectors     FFT dimensions: (  25,  25,  25)

     Estimated max dynamical RAM per process >       5.32 MB

     Estimated total dynamical RAM >      26.59 MB

     Check: negative/imaginary core charge=   -0.000011    0.000000

     Initial potential from superposition of free atoms

     starting charge   17.99977, renormalised to   18.00000
     Starting wfcs are   10 randomized atomic wfcs +    3 random wfcs
     Checking if some PAW data can be deallocated... 

     total cpu time spent up to now is        1.0 secs

     Self-consistent Calculation

     iteration #  1     ecut=    65.00 Ry     beta= 0.70
     Davidson diagonalization with overlap
     ethr =  1.00E-02,  avg # of iterations =  5.7

     Threshold (ethr) on eigenvalues was too large:
     Diagonalizing with lowered threshold

     Davidson diagonalization with overlap
     ethr =  6.16E-05,  avg # of iterations =  2.3

     total cpu time spent up to now is        1.2 secs

     total energy              =    -426.37184958 Ry
     Harris-Foulkes estimate   =    -426.37583887 Ry
     estimated scf accuracy    <       0.01102157 Ry

     iteration #  2     ecut=    65.00 Ry     beta= 0.70
     Davidson diagonalization with overlap
     ethr =  6.12E-05,  avg # of iterations =  2.0

     total cpu time spent up to now is        1.4 secs

     total energy              =    -426.34195338 Ry
     Harris-Foulkes estimate   =    -426.39056941 Ry
     estimated scf accuracy    <       0.48356835 Ry

     iteration #  3     ecut=    65.00 Ry     beta= 0.70
     Davidson diagonalization with overlap
     ethr =  6.12E-05,  avg # of iterations =  2.3

     total cpu time spent up to now is        1.5 secs

     total energy              =    -426.37440872 Ry
     Harris-Foulkes estimate   =    -426.37497463 Ry
     estimated scf accuracy    <       0.00639633 Ry

     iteration #  4     ecut=    65.00 Ry     beta= 0.70
     Davidson diagonalization with overlap
     ethr =  3.55E-05,  avg # of iterations =  1.0

     total cpu time spent up to now is        1.7 secs

     total energy              =    -426.37414514 Ry
     Harris-Foulkes estimate   =    -426.37445954 Ry
     estimated scf accuracy    <       0.00428000 Ry

     iteration #  5     ecut=    65.00 Ry     beta= 0.70
     Davidson diagonalization with overlap
     ethr =  2.38E-05,  avg # of iterations =  1.0

     total cpu time spent up to now is        1.8 secs

     total energy              =    -426.37357026 Ry
     Harris-Foulkes estimate   =    -426.37416846 Ry
     estimated scf accuracy    <       0.00294790 Ry

     iteration #  6     ecut=    65.00 Ry     beta= 0.70
     Davidson diagonalization with overlap
     ethr =  1.64E-05,  avg # of iterations =  1.0

     total cpu time spent up to now is        2.0 secs

     total energy              =    -426.37375497 Ry
     Harris-Foulkes estimate   =    -426.37374615 Ry
     estimated scf accuracy    <       0.00005209 Ry

     iteration #  7     ecut=    65.00 Ry     beta= 0.70
     Davidson diagonalization with overlap
     ethr =  2.89E-07,  avg # of iterations =  2.0

     total cpu time spent up to now is        2.1 secs

     total energy              =    -426.37373618 Ry
     Harris-Foulkes estimate   =    -426.37376361 Ry
     estimated scf accuracy    <       0.00021232 Ry

     iteration #  8     ecut=    65.00 Ry     beta= 0.70
     Davidson diagonalization with overlap
     ethr =  2.89E-07,  avg # of iterations =  1.0

     total cpu time spent up to now is        2.3 secs

     total energy              =    -426.37374783 Ry
     Harris-Foulkes estimate   =    -426.37374815 Ry
     estimated scf accuracy    <       0.00000092 Ry

     iteration #  9     ecut=    65.00 Ry     beta= 0.70
     Davidson diagonalization with overlap
     ethr =  5.13E-09,  avg # of iterations =  2.3

     total cpu time spent up to now is        2.4 secs

     total energy              =    -426.37374844 Ry
     Harris-Foulkes estimate   =    -426.37374867 Ry
     estimated scf accuracy    <       0.00000476 Ry

     iteration # 10     ecut=    65.00 Ry     beta= 0.70
     Davidson diagonalization with overlap
     ethr =  5.13E-09,  avg # of iterations =  1.0

     total cpu time spent up to now is        2.5 secs

     total energy              =    -426.37374838 Ry
     Harris-Foulkes estimate   =    -426.37374849 Ry
     estimated scf accuracy    <       0.00000184 Ry

     iteration # 11     ecut=    65.00 Ry     beta= 0.70
     Davidson diagonalization with overlap
     ethr =  5.13E-09,  avg # of iterations =  1.0

     total cpu time spent up to now is        2.7 secs

     total energy              =    -426.37374834 Ry
     Harris-Foulkes estimate   =    -426.37374840 Ry
     estimated scf accuracy    <       0.00000046 Ry

     iteration # 12     ecut=    65.00 Ry     beta= 0.70
     Davidson diagonalization with overlap
     ethr =  2.58E-09,  avg # of iterations =  1.0

     total cpu time spent up to now is        2.8 secs

     End of self-consistent calculation

          k = 0.0000 0.0000 0.0000 (   645 PWs)   bands (ev):

   -85.4241 -45.8160 -45.8160 -45.8160   8.5900  15.4923  15.4923  15.4923
    16.6705  16.6705  41.2061  45.2295  45.2295

          k = 0.5000-0.5000 0.5000 (   652 PWs)   bands (ev):

   -85.3901 -46.0377 -45.8481 -45.8481  12.9395  15.4932  15.4932  17.3335
    17.3658  17.3658  23.4511  39.8169  42.2694

          k = 0.0000-1.0000 0.0000 (   636 PWs)   bands (ev):

   -85.3784 -46.0259 -45.8991 -45.8991  13.1704  13.6614  17.3989  17.5153
    17.5153  20.0273  26.9926  32.4320  32.4320

     the Fermi energy is    17.4926 ev

!    total energy              =    -426.37374837 Ry
     Harris-Foulkes estimate   =    -426.37374837 Ry
     estimated scf accuracy    <          3.5E-09 Ry

     total all-electron energy =     -3038.832093 Ry

     The total energy is the sum of the following terms:

     one-electron contribution =    -184.49399648 Ry
     hartree contribution      =     104.27663480 Ry
     xc contribution           =     -33.90323033 Ry
     ewald contribution        =    -223.38275369 Ry
     one-center paw contrib.   =     -88.86188543 Ry
     smearing contrib. (-TS)   =      -0.00851724 Ry

     convergence has been achieved in  12 iterations

     Forces acting on atoms (cartesian axes, Ry/au):

     atom    1 type  1   force =     0.00000000    0.00000000    0.00000000

     Total force =     0.000000     Total SCF correction =     0.000000


     Computing stress (Cartesian axis) and pressure

          total   stress  (Ry/bohr**3)                   (kbar)     P=  215.78
   0.00146683   0.00000000   0.00000000        215.78      0.00      0.00
   0.00000000   0.00146683   0.00000000          0.00    215.78      0.00
   0.00000000   0.00000000   0.00146683          0.00      0.00    215.78


     Writing output data file Ni.save/

     init_run     :      0.28s CPU      0.30s WALL (       1 calls)
     electrons    :      1.62s CPU      1.79s WALL (       1 calls)
     forces       :      0.02s CPU      0.02s WALL (       1 calls)
     stress       :      0.05s CPU      0.05s WALL (       1 calls)

     Called by init_run:
     wfcinit      :      0.01s CPU      0.01s WALL (       1 calls)
     potinit      :      0.11s CPU      0.12s WALL (       1 calls)
     hinit0       :      0.14s CPU      0.14s WALL (       1 calls)

     Called by electrons:
     c_bands      :      0.31s CPU      0.32s WALL (      13 calls)
     sum_band     :      0.14s CPU      0.15s WALL (      13 calls)
     v_of_rho     :      0.04s CPU      0.04s WALL (      13 calls)
     newd         :      0.07s CPU      0.08s WALL (      13 calls)
     PAW_pot      :      1.15s CPU      1.30s WALL (      13 calls)
     mix_rho      :      0.01s CPU      0.01s WALL (      13 calls)

     Called by c_bands:
     init_us_2    :      0.01s CPU      0.01s WALL (      87 calls)
     cegterg      :      0.29s CPU      0.31s WALL (      39 calls)

     Called by sum_band:
     sum_band:bec :      0.00s CPU      0.00s WALL (      39 calls)
     addusdens    :      0.06s CPU      0.06s WALL (      13 calls)

     Called by *egterg:
     h_psi        :      0.22s CPU      0.24s WALL (     113 calls)
     s_psi        :      0.01s CPU      0.01s WALL (     113 calls)
     g_psi        :      0.00s CPU      0.00s WALL (      71 calls)
     cdiaghg      :      0.04s CPU      0.04s WALL (     107 calls)

     Called by h_psi:
     h_psi:pot    :      0.22s CPU      0.24s WALL (     113 calls)
     h_psi:calbec :      0.01s CPU      0.01s WALL (     113 calls)
     vloc_psi     :      0.20s CPU      0.22s WALL (     113 calls)
     add_vuspsi   :      0.01s CPU      0.01s WALL (     113 calls)

     General routines
     calbec       :      0.02s CPU      0.02s WALL (     167 calls)
     fft          :      0.03s CPU      0.03s WALL (     170 calls)
     ffts         :      0.00s CPU      0.00s WALL (      13 calls)
     fftw         :      0.23s CPU      0.25s WALL (    2807 calls)

     Parallel routines
     fft_scatt_xy :      0.02s CPU      0.02s WALL (    2990 calls)
     fft_scatt_yz :      0.08s CPU      0.09s WALL (    2990 calls)

     PWSCF        :     2.69s CPU         2.93s WALL


   This run was terminated on:  22:46:28  26Mar2024            

=------------------------------------------------------------------------------=
   JOB DONE.
=------------------------------------------------------------------------------=
