
     Program PWSCF v.6.3MaX starts on 26Mar2024 at 22:20:27 

     This program is part of the open-source Quantum ESPRESSO suite
     for quantum simulation of materials; please cite
         "P. Giannozzi et al., J. Phys.:Condens. Matter 21 395502 (2009);
         "P. Giannozzi et al., J. Phys.:Condens. Matter 29 465901 (2017);
          URL http://www.quantum-espresso.org", 
     in publications or presentations arising from this work. More details at
     http://www.quantum-espresso.org/quote

     Parallel version (MPI), running on     5 processors

     MPI processes distributed on     1 nodes
     R & G space division:  proc/nbgrp/npool/nimage =       5
     Waiting for input...
     Reading input from standard input

     Current dimensions of program PWSCF are:
     Max number of different atomic species (ntypx) = 10
     Max number of k-points (npk) =  40000
     Max angular momentum in pseudopotentials (lmaxx) =  3

     Subspace diagonalization in iterative solution of the eigenvalue problem:
     a serial algorithm will be used


     Parallelization info
     --------------------
     sticks:   dense  smooth     PW     G-vecs:    dense   smooth      PW
     Min         119     119     39                 1967     1967     351
     Max         119     119     40                 1969     1969     352
     Sum         595     595    199                 9841     9841    1759



     bravais-lattice index     =            2
     lattice parameter (alat)  =       6.6500  a.u.
     unit-cell volume          =      73.5199 (a.u.)^3
     number of atoms/cell      =            1
     number of atomic types    =            1
     number of electrons       =        18.00
     number of Kohn-Sham states=           13
     kinetic-energy cutoff     =     100.0000  Ry
     charge density cutoff     =     400.0000  Ry
     convergence threshold     =      1.0E-08
     mixing beta               =       0.7000
     number of iterations used =            8  plain     mixing
     Exchange-correlation      = PBESOL ( 1  4 10  8 0 0)

     celldm(1)=   6.650000  celldm(2)=   0.000000  celldm(3)=   0.000000
     celldm(4)=   0.000000  celldm(5)=   0.000000  celldm(6)=   0.000000

     crystal axes: (cart. coord. in units of alat)
               a(1) = (  -0.500000   0.000000   0.500000 )  
               a(2) = (   0.000000   0.500000   0.500000 )  
               a(3) = (  -0.500000   0.500000   0.000000 )  

     reciprocal axes: (cart. coord. in units 2 pi/alat)
               b(1) = ( -1.000000 -1.000000  1.000000 )  
               b(2) = (  1.000000  1.000000  1.000000 )  
               b(3) = ( -1.000000  1.000000 -1.000000 )  


     PseudoPot. # 1 for Ni read from file:
     /home/lorenzo/pseudos/Ni/Ni.pbesol-spn-rrkjus_psl.1.0.0.UPF
     MD5 check sum: 6fc0a587bf949a08f2faed986b854013
     Pseudo is Ultrasoft + core correction, Zval = 18.0
     Generated using "atomic" code by A. Dal Corso v.6.3
     Using radial grid of 1195 points,  6 beta functions with: 
                l(1) =   0
                l(2) =   0
                l(3) =   1
                l(4) =   1
                l(5) =   2
                l(6) =   2
     Q(r) pseudized with 0 coefficients 


     atomic species   valence    mass     pseudopotential
        Ni            18.00    58.69340     Ni( 1.00)

     48 Sym. Ops., with inversion, found



   Cartesian axes

     site n.     atom                  positions (alat units)
         1           Ni  tau(   1) = (   0.0000000   0.0000000   0.0000000  )

     number of k points=    20  gaussian smearing, width (Ry)=  0.0100
                       cart. coord. in units 2pi/alat
        k(    1) = (   0.0000000   0.0000000   0.0000000), wk =   0.0058309
        k(    2) = (  -0.1428571   0.1428571  -0.1428571), wk =   0.0466472
        k(    3) = (  -0.2857143   0.2857143  -0.2857143), wk =   0.0466472
        k(    4) = (  -0.4285714   0.4285714  -0.4285714), wk =   0.0466472
        k(    5) = (   0.0000000   0.2857143   0.0000000), wk =   0.0349854
        k(    6) = (  -0.1428571   0.4285714  -0.1428571), wk =   0.1399417
        k(    7) = (  -0.2857143   0.5714286  -0.2857143), wk =   0.1399417
        k(    8) = (   0.5714286  -0.2857143   0.5714286), wk =   0.1399417
        k(    9) = (   0.4285714  -0.1428571   0.4285714), wk =   0.1399417
        k(   10) = (   0.2857143  -0.0000000   0.2857143), wk =   0.0699708
        k(   11) = (   0.0000000   0.5714286   0.0000000), wk =   0.0349854
        k(   12) = (  -0.1428571   0.7142857  -0.1428571), wk =   0.1399417
        k(   13) = (   0.7142857  -0.1428571   0.7142857), wk =   0.1399417
        k(   14) = (   0.5714286   0.0000000   0.5714286), wk =   0.0699708
        k(   15) = (   0.0000000   0.8571429   0.0000000), wk =   0.0349854
        k(   16) = (   0.8571429  -0.0000000   0.8571429), wk =   0.0699708
        k(   17) = (  -0.2857143   0.5714286   0.0000000), wk =   0.1399417
        k(   18) = (   0.5714286  -0.2857143   0.8571429), wk =   0.2798834
        k(   19) = (   0.7142857  -0.1428571   1.0000000), wk =   0.1399417
        k(   20) = (   0.5714286   0.0000000   0.8571429), wk =   0.1399417

     Dense  grid:     9841 G-vectors     FFT dimensions: (  30,  30,  30)

     Estimated max dynamical RAM per process >      10.03 MB

     Estimated total dynamical RAM >      50.14 MB

     Check: negative/imaginary core charge=   -0.000004    0.000000

     Initial potential from superposition of free atoms

     starting charge   17.99977, renormalised to   18.00000
     Starting wfcs are   10 randomized atomic wfcs +    3 random wfcs

     total cpu time spent up to now is        1.0 secs

     Self-consistent Calculation

     iteration #  1     ecut=   100.00 Ry     beta= 0.70
     Davidson diagonalization with overlap
     ethr =  1.00E-02,  avg # of iterations =  3.6

     Threshold (ethr) on eigenvalues was too large:
     Diagonalizing with lowered threshold

     Davidson diagonalization with overlap
     ethr =  1.28E-05,  avg # of iterations =  3.6

     total cpu time spent up to now is        1.7 secs

     total energy              =    -339.40166646 Ry
     Harris-Foulkes estimate   =    -339.40278191 Ry
     estimated scf accuracy    <       0.00225088 Ry

     iteration #  2     ecut=   100.00 Ry     beta= 0.70
     Davidson diagonalization with overlap
     ethr =  1.25E-05,  avg # of iterations =  2.1

     total cpu time spent up to now is        2.1 secs

     total energy              =    -339.40121978 Ry
     Harris-Foulkes estimate   =    -339.40292160 Ry
     estimated scf accuracy    <       0.00390953 Ry

     iteration #  3     ecut=   100.00 Ry     beta= 0.70
     Davidson diagonalization with overlap
     ethr =  1.25E-05,  avg # of iterations =  2.1

     total cpu time spent up to now is        2.6 secs

     total energy              =    -339.40210682 Ry
     Harris-Foulkes estimate   =    -339.40226714 Ry
     estimated scf accuracy    <       0.00047843 Ry

     iteration #  4     ecut=   100.00 Ry     beta= 0.70
     Davidson diagonalization with overlap
     ethr =  2.66E-06,  avg # of iterations =  1.6

     total cpu time spent up to now is        2.8 secs

     total energy              =    -339.40217742 Ry
     Harris-Foulkes estimate   =    -339.40217725 Ry
     estimated scf accuracy    <       0.00000027 Ry

     iteration #  5     ecut=   100.00 Ry     beta= 0.70
     Davidson diagonalization with overlap
     ethr =  1.48E-09,  avg # of iterations =  3.5

     total cpu time spent up to now is        3.3 secs

     total energy              =    -339.40217908 Ry
     Harris-Foulkes estimate   =    -339.40217916 Ry
     estimated scf accuracy    <       0.00000021 Ry

     iteration #  6     ecut=   100.00 Ry     beta= 0.70
     Davidson diagonalization with overlap
     ethr =  1.16E-09,  avg # of iterations =  1.0

     total cpu time spent up to now is        3.5 secs

     total energy              =    -339.40217908 Ry
     Harris-Foulkes estimate   =    -339.40217909 Ry
     estimated scf accuracy    <       0.00000003 Ry

     iteration #  7     ecut=   100.00 Ry     beta= 0.70
     Davidson diagonalization with overlap
     ethr =  1.69E-10,  avg # of iterations =  1.2

     total cpu time spent up to now is        3.8 secs

     End of self-consistent calculation

          k = 0.0000 0.0000 0.0000 (  1243 PWs)   bands (ev):

   -85.1402 -45.5541 -45.5541 -45.5541   8.6038  15.7272  15.7272  15.7272
    16.8539  16.8539  41.2790  45.2002  45.2002

          k =-0.1429 0.1429-0.1429 (  1257 PWs)   bands (ev):

   -85.1337 -45.5967 -45.5602 -45.5602   9.3890  15.5300  15.8772  15.8772
    16.8073  16.8073  37.5413  42.2013  43.9258

          k =-0.2857 0.2857-0.2857 (  1251 PWs)   bands (ev):

   -85.1192 -45.6914 -45.5739 -45.5739  11.4299  15.3559  15.9023  15.9023
    17.0603  17.0603  30.4347  41.0473  42.7888

          k =-0.4286 0.4286-0.4286 (  1239 PWs)   bands (ev):

   -85.1074 -45.7668 -45.5849 -45.5849  12.9710  15.7190  15.7190  16.6790
    17.5179  17.5179  24.7267  39.9473  42.3588

          k = 0.0000 0.2857 0.0000 (  1251 PWs)   bands (ev):

   -85.1316 -45.5952 -45.5699 -45.5699   9.6456  15.3511  16.0269  16.0269
    16.5209  16.9884  39.7422  40.6308  40.6308

          k =-0.1429 0.4286-0.1429 (  1239 PWs)   bands (ev):

   -85.1197 -45.6651 -45.5858 -45.5832  11.2781  15.0156  15.9212  16.2230
    16.8308  17.2143  33.2247  38.6726  39.3489

          k =-0.2857 0.5714-0.2857 (  1242 PWs)   bands (ev):

   -85.1071 -45.7406 -45.6029 -45.5960  13.1552  15.1647  15.6241  16.0841
    17.5786  18.2395  26.7435  37.3281  38.2597

          k = 0.5714-0.2857 0.5714 (  1228 PWs)   bands (ev):

   -85.1031 -45.7625 -45.6166 -45.5927  13.5370  15.3161  15.9467  15.9729
    17.4919  19.6786  23.8937  35.5308  39.6538

          k = 0.4286-0.1429 0.4286 (  1247 PWs)   bands (ev):

   -85.1110 -45.7168 -45.6121 -45.5785  12.6952  15.1863  15.6269  16.0927
    16.9005  18.0885  28.7743  34.9781  42.0842

          k = 0.2857-0.0000 0.2857 (  1249 PWs)   bands (ev):

   -85.1246 -45.6426 -45.5874 -45.5640  10.6162  15.2405  15.9305  16.1492
    16.5081  17.2022  35.3301  36.0995  45.2865

          k = 0.0000 0.5714 0.0000 (  1267 PWs)   bands (ev):

   -85.1122 -45.6855 -45.6055 -45.6055  12.1844  14.5527  16.2438  16.8220
    16.8220  17.2965  35.8355  35.8355  35.8816

          k =-0.1429 0.7143-0.1429 (  1247 PWs)   bands (ev):

   -85.1023 -45.7293 -45.6312 -45.6179  13.3763  14.3328  16.0772  16.8917
    17.6170  18.5943  30.0746  32.4877  34.7540

          k = 0.7143-0.1429 0.7143 (  1245 PWs)   bands (ev):

   -85.0974 -45.7349 -45.6702 -45.6138  14.1197  14.4708  15.6832  16.6941
    17.5407  22.2265  24.6378  29.9851  35.7802

          k = 0.5714 0.0000 0.5714 (  1226 PWs)   bands (ev):

   -85.1013 -45.7178 -45.6731 -45.5962  14.1488  14.9536  15.1256  16.4937
    17.0417  20.2566  27.4876  29.4068  38.6764

          k = 0.0000 0.8571 0.0000 (  1246 PWs)   bands (ev):

   -85.0967 -45.7558 -45.6339 -45.6339  13.2652  13.9541  17.5500  17.6365
    17.6365  18.9182  28.6892  32.8677  32.8677

          k = 0.8571-0.0000 0.8571 (  1244 PWs)   bands (ev):

   -85.0945 -45.7534 -45.6561 -45.6321  13.5445  14.0374  16.8260  17.3636
    17.6866  21.5529  27.1404  28.8833  33.2570

          k =-0.2857 0.5714 0.0000 (  1256 PWs)   bands (ev):

   -85.1088 -45.7052 -45.6264 -45.5933  12.9200  14.7351  15.5232  16.7658
    16.8317  18.1849  31.5763  32.3797  37.0819

          k = 0.5714-0.2857 0.8571 (  1234 PWs)   bands (ev):

   -85.1001 -45.7351 -45.6539 -45.6080  14.1053  14.7644  15.2911  16.5268
    17.4305  20.5985  25.8255  32.2141  34.1229

          k = 0.7143-0.1429 1.0000 (  1235 PWs)   bands (ev):

   -85.0962 -45.7382 -45.6575 -45.6321  13.8007  14.2942  15.9763  17.1610
    17.6340  21.1672  29.1637  29.2152  30.4916

          k = 0.5714 0.0000 0.8571 (  1233 PWs)   bands (ev):

   -85.0952 -45.7108 -45.6971 -45.6284  14.2508  14.6269  15.3311  16.7984
    17.6311  24.4158  24.8572  28.0684  31.3754

     the Fermi energy is    17.6217 ev

!    total energy              =    -339.40217908 Ry
     Harris-Foulkes estimate   =    -339.40217908 Ry
     estimated scf accuracy    <          8.8E-10 Ry

     The total energy is the sum of the following terms:

     one-electron contribution =    -186.66373974 Ry
     hartree contribution      =     104.57552160 Ry
     xc contribution           =     -33.92854586 Ry
     ewald contribution        =    -223.38275369 Ry
     smearing contrib. (-TS)   =      -0.00266140 Ry

     convergence has been achieved in   7 iterations

     Forces acting on atoms (cartesian axes, Ry/au):

     atom    1 type  1   force =     0.00000000    0.00000000    0.00000000

     Total force =     0.000000     Total SCF correction =     0.000000


     Computing stress (Cartesian axis) and pressure

          total   stress  (Ry/bohr**3)                   (kbar)     P= -105.47
  -0.00071698   0.00000000   0.00000000       -105.47      0.00      0.00
   0.00000000  -0.00071698  -0.00000000          0.00   -105.47     -0.00
   0.00000000   0.00000000  -0.00071698          0.00      0.00   -105.47


     Writing output data file Ni.save/

     init_run     :      0.28s CPU      0.29s WALL (       1 calls)
     electrons    :      2.69s CPU      2.79s WALL (       1 calls)
     forces       :      0.04s CPU      0.04s WALL (       1 calls)
     stress       :      0.14s CPU      0.14s WALL (       1 calls)

     Called by init_run:
     wfcinit      :      0.08s CPU      0.08s WALL (       1 calls)
     potinit      :      0.01s CPU      0.01s WALL (       1 calls)
     hinit0       :      0.17s CPU      0.18s WALL (       1 calls)

     Called by electrons:
     c_bands      :      2.11s CPU      2.20s WALL (       8 calls)
     sum_band     :      0.46s CPU      0.47s WALL (       8 calls)
     v_of_rho     :      0.05s CPU      0.05s WALL (       8 calls)
     newd         :      0.07s CPU      0.08s WALL (       8 calls)
     mix_rho      :      0.00s CPU      0.00s WALL (       8 calls)

     Called by c_bands:
     init_us_2    :      0.06s CPU      0.06s WALL (     380 calls)
     cegterg      :      2.02s CPU      2.11s WALL (     160 calls)

     Called by sum_band:
     sum_band:bec :      0.00s CPU      0.00s WALL (     160 calls)
     addusdens    :      0.07s CPU      0.08s WALL (       8 calls)

     Called by *egterg:
     h_psi        :      1.52s CPU      1.59s WALL (     553 calls)
     s_psi        :      0.05s CPU      0.05s WALL (     553 calls)
     g_psi        :      0.00s CPU      0.00s WALL (     373 calls)
     cdiaghg      :      0.19s CPU      0.20s WALL (     513 calls)

     Called by h_psi:
     h_psi:pot    :      1.51s CPU      1.58s WALL (     553 calls)
     h_psi:calbec :      0.09s CPU      0.10s WALL (     553 calls)
     vloc_psi     :      1.36s CPU      1.42s WALL (     553 calls)
     add_vuspsi   :      0.05s CPU      0.06s WALL (     553 calls)

     General routines
     calbec       :      0.14s CPU      0.14s WALL (     813 calls)
     fft          :      0.04s CPU      0.04s WALL (     115 calls)
     ffts         :      0.00s CPU      0.00s WALL (       8 calls)
     fftw         :      1.56s CPU      1.63s WALL (   12706 calls)

     Parallel routines
     fft_scatt_xy :      0.13s CPU      0.14s WALL (   12829 calls)
     fft_scatt_yz :      0.43s CPU      0.45s WALL (   12829 calls)

     PWSCF        :     3.88s CPU         4.04s WALL


   This run was terminated on:  22:20:31  26Mar2024            

=------------------------------------------------------------------------------=
   JOB DONE.
=------------------------------------------------------------------------------=
