
     Program PWSCF v.6.3MaX starts on 26Mar2024 at 22:34:48 

     This program is part of the open-source Quantum ESPRESSO suite
     for quantum simulation of materials; please cite
         "P. Giannozzi et al., J. Phys.:Condens. Matter 21 395502 (2009);
         "P. Giannozzi et al., J. Phys.:Condens. Matter 29 465901 (2017);
          URL http://www.quantum-espresso.org", 
     in publications or presentations arising from this work. More details at
     http://www.quantum-espresso.org/quote

     Parallel version (MPI), running on     5 processors

     MPI processes distributed on     1 nodes
     R & G space division:  proc/nbgrp/npool/nimage =       5
     Waiting for input...
     Reading input from standard input

     Current dimensions of program PWSCF are:
     Max number of different atomic species (ntypx) = 10
     Max number of k-points (npk) =  40000
     Max angular momentum in pseudopotentials (lmaxx) =  3
               file Ni.pbesol-spn-kjpaw_psl.1.0.0.UPF: wavefunction(s)  3P 3D renormalized

     Subspace diagonalization in iterative solution of the eigenvalue problem:
     a serial algorithm will be used


     Parallelization info
     --------------------
     sticks:   dense  smooth     PW     G-vecs:    dense   smooth      PW
     Min          49      49     17                  513      513     106
     Max          51      51     17                  513      513     107
     Sum         253     253     85                 2565     2565     531



     bravais-lattice index     =            2
     lattice parameter (alat)  =       6.6500  a.u.
     unit-cell volume          =      73.5199 (a.u.)^3
     number of atoms/cell      =            1
     number of atomic types    =            1
     number of electrons       =        18.00
     number of Kohn-Sham states=           13
     kinetic-energy cutoff     =      40.0000  Ry
     charge density cutoff     =     160.0000  Ry
     convergence threshold     =      1.0E-08
     mixing beta               =       0.7000
     number of iterations used =            8  plain     mixing
     Exchange-correlation      = SLA PW PSX PSC ( 1  4 10  8 0 0)

     celldm(1)=   6.650000  celldm(2)=   0.000000  celldm(3)=   0.000000
     celldm(4)=   0.000000  celldm(5)=   0.000000  celldm(6)=   0.000000

     crystal axes: (cart. coord. in units of alat)
               a(1) = (  -0.500000   0.000000   0.500000 )  
               a(2) = (   0.000000   0.500000   0.500000 )  
               a(3) = (  -0.500000   0.500000   0.000000 )  

     reciprocal axes: (cart. coord. in units 2 pi/alat)
               b(1) = ( -1.000000 -1.000000  1.000000 )  
               b(2) = (  1.000000  1.000000  1.000000 )  
               b(3) = ( -1.000000  1.000000 -1.000000 )  


     PseudoPot. # 1 for Ni read from file:
     /home/lorenzo/pseudos/Ni/Ni.pbesol-spn-kjpaw_psl.1.0.0.UPF
     MD5 check sum: ef06ee83099c2673f0516457bd731f51
     Pseudo is Projector augmented-wave + core cor, Zval = 18.0
     Generated using "atomic" code by A. Dal Corso v.6.3
     Shape of augmentation charge: PSQ
     Using radial grid of 1195 points,  6 beta functions with: 
                l(1) =   0
                l(2) =   0
                l(3) =   1
                l(4) =   1
                l(5) =   2
                l(6) =   2
     Q(r) pseudized with 0 coefficients 


     atomic species   valence    mass     pseudopotential
        Ni            18.00    58.69340     Ni( 1.00)

     48 Sym. Ops., with inversion, found



   Cartesian axes

     site n.     atom                  positions (alat units)
         1           Ni  tau(   1) = (   0.0000000   0.0000000   0.0000000  )

     number of k points=    10  gaussian smearing, width (Ry)=  0.0100
                       cart. coord. in units 2pi/alat
        k(    1) = (   0.0000000   0.0000000   0.0000000), wk =   0.0160000
        k(    2) = (  -0.2000000   0.2000000  -0.2000000), wk =   0.1280000
        k(    3) = (  -0.4000000   0.4000000  -0.4000000), wk =   0.1280000
        k(    4) = (   0.0000000   0.4000000   0.0000000), wk =   0.0960000
        k(    5) = (  -0.2000000   0.6000000  -0.2000000), wk =   0.3840000
        k(    6) = (   0.6000000  -0.2000000   0.6000000), wk =   0.3840000
        k(    7) = (   0.4000000   0.0000000   0.4000000), wk =   0.1920000
        k(    8) = (   0.0000000   0.8000000   0.0000000), wk =   0.0960000
        k(    9) = (   0.8000000   0.0000000   0.8000000), wk =   0.1920000
        k(   10) = (   0.6000000  -0.2000000   1.0000000), wk =   0.3840000

     Dense  grid:     2565 G-vectors     FFT dimensions: (  20,  20,  20)

     Estimated max dynamical RAM per process >       3.12 MB

     Estimated total dynamical RAM >      15.62 MB

     Check: negative/imaginary core charge=   -0.000044    0.000000

     Initial potential from superposition of free atoms

     starting charge   17.99977, renormalised to   18.00000
     Starting wfcs are   10 randomized atomic wfcs +    3 random wfcs
     Checking if some PAW data can be deallocated... 

     total cpu time spent up to now is        1.0 secs

     Self-consistent Calculation

     iteration #  1     ecut=    40.00 Ry     beta= 0.70
     Davidson diagonalization with overlap
     ethr =  1.00E-02,  avg # of iterations =  4.8

     Threshold (ethr) on eigenvalues was too large:
     Diagonalizing with lowered threshold

     Davidson diagonalization with overlap
     ethr =  1.65E-04,  avg # of iterations =  1.3

     total cpu time spent up to now is        1.3 secs

     total energy              =    -426.03997929 Ry
     Harris-Foulkes estimate   =    -426.05566783 Ry
     estimated scf accuracy    <       0.03070389 Ry

     iteration #  2     ecut=    40.00 Ry     beta= 0.70
     Davidson diagonalization with overlap
     ethr =  1.71E-04,  avg # of iterations =  2.0

     total cpu time spent up to now is        1.4 secs

     total energy              =    -426.03482478 Ry
     Harris-Foulkes estimate   =    -426.05656931 Ry
     estimated scf accuracy    <       0.04753214 Ry

     iteration #  3     ecut=    40.00 Ry     beta= 0.70
     Davidson diagonalization with overlap
     ethr =  1.71E-04,  avg # of iterations =  2.0

     total cpu time spent up to now is        1.6 secs

     total energy              =    -426.04643012 Ry
     Harris-Foulkes estimate   =    -426.04860706 Ry
     estimated scf accuracy    <       0.00701701 Ry

     iteration #  4     ecut=    40.00 Ry     beta= 0.70
     Davidson diagonalization with overlap
     ethr =  3.90E-05,  avg # of iterations =  2.0

     total cpu time spent up to now is        1.8 secs

     total energy              =    -426.04740615 Ry
     Harris-Foulkes estimate   =    -426.04740332 Ry
     estimated scf accuracy    <       0.00002308 Ry

     iteration #  5     ecut=    40.00 Ry     beta= 0.70
     Davidson diagonalization with overlap
     ethr =  1.28E-07,  avg # of iterations =  2.6

     total cpu time spent up to now is        1.9 secs

     total energy              =    -426.04742038 Ry
     Harris-Foulkes estimate   =    -426.04742106 Ry
     estimated scf accuracy    <       0.00000227 Ry

     iteration #  6     ecut=    40.00 Ry     beta= 0.70
     Davidson diagonalization with overlap
     ethr =  1.26E-08,  avg # of iterations =  1.5

     total cpu time spent up to now is        2.1 secs

     total energy              =    -426.04742063 Ry
     Harris-Foulkes estimate   =    -426.04742064 Ry
     estimated scf accuracy    <       0.00000006 Ry

     iteration #  7     ecut=    40.00 Ry     beta= 0.70
     Davidson diagonalization with overlap
     ethr =  3.39E-10,  avg # of iterations =  2.1

     total cpu time spent up to now is        2.3 secs

     End of self-consistent calculation

          k = 0.0000 0.0000 0.0000 (   331 PWs)   bands (ev):

   -85.5076 -45.4970 -45.4970 -45.4970   8.7439  15.7102  15.7102  15.7102
    16.7871  16.7871  41.2570  45.1778  45.1778

          k =-0.2000 0.2000-0.2000 (   311 PWs)   bands (ev):

   -85.4895 -45.3162 -45.2850 -45.2850  10.2615  15.4910  16.0518  16.0518
    16.9583  16.9583  34.6261  41.8143  43.2970

          k =-0.4000 0.4000-0.4000 (   320 PWs)   bands (ev):

   -85.4714 -45.5192 -45.3429 -45.3429  12.9599  15.8398  15.8398  16.2601
    17.5040  17.5040  25.7564  40.0814  42.3518

          k = 0.0000 0.4000 0.0000 (   303 PWs)   bands (ev):

   -85.4828 -45.2505 -45.2505 -45.1116  10.7369  15.2003  16.5116  16.5168
    16.5168  17.1781  38.5085  38.5085  38.8881

          k =-0.2000 0.6000-0.2000 (   316 PWs)   bands (ev):

   -85.4697 -45.4702 -45.3351 -45.3279  13.1483  14.8096  15.7330  16.5243
    17.6458  18.0465  29.2217  35.8578  36.6304

          k = 0.6000-0.2000 0.6000 (   307 PWs)   bands (ev):

   -85.4594 -45.2812 -45.2526 -45.2517  14.0652  15.1354  15.7504  16.3857
    17.5659  20.7048  24.5134  32.9035  38.4180

          k = 0.4000 0.0000 0.4000 (   311 PWs)   bands (ev):

   -85.4744 -45.3841 -45.3458 -45.1909  12.3611  15.1510  15.7655  16.6098
    16.6437  17.9604  31.9140  32.9617  42.9434

          k = 0.0000 0.8000 0.0000 (   322 PWs)   bands (ev):

   -85.4632 -45.5318 -45.4400 -45.4400  13.3229  14.1029  17.5316  17.5506
    17.5506  18.1715  29.9755  33.2141  33.2141

          k = 0.8000 0.0000 0.8000 (   318 PWs)   bands (ev):

   -85.4565 -45.4110 -45.4018 -45.3936  13.8808  14.2631  16.4143  17.2403
    17.7186  22.5173  26.5601  27.9215  33.9407

          k = 0.6000-0.2000 1.0000 (   317 PWs)   bands (ev):

   -85.4586 -45.4253 -45.4114 -45.3202  14.2829  14.7697  15.3067  16.9617
    17.5799  21.5498  27.6612  29.4636  31.5728

     the Fermi energy is    17.6868 ev

!    total energy              =    -426.04742064 Ry
     Harris-Foulkes estimate   =    -426.04742064 Ry
     estimated scf accuracy    <          6.1E-10 Ry

     total all-electron energy =     -3038.505765 Ry

     The total energy is the sum of the following terms:

     one-electron contribution =    -184.22659913 Ry
     hartree contribution      =     104.19436175 Ry
     xc contribution           =     -33.91294787 Ry
     ewald contribution        =    -223.38275372 Ry
     one-center paw contrib.   =     -88.71650076 Ry
     smearing contrib. (-TS)   =      -0.00298089 Ry

     convergence has been achieved in   7 iterations

     Forces acting on atoms (cartesian axes, Ry/au):

     atom    1 type  1   force =     0.00000000    0.00000000    0.00000000

     Total force =     0.000000     Total SCF correction =     0.000000


     Computing stress (Cartesian axis) and pressure

          total   stress  (Ry/bohr**3)                   (kbar)     P=-6286.47
  -0.04273458   0.00000000   0.00000000      -6286.47      0.00      0.00
   0.00000000  -0.04273458  -0.00000000          0.00  -6286.47     -0.00
   0.00000000  -0.00000000  -0.04273458          0.00     -0.00  -6286.47


     Writing output data file Ni.save/

     init_run     :      0.23s CPU      0.25s WALL (       1 calls)
     electrons    :      1.12s CPU      1.28s WALL (       1 calls)
     forces       :      0.02s CPU      0.02s WALL (       1 calls)
     stress       :      0.04s CPU      0.04s WALL (       1 calls)

     Called by init_run:
     wfcinit      :      0.02s CPU      0.02s WALL (       1 calls)
     potinit      :      0.09s CPU      0.11s WALL (       1 calls)
     hinit0       :      0.10s CPU      0.10s WALL (       1 calls)

     Called by electrons:
     c_bands      :      0.40s CPU      0.43s WALL (       8 calls)
     sum_band     :      0.08s CPU      0.09s WALL (       8 calls)
     v_of_rho     :      0.01s CPU      0.01s WALL (       8 calls)
     newd         :      0.02s CPU      0.02s WALL (       8 calls)
     PAW_pot      :      0.69s CPU      0.81s WALL (       8 calls)
     mix_rho      :      0.00s CPU      0.00s WALL (       8 calls)

     Called by c_bands:
     init_us_2    :      0.01s CPU      0.01s WALL (     190 calls)
     cegterg      :      0.38s CPU      0.42s WALL (      80 calls)

     Called by sum_band:
     sum_band:bec :      0.00s CPU      0.00s WALL (      80 calls)
     addusdens    :      0.02s CPU      0.02s WALL (       8 calls)

     Called by *egterg:
     h_psi        :      0.27s CPU      0.29s WALL (     273 calls)
     s_psi        :      0.01s CPU      0.01s WALL (     273 calls)
     g_psi        :      0.00s CPU      0.00s WALL (     183 calls)
     cdiaghg      :      0.08s CPU      0.09s WALL (     253 calls)

     Called by h_psi:
     h_psi:pot    :      0.26s CPU      0.29s WALL (     273 calls)
     h_psi:calbec :      0.01s CPU      0.01s WALL (     273 calls)
     vloc_psi     :      0.24s CPU      0.27s WALL (     273 calls)
     add_vuspsi   :      0.01s CPU      0.01s WALL (     273 calls)

     General routines
     calbec       :      0.03s CPU      0.03s WALL (     403 calls)
     fft          :      0.01s CPU      0.01s WALL (     115 calls)
     ffts         :      0.00s CPU      0.00s WALL (       8 calls)
     fftw         :      0.27s CPU      0.29s WALL (    6256 calls)

     Parallel routines
     fft_scatt_xy :      0.02s CPU      0.03s WALL (    6379 calls)
     fft_scatt_yz :      0.10s CPU      0.11s WALL (    6379 calls)

     PWSCF        :     2.15s CPU         2.37s WALL


   This run was terminated on:  22:34:50  26Mar2024            

=------------------------------------------------------------------------------=
   JOB DONE.
=------------------------------------------------------------------------------=
