
     Program PWSCF v.6.3MaX starts on 26Mar2024 at 22:25:40 

     This program is part of the open-source Quantum ESPRESSO suite
     for quantum simulation of materials; please cite
         "P. Giannozzi et al., J. Phys.:Condens. Matter 21 395502 (2009);
         "P. Giannozzi et al., J. Phys.:Condens. Matter 29 465901 (2017);
          URL http://www.quantum-espresso.org", 
     in publications or presentations arising from this work. More details at
     http://www.quantum-espresso.org/quote

     Parallel version (MPI), running on     5 processors

     MPI processes distributed on     1 nodes
     R & G space division:  proc/nbgrp/npool/nimage =       5
     Waiting for input...
     Reading input from standard input

     Current dimensions of program PWSCF are:
     Max number of different atomic species (ntypx) = 10
     Max number of k-points (npk) =  40000
     Max angular momentum in pseudopotentials (lmaxx) =  3
               file Ni.pbesol-spn-kjpaw_psl.1.0.0.UPF: wavefunction(s)  3P 3D renormalized

     Subspace diagonalization in iterative solution of the eigenvalue problem:
     a serial algorithm will be used


     Parallelization info
     --------------------
     sticks:   dense  smooth     PW     G-vecs:    dense   smooth      PW
     Min          24      24     11                  178      178      51
     Max          25      25     11                  181      181      52
     Sum         121     121     55                  893      893     259



     bravais-lattice index     =            2
     lattice parameter (alat)  =       6.6500  a.u.
     unit-cell volume          =      73.5199 (a.u.)^3
     number of atoms/cell      =            1
     number of atomic types    =            1
     number of electrons       =        18.00
     number of Kohn-Sham states=           13
     kinetic-energy cutoff     =      20.0000  Ry
     charge density cutoff     =      80.0000  Ry
     convergence threshold     =      1.0E-08
     mixing beta               =       0.7000
     number of iterations used =            8  plain     mixing
     Exchange-correlation      = SLA PW PSX PSC ( 1  4 10  8 0 0)

     celldm(1)=   6.650000  celldm(2)=   0.000000  celldm(3)=   0.000000
     celldm(4)=   0.000000  celldm(5)=   0.000000  celldm(6)=   0.000000

     crystal axes: (cart. coord. in units of alat)
               a(1) = (  -0.500000   0.000000   0.500000 )  
               a(2) = (   0.000000   0.500000   0.500000 )  
               a(3) = (  -0.500000   0.500000   0.000000 )  

     reciprocal axes: (cart. coord. in units 2 pi/alat)
               b(1) = ( -1.000000 -1.000000  1.000000 )  
               b(2) = (  1.000000  1.000000  1.000000 )  
               b(3) = ( -1.000000  1.000000 -1.000000 )  


     PseudoPot. # 1 for Ni read from file:
     /home/lorenzo/pseudos/Ni/Ni.pbesol-spn-kjpaw_psl.1.0.0.UPF
     MD5 check sum: ef06ee83099c2673f0516457bd731f51
     Pseudo is Projector augmented-wave + core cor, Zval = 18.0
     Generated using "atomic" code by A. Dal Corso v.6.3
     Shape of augmentation charge: PSQ
     Using radial grid of 1195 points,  6 beta functions with: 
                l(1) =   0
                l(2) =   0
                l(3) =   1
                l(4) =   1
                l(5) =   2
                l(6) =   2
     Q(r) pseudized with 0 coefficients 


     atomic species   valence    mass     pseudopotential
        Ni            18.00    58.69340     Ni( 1.00)

     48 Sym. Ops., with inversion, found



   Cartesian axes

     site n.     atom                  positions (alat units)
         1           Ni  tau(   1) = (   0.0000000   0.0000000   0.0000000  )

     number of k points=    47  gaussian smearing, width (Ry)=  0.0100
                       cart. coord. in units 2pi/alat
        k(    1) = (   0.0000000   0.0000000   0.0000000), wk =   0.0020000
        k(    2) = (  -0.1000000   0.1000000  -0.1000000), wk =   0.0160000
        k(    3) = (  -0.2000000   0.2000000  -0.2000000), wk =   0.0160000
        k(    4) = (  -0.3000000   0.3000000  -0.3000000), wk =   0.0160000
        k(    5) = (  -0.4000000   0.4000000  -0.4000000), wk =   0.0160000
        k(    6) = (   0.5000000  -0.5000000   0.5000000), wk =   0.0080000
        k(    7) = (   0.0000000   0.2000000   0.0000000), wk =   0.0120000
        k(    8) = (  -0.1000000   0.3000000  -0.1000000), wk =   0.0480000
        k(    9) = (  -0.2000000   0.4000000  -0.2000000), wk =   0.0480000
        k(   10) = (  -0.3000000   0.5000000  -0.3000000), wk =   0.0480000
        k(   11) = (   0.6000000  -0.4000000   0.6000000), wk =   0.0480000
        k(   12) = (   0.5000000  -0.3000000   0.5000000), wk =   0.0480000
        k(   13) = (   0.4000000  -0.2000000   0.4000000), wk =   0.0480000
        k(   14) = (   0.3000000  -0.1000000   0.3000000), wk =   0.0480000
        k(   15) = (   0.2000000   0.0000000   0.2000000), wk =   0.0240000
        k(   16) = (   0.0000000   0.4000000   0.0000000), wk =   0.0120000
        k(   17) = (  -0.1000000   0.5000000  -0.1000000), wk =   0.0480000
        k(   18) = (  -0.2000000   0.6000000  -0.2000000), wk =   0.0480000
        k(   19) = (   0.7000000  -0.3000000   0.7000000), wk =   0.0480000
        k(   20) = (   0.6000000  -0.2000000   0.6000000), wk =   0.0480000
        k(   21) = (   0.5000000  -0.1000000   0.5000000), wk =   0.0480000
        k(   22) = (   0.4000000   0.0000000   0.4000000), wk =   0.0240000
        k(   23) = (   0.0000000   0.6000000   0.0000000), wk =   0.0120000
        k(   24) = (  -0.1000000   0.7000000  -0.1000000), wk =   0.0480000
        k(   25) = (   0.8000000  -0.2000000   0.8000000), wk =   0.0480000
        k(   26) = (   0.7000000  -0.1000000   0.7000000), wk =   0.0480000
        k(   27) = (   0.6000000  -0.0000000   0.6000000), wk =   0.0240000
        k(   28) = (   0.0000000   0.8000000   0.0000000), wk =   0.0120000
        k(   29) = (   0.9000000  -0.1000000   0.9000000), wk =   0.0480000
        k(   30) = (   0.8000000   0.0000000   0.8000000), wk =   0.0240000
        k(   31) = (   0.0000000  -1.0000000   0.0000000), wk =   0.0060000
        k(   32) = (  -0.2000000   0.4000000   0.0000000), wk =   0.0480000
        k(   33) = (  -0.3000000   0.5000000  -0.1000000), wk =   0.0960000
        k(   34) = (   0.6000000  -0.4000000   0.8000000), wk =   0.0960000
        k(   35) = (   0.5000000  -0.3000000   0.7000000), wk =   0.0480000
        k(   36) = (  -0.2000000   0.6000000   0.0000000), wk =   0.0480000
        k(   37) = (   0.7000000  -0.3000000   0.9000000), wk =   0.0960000
        k(   38) = (   0.6000000  -0.2000000   0.8000000), wk =   0.0960000
        k(   39) = (   0.5000000  -0.1000000   0.7000000), wk =   0.0960000
        k(   40) = (   0.4000000   0.0000000   0.6000000), wk =   0.0480000
        k(   41) = (   0.8000000  -0.2000000   1.0000000), wk =   0.0480000
        k(   42) = (   0.7000000  -0.1000000   0.9000000), wk =   0.0960000
        k(   43) = (   0.6000000   0.0000000   0.8000000), wk =   0.0480000
        k(   44) = (  -0.2000000  -1.0000000   0.0000000), wk =   0.0240000
        k(   45) = (   0.6000000  -0.2000000   1.0000000), wk =   0.0480000
        k(   46) = (   0.5000000  -0.1000000   0.9000000), wk =   0.0480000
        k(   47) = (  -0.4000000  -1.0000000   0.0000000), wk =   0.0240000

     Dense  grid:      893 G-vectors     FFT dimensions: (  15,  15,  15)

     Estimated max dynamical RAM per process >       1.65 MB

     Estimated total dynamical RAM >       8.27 MB

     Check: negative/imaginary core charge=   -0.000642    0.000000

     Initial potential from superposition of free atoms
     Check: negative starting charge=   -0.021453

     starting charge   17.99977, renormalised to   18.00000

     negative rho (up, down):  2.145E-02 0.000E+00
     Starting wfcs are   10 randomized atomic wfcs +    3 random wfcs
     Checking if some PAW data can be deallocated... 

     total cpu time spent up to now is        1.1 secs

     Self-consistent Calculation

     iteration #  1     ecut=    20.00 Ry     beta= 0.70
     Davidson diagonalization with overlap
     ethr =  1.00E-02,  avg # of iterations =  3.4

     total cpu time spent up to now is        1.5 secs

     total energy              =    -383.99165977 Ry
     Harris-Foulkes estimate   =    -407.28547169 Ry
     estimated scf accuracy    <      27.19965307 Ry

     iteration #  2     ecut=    20.00 Ry     beta= 0.70
     Davidson diagonalization with overlap
     ethr =  1.00E-02,  avg # of iterations =  3.0

     total cpu time spent up to now is        1.9 secs

     total energy              =    -393.53383030 Ry
     Harris-Foulkes estimate   =    -400.15613305 Ry
     estimated scf accuracy    <      11.86509169 Ry

     iteration #  3     ecut=    20.00 Ry     beta= 0.70
     Davidson diagonalization with overlap
     ethr =  1.00E-02,  avg # of iterations =  2.0

     total cpu time spent up to now is        2.2 secs

     total energy              =    -394.98681215 Ry
     Harris-Foulkes estimate   =    -395.16308175 Ry
     estimated scf accuracy    <       0.26626882 Ry

     iteration #  4     ecut=    20.00 Ry     beta= 0.70
     Davidson diagonalization with overlap
     ethr =  1.48E-03,  avg # of iterations =  2.0

     total cpu time spent up to now is        2.5 secs

     total energy              =    -395.04568034 Ry
     Harris-Foulkes estimate   =    -395.08543934 Ry
     estimated scf accuracy    <       0.09034066 Ry

     iteration #  5     ecut=    20.00 Ry     beta= 0.70
     Davidson diagonalization with overlap
     ethr =  5.02E-04,  avg # of iterations =  1.2

     total cpu time spent up to now is        2.8 secs

     total energy              =    -395.05277603 Ry
     Harris-Foulkes estimate   =    -395.05527325 Ry
     estimated scf accuracy    <       0.00490394 Ry

     iteration #  6     ecut=    20.00 Ry     beta= 0.70
     Davidson diagonalization with overlap
     ethr =  2.72E-05,  avg # of iterations =  1.9

     total cpu time spent up to now is        3.1 secs

     total energy              =    -395.05370161 Ry
     Harris-Foulkes estimate   =    -395.05371059 Ry
     estimated scf accuracy    <       0.00001756 Ry

     iteration #  7     ecut=    20.00 Ry     beta= 0.70
     Davidson diagonalization with overlap
     ethr =  9.75E-08,  avg # of iterations =  2.3

     total cpu time spent up to now is        3.4 secs

     total energy              =    -395.05370522 Ry
     Harris-Foulkes estimate   =    -395.05370522 Ry
     estimated scf accuracy    <       0.00000011 Ry

     iteration #  8     ecut=    20.00 Ry     beta= 0.70
     Davidson diagonalization with overlap
     ethr =  6.17E-10,  avg # of iterations =  1.1

     total cpu time spent up to now is        3.6 secs

     total energy              =    -395.05370522 Ry
     Harris-Foulkes estimate   =    -395.05370523 Ry
     estimated scf accuracy    <       0.00000002 Ry

     iteration #  9     ecut=    20.00 Ry     beta= 0.70
     Davidson diagonalization with overlap
     ethr =  1.35E-10,  avg # of iterations =  1.9

     total cpu time spent up to now is        3.9 secs

     End of self-consistent calculation

          k = 0.0000 0.0000 0.0000 (   113 PWs)   bands (ev):

  -126.1656 -52.5912 -52.5912 -52.5912  10.5858  19.5198  19.5198  19.5198
    19.9917  19.9917  43.8280  47.4400  47.4400

          k =-0.1000 0.1000-0.1000 (   113 PWs)   bands (ev):

  -126.1188 -52.6779 -52.5139 -52.5139  10.9256  19.3718  19.6228  19.6228
    20.0428  20.0428  41.5114  45.2493  46.0171

          k =-0.2000 0.2000-0.2000 (   110 PWs)   bands (ev):

  -125.7534 -50.5588 -50.5588 -50.3888  12.1043  17.5393  20.9993  20.9993
    25.9904  25.9904  34.9262  45.1223  45.1223

          k =-0.3000 0.3000-0.3000 (   114 PWs)   bands (ev):

  -126.1897 -54.6724 -54.6724 -50.2488  13.2422  15.0008  15.0008  20.7079
    23.4034  23.4034  30.0848  42.6991  42.6991

          k =-0.4000 0.4000-0.4000 (   114 PWs)   bands (ev):

  -126.2878 -54.6868 -54.6868 -50.9462  14.9218  15.0327  15.0327  21.1469
    23.1378  23.1378  26.4870  42.8049  42.8049

          k = 0.5000-0.5000 0.5000 (   108 PWs)   bands (ev):

  -125.8011 -50.1408 -50.1408 -49.1974  17.4620  19.9678  21.2452  21.2452
    26.4282  27.4950  27.4950  44.4685  44.4685

          k = 0.0000 0.2000 0.0000 (   113 PWs)   bands (ev):

  -126.1032 -52.7013 -52.4906 -52.4906  11.0385  19.5356  19.5549  19.5549
    19.9556  20.1559  41.8927  44.3982  44.3982

          k =-0.1000 0.3000-0.1000 (   116 PWs)   bands (ev):

  -126.2928 -55.7271 -53.5153 -53.0271  11.8286  11.9686  15.9153  18.9071
    19.8589  21.8584  36.6474  41.7462  42.4630

          k =-0.2000 0.4000-0.2000 (   107 PWs)   bands (ev):

  -125.5729 -53.0258 -48.8305 -45.3416  13.5324  18.7933  19.9496  25.8998
    27.5730  29.5327  33.8847  40.5032  41.5154

          k =-0.3000 0.5000-0.3000 (   109 PWs)   bands (ev):

  -125.8445 -53.0384 -49.3590 -48.9403  14.5391  18.4469  19.9549  23.0767
    27.0973  27.4192  28.7379  40.3960  40.8408

          k = 0.6000-0.4000 0.6000 (   114 PWs)   bands (ev):

  -126.3229 -54.7438 -54.5036 -51.1730  14.8872  15.3506  16.7532  20.2582
    22.6890  22.8179  26.1279  38.9153  40.5539

          k = 0.5000-0.3000 0.5000 (   111 PWs)   bands (ev):

  -126.0412 -53.6405 -51.7121 -49.6156  16.0914  16.2612  19.8324  20.6903
    24.7213  25.4665  27.7385  38.5160  42.3403

          k = 0.4000-0.2000 0.4000 (   111 PWs)   bands (ev):

  -125.9637 -53.0927 -50.7994 -50.5394  14.4359  16.2583  20.7239  21.5438
    22.5231  27.4928  29.3399  38.1059  45.1038

          k = 0.3000-0.1000 0.3000 (   112 PWs)   bands (ev):

  -125.9514 -53.9318 -51.1429 -50.4283  12.8234  13.3428  19.1309  19.5367
    23.9486  28.1179  33.8484  38.7468  46.1778

          k = 0.2000 0.0000 0.2000 (   115 PWs)   bands (ev):

  -126.2207 -54.3581 -53.6266 -52.6563  11.5738  13.7027  18.7109  18.8987
    19.1118  21.7621  38.4813  39.9437  46.5644

          k = 0.0000 0.4000 0.0000 (   113 PWs)   bands (ev):

  -126.0078 -52.8274 -52.8274 -51.1996  12.5743  17.6592  17.6592  18.1973
    21.0329  24.7947  39.5122  40.5249  40.5249

          k =-0.1000 0.5000-0.1000 (   114 PWs)   bands (ev):

  -126.1886 -54.4292 -53.6517 -51.6320  13.2187  13.3248  16.0488  18.4719
    24.8771  25.3462  34.3160  38.2290  38.3499

          k =-0.2000 0.6000-0.2000 (   113 PWs)   bands (ev):

  -126.2276 -55.8190 -53.4241 -49.6937  12.1704  15.2984  18.6614  19.2028
    24.6695  26.8577  29.5319  35.5710  38.1755

          k = 0.7000-0.3000 0.7000 (   111 PWs)   bands (ev):

  -126.1173 -53.8138 -52.1270 -49.7318  12.8639  17.9848  19.6394  23.3591
    25.0756  26.9874  27.3289  33.9858  38.5146

          k = 0.6000-0.2000 0.6000 (   109 PWs)   bands (ev):

  -125.9470 -52.8384 -50.1792 -49.1180  17.2273  18.8839  20.9562  21.1911
    26.5647  27.4811  28.0729  33.2008  40.1127

          k = 0.5000-0.1000 0.5000 (   111 PWs)   bands (ev):

  -126.0466 -53.0056 -51.1657 -50.9449  16.3007  17.0978  21.1192  21.7751
    22.2351  26.4824  28.6192  32.8052  41.5781

          k = 0.4000 0.0000 0.4000 (   107 PWs)   bands (ev):

  -125.5489 -51.8664 -49.0302 -45.9303  14.6751  18.9233  22.0887  24.3804
    27.0413  29.7232  33.4494  34.4935  45.5701

          k = 0.0000 0.6000 0.0000 (   113 PWs)   bands (ev):

  -126.2304 -54.3467 -54.3467 -50.8772   8.7413  11.8278  18.0123  23.0767
    28.0553  28.0553  34.6489  36.2985  36.2985

          k =-0.1000 0.7000-0.1000 (   112 PWs)   bands (ev):

  -126.2075 -54.0918 -53.8026 -50.0604   9.2083  13.2960  19.2999  24.5784
    28.1393  28.2972  31.4504  32.4280  35.8785

          k = 0.8000-0.2000 0.8000 (   110 PWs)   bands (ev):

  -126.0979 -54.8046 -50.6787 -49.2470  12.2483  19.6645  21.9322  23.0980
    27.2907  27.3557  28.5499  31.2712  36.0175

          k = 0.7000-0.1000 0.7000 (   108 PWs)   bands (ev):

  -125.9300 -51.7210 -50.1458 -49.2242  16.1467  20.4391  23.1406  25.3667
    26.6362  26.9131  27.8108  30.7984  37.7134

          k = 0.6000-0.0000 0.6000 (   111 PWs)   bands (ev):

  -126.1079 -53.6441 -51.1704 -50.7556  16.7670  20.2026  20.2425  21.2015
    22.5658  25.7852  27.2685  30.7103  39.1428

          k = 0.0000 0.8000 0.0000 (   112 PWs)   bands (ev):

  -126.2769 -54.5309 -54.5309 -49.1879   8.6787  14.5026  21.9733  22.7332
    28.0826  28.0826  30.0844  35.0142  35.0142

          k = 0.9000-0.1000 0.9000 (   110 PWs)   bands (ev):

  -126.1333 -54.1535 -51.8949 -48.8345  11.2574  17.1787  22.6158  24.4287
    28.2276  28.6255  29.4877  30.9234  34.9977

          k = 0.8000 0.0000 0.8000 (   110 PWs)   bands (ev):

  -126.1651 -56.6816 -49.5352 -49.2377   8.8809  20.9073  23.1881  24.4894
    25.9843  27.7991  29.3118  29.4574  35.0196

          k = 0.0000-1.0000 0.0000 (   116 PWs)   bands (ev):

  -126.6894 -57.5259 -57.5259 -50.5835   2.3753  14.5447  22.3721  22.6215
    24.1266  24.1266  27.8563  33.7225  34.0124

          k =-0.2000 0.4000 0.0000 (   114 PWs)   bands (ev):

  -126.1305 -55.8945 -53.3458 -49.7231  11.5835  13.0816  17.2877  18.0111
    21.8897  27.6870  34.6723  36.9122  43.9640

          k =-0.3000 0.5000-0.1000 (   113 PWs)   bands (ev):

  -126.1272 -54.7851 -52.3290 -50.8851  13.4426  15.8044  17.9570  18.9422
    23.1550  26.9008  30.3831  35.5604  40.3679

          k = 0.6000-0.4000 0.8000 (   112 PWs)   bands (ev):

  -126.1515 -53.6325 -52.9859 -50.3547  14.1066  16.8392  19.1038  20.1423
    24.1991  25.8761  28.7743  35.2869  38.0692

          k = 0.5000-0.3000 0.7000 (   108 PWs)   bands (ev):

  -125.8167 -52.5711 -48.8669 -48.4842  17.6280  19.7328  20.0860  21.7729
    24.2432  28.6572  31.3618  36.3694  37.9667

          k =-0.2000 0.6000 0.0000 (   112 PWs)   bands (ev):

  -126.1090 -54.1043 -51.6502 -51.2861  12.0862  13.9656  15.8168  23.1409
    26.8115  29.0406  32.7761  34.0348  36.1089

          k = 0.7000-0.3000 0.9000 (   111 PWs)   bands (ev):

  -126.1343 -54.2092 -52.8434 -49.1440  11.2498  16.9947  18.9952  23.6848
    27.0238  28.5597  28.9835  32.5256  34.3913

          k = 0.6000-0.2000 0.8000 (   109 PWs)   bands (ev):

  -126.0410 -52.3618 -51.5680 -49.2639  14.9889  19.8008  20.0467  24.3064
    26.4264  28.2004  28.7366  31.9247  34.2375

          k = 0.5000-0.1000 0.7000 (   112 PWs)   bands (ev):

  -126.2574 -55.1038 -52.4380 -50.4755  13.3908  18.0808  19.4417  20.6127
    25.4420  26.0945  27.5449  31.0073  35.1597

          k = 0.4000 0.0000 0.6000 (   114 PWs)   bands (ev):

  -126.3445 -55.7128 -52.6694 -52.4908  12.5666  16.4483  18.0606  19.1668
    22.4695  26.1729  28.9000  31.4221  36.8677

          k = 0.8000-0.2000 1.0000 (   111 PWs)   bands (ev):

  -126.1885 -54.0922 -52.5669 -49.7335  12.2761  15.9208  20.9550  24.5219
    26.8810  27.8128  30.5312  30.5965  33.2992

          k = 0.7000-0.1000 0.9000 (   107 PWs)   bands (ev):

  -125.9363 -51.9981 -49.6595 -48.3302  16.0281  20.6841  22.5730  26.5241
    28.1026  28.6658  29.0640  30.6370  33.0032

          k = 0.6000 0.0000 0.8000 (   109 PWs)   bands (ev):

  -126.0957 -52.5137 -50.9883 -49.8226  15.6812  20.4469  22.0876  23.0821
    26.3081  27.3578  28.5102  29.8302  33.6676

          k =-0.2000-1.0000 0.0000 (   108 PWs)   bands (ev):

  -126.0112 -53.6485 -49.0066 -48.9559  14.9503  17.2954  22.7930  26.4146
    28.0244  29.7582  29.9393  30.2838  33.0304

          k = 0.6000-0.2000 1.0000 (   111 PWs)   bands (ev):

  -126.2306 -54.3545 -51.7558 -50.4606  14.6979  17.6858  18.8796  21.7706
    27.5519  27.6604  28.2226  30.0117  32.3506

          k = 0.5000-0.1000 0.9000 (   110 PWs)   bands (ev):

  -126.1924 -53.6556 -51.3220 -50.1115  17.0603  20.1231  20.4957  20.6524
    26.3216  26.7413  28.8433  29.7710  31.5860

          k =-0.4000-1.0000 0.0000 (   108 PWs)   bands (ev):

  -126.0521 -52.7986 -49.7468 -49.5229  20.0841  21.4230  21.8924  21.9000
    26.2699  27.5685  29.3979  29.4115  31.0715

     the Fermi energy is    26.6394 ev

!    total energy              =    -395.05370522 Ry
     Harris-Foulkes estimate   =    -395.05370522 Ry
     estimated scf accuracy    <          3.1E-11 Ry

     total all-electron energy =     -3007.512050 Ry

     The total energy is the sum of the following terms:

     one-electron contribution =    -121.91286855 Ry
     hartree contribution      =      67.97665287 Ry
     xc contribution           =     -29.51464424 Ry
     ewald contribution        =    -223.38275379 Ry
     one-center paw contrib.   =     -88.21951434 Ry
     smearing contrib. (-TS)   =      -0.00057717 Ry

     convergence has been achieved in   9 iterations

     Forces acting on atoms (cartesian axes, Ry/au):

     atom    1 type  1   force =     0.00000000    0.00000000    0.00000000

     Total force =     0.000000     Total SCF correction =     0.000000


     Computing stress (Cartesian axis) and pressure

          total   stress  (Ry/bohr**3)                   (kbar)     P=********
  -1.02161866  -0.00000000  -0.00000000    -150285.27     -0.00     -0.00
  -0.00000000  -1.02161866   0.00000000         -0.00-150285.27      0.00
  -0.00000000   0.00000000  -1.02161866         -0.00      0.00-150285.27


     Writing output data file Ni.save/

     init_run     :      0.22s CPU      0.25s WALL (       1 calls)
     electrons    :      2.46s CPU      2.83s WALL (       1 calls)
     forces       :      0.02s CPU      0.02s WALL (       1 calls)
     stress       :      0.03s CPU      0.03s WALL (       1 calls)

     Called by init_run:
     wfcinit      :      0.05s CPU      0.06s WALL (       1 calls)
     potinit      :      0.09s CPU      0.11s WALL (       1 calls)
     hinit0       :      0.07s CPU      0.07s WALL (       1 calls)

     Called by electrons:
     c_bands      :      1.39s CPU      1.59s WALL (       9 calls)
     sum_band     :      0.18s CPU      0.22s WALL (       9 calls)
     v_of_rho     :      0.01s CPU      0.01s WALL (      10 calls)
     newd         :      0.01s CPU      0.01s WALL (      10 calls)
     PAW_pot      :      0.94s CPU      1.08s WALL (      10 calls)
     mix_rho      :      0.00s CPU      0.00s WALL (       9 calls)

     Called by c_bands:
     init_us_2    :      0.02s CPU      0.02s WALL (     987 calls)
     cegterg      :      1.35s CPU      1.54s WALL (     423 calls)

     Called by sum_band:
     sum_band:bec :      0.00s CPU      0.00s WALL (     423 calls)
     addusdens    :      0.01s CPU      0.01s WALL (       9 calls)

     Called by *egterg:
     h_psi        :      0.77s CPU      0.89s WALL (    1361 calls)
     s_psi        :      0.02s CPU      0.02s WALL (    1361 calls)
     g_psi        :      0.00s CPU      0.00s WALL (     891 calls)
     cdiaghg      :      0.43s CPU      0.48s WALL (    1314 calls)

     Called by h_psi:
     h_psi:pot    :      0.76s CPU      0.88s WALL (    1361 calls)
     h_psi:calbec :      0.04s CPU      0.05s WALL (    1361 calls)
     vloc_psi     :      0.70s CPU      0.80s WALL (    1361 calls)
     add_vuspsi   :      0.02s CPU      0.03s WALL (    1361 calls)

     General routines
     calbec       :      0.06s CPU      0.07s WALL (    2019 calls)
     fft          :      0.01s CPU      0.01s WALL (     136 calls)
     ffts         :      0.00s CPU      0.00s WALL (       9 calls)
     fftw         :      0.76s CPU      0.88s WALL (   33615 calls)

     Parallel routines
     fft_scatt_xy :      0.08s CPU      0.09s WALL (   33760 calls)
     fft_scatt_yz :      0.33s CPU      0.38s WALL (   33760 calls)

     PWSCF        :     3.64s CPU         4.11s WALL


   This run was terminated on:  22:25:44  26Mar2024            

=------------------------------------------------------------------------------=
   JOB DONE.
=------------------------------------------------------------------------------=
