
     Program PWSCF v.6.3MaX starts on 26Mar2024 at 23: 2: 6 

     This program is part of the open-source Quantum ESPRESSO suite
     for quantum simulation of materials; please cite
         "P. Giannozzi et al., J. Phys.:Condens. Matter 21 395502 (2009);
         "P. Giannozzi et al., J. Phys.:Condens. Matter 29 465901 (2017);
          URL http://www.quantum-espresso.org", 
     in publications or presentations arising from this work. More details at
     http://www.quantum-espresso.org/quote

     Parallel version (MPI), running on     5 processors

     MPI processes distributed on     1 nodes
     R & G space division:  proc/nbgrp/npool/nimage =       5
     Waiting for input...
     Reading input from standard input

     Current dimensions of program PWSCF are:
     Max number of different atomic species (ntypx) = 10
     Max number of k-points (npk) =  40000
     Max angular momentum in pseudopotentials (lmaxx) =  3
               file Ni.pbesol-spn-kjpaw_psl.1.0.0.UPF: wavefunction(s)  3P 3D renormalized

     Subspace diagonalization in iterative solution of the eigenvalue problem:
     a serial algorithm will be used


     Parallelization info
     --------------------
     sticks:   dense  smooth     PW     G-vecs:    dense   smooth      PW
     Min         111     111     32                 1688     1688     290
     Max         112     112     33                 1689     1689     293
     Sum         559     559    163                 8441     8441    1459



     bravais-lattice index     =            2
     lattice parameter (alat)  =       6.6500  a.u.
     unit-cell volume          =      73.5199 (a.u.)^3
     number of atoms/cell      =            1
     number of atomic types    =            1
     number of electrons       =        18.00
     number of Kohn-Sham states=           13
     kinetic-energy cutoff     =      90.0000  Ry
     charge density cutoff     =     360.0000  Ry
     convergence threshold     =      1.0E-08
     mixing beta               =       0.7000
     number of iterations used =            8  plain     mixing
     Exchange-correlation      = SLA PW PSX PSC ( 1  4 10  8 0 0)

     celldm(1)=   6.650000  celldm(2)=   0.000000  celldm(3)=   0.000000
     celldm(4)=   0.000000  celldm(5)=   0.000000  celldm(6)=   0.000000

     crystal axes: (cart. coord. in units of alat)
               a(1) = (  -0.500000   0.000000   0.500000 )  
               a(2) = (   0.000000   0.500000   0.500000 )  
               a(3) = (  -0.500000   0.500000   0.000000 )  

     reciprocal axes: (cart. coord. in units 2 pi/alat)
               b(1) = ( -1.000000 -1.000000  1.000000 )  
               b(2) = (  1.000000  1.000000  1.000000 )  
               b(3) = ( -1.000000  1.000000 -1.000000 )  


     PseudoPot. # 1 for Ni read from file:
     /home/lorenzo/pseudos/Ni/Ni.pbesol-spn-kjpaw_psl.1.0.0.UPF
     MD5 check sum: ef06ee83099c2673f0516457bd731f51
     Pseudo is Projector augmented-wave + core cor, Zval = 18.0
     Generated using "atomic" code by A. Dal Corso v.6.3
     Shape of augmentation charge: PSQ
     Using radial grid of 1195 points,  6 beta functions with: 
                l(1) =   0
                l(2) =   0
                l(3) =   1
                l(4) =   1
                l(5) =   2
                l(6) =   2
     Q(r) pseudized with 0 coefficients 


     atomic species   valence    mass     pseudopotential
        Ni            18.00    58.69340     Ni( 1.00)

     48 Sym. Ops., with inversion, found



   Cartesian axes

     site n.     atom                  positions (alat units)
         1           Ni  tau(   1) = (   0.0000000   0.0000000   0.0000000  )

     number of k points=    10  gaussian smearing, width (Ry)=  0.0100
                       cart. coord. in units 2pi/alat
        k(    1) = (   0.0000000   0.0000000   0.0000000), wk =   0.0160000
        k(    2) = (  -0.2000000   0.2000000  -0.2000000), wk =   0.1280000
        k(    3) = (  -0.4000000   0.4000000  -0.4000000), wk =   0.1280000
        k(    4) = (   0.0000000   0.4000000   0.0000000), wk =   0.0960000
        k(    5) = (  -0.2000000   0.6000000  -0.2000000), wk =   0.3840000
        k(    6) = (   0.6000000  -0.2000000   0.6000000), wk =   0.3840000
        k(    7) = (   0.4000000   0.0000000   0.4000000), wk =   0.1920000
        k(    8) = (   0.0000000   0.8000000   0.0000000), wk =   0.0960000
        k(    9) = (   0.8000000   0.0000000   0.8000000), wk =   0.1920000
        k(   10) = (   0.6000000  -0.2000000   1.0000000), wk =   0.3840000

     Dense  grid:     8441 G-vectors     FFT dimensions: (  30,  30,  30)

     Estimated max dynamical RAM per process >       8.38 MB

     Estimated total dynamical RAM >      41.91 MB

     Check: negative/imaginary core charge=   -0.000002    0.000000

     Initial potential from superposition of free atoms

     starting charge   17.99977, renormalised to   18.00000
     Starting wfcs are   10 randomized atomic wfcs +    3 random wfcs
     Checking if some PAW data can be deallocated... 

     total cpu time spent up to now is        1.1 secs

     Self-consistent Calculation

     iteration #  1     ecut=    90.00 Ry     beta= 0.70
     Davidson diagonalization with overlap
     ethr =  1.00E-02,  avg # of iterations =  3.8

     Threshold (ethr) on eigenvalues was too large:
     Diagonalizing with lowered threshold

     Davidson diagonalization with overlap
     ethr =  1.85E-05,  avg # of iterations =  3.2

     total cpu time spent up to now is        1.6 secs

     total energy              =    -426.56808413 Ry
     Harris-Foulkes estimate   =    -426.57029187 Ry
     estimated scf accuracy    <       0.00334268 Ry

     iteration #  2     ecut=    90.00 Ry     beta= 0.70
     Davidson diagonalization with overlap
     ethr =  1.86E-05,  avg # of iterations =  2.6

     total cpu time spent up to now is        1.9 secs

     total energy              =    -426.56749172 Ry
     Harris-Foulkes estimate   =    -426.57146398 Ry
     estimated scf accuracy    <       0.01033981 Ry

     iteration #  3     ecut=    90.00 Ry     beta= 0.70
     Davidson diagonalization with overlap
     ethr =  1.86E-05,  avg # of iterations =  2.5

     total cpu time spent up to now is        2.2 secs

     total energy              =    -426.56941443 Ry
     Harris-Foulkes estimate   =    -426.56946522 Ry
     estimated scf accuracy    <       0.00015230 Ry

     iteration #  4     ecut=    90.00 Ry     beta= 0.70
     Davidson diagonalization with overlap
     ethr =  8.46E-07,  avg # of iterations =  2.0

     total cpu time spent up to now is        2.5 secs

     total energy              =    -426.56943960 Ry
     Harris-Foulkes estimate   =    -426.56943947 Ry
     estimated scf accuracy    <       0.00000030 Ry

     iteration #  5     ecut=    90.00 Ry     beta= 0.70
     Davidson diagonalization with overlap
     ethr =  1.64E-09,  avg # of iterations =  3.2

     total cpu time spent up to now is        2.8 secs

     total energy              =    -426.56944019 Ry
     Harris-Foulkes estimate   =    -426.56944021 Ry
     estimated scf accuracy    <       0.00000006 Ry

     iteration #  6     ecut=    90.00 Ry     beta= 0.70
     Davidson diagonalization with overlap
     ethr =  3.33E-10,  avg # of iterations =  1.1

     total cpu time spent up to now is        3.1 secs

     End of self-consistent calculation

          k = 0.0000 0.0000 0.0000 (  1067 PWs)   bands (ev):

   -85.0753 -45.4861 -45.4861 -45.4861   8.6061  15.7854  15.7854  15.7854
    16.9112  16.9112  41.2759  45.2015  45.2015

          k =-0.2000 0.2000-0.2000 (  1046 PWs)   bands (ev):

   -85.0633 -45.5638 -45.4969 -45.4969  10.1054  15.4568  15.9977  15.9977
    16.8985  16.8985  34.6568  41.8054  43.3950

          k =-0.4000 0.4000-0.4000 (  1056 PWs)   bands (ev):

   -85.0440 -45.6894 -45.5152 -45.5152  12.8469  15.8023  15.8023  16.2802
    17.5119  17.5119  25.6703  40.0926  42.4102

          k = 0.0000 0.4000 0.0000 (  1054 PWs)   bands (ev):

   -85.0594 -45.5615 -45.5148 -45.5148  10.5797  15.1012  16.3457  16.3606
    16.3606  17.1602  38.5832  38.5832  39.0208

          k =-0.2000 0.6000-0.2000 (  1060 PWs)   bands (ev):

   -85.0426 -45.6523 -45.5442 -45.5351  13.0502  14.7651  15.6942  16.4702
    17.6107  18.0624  29.1952  35.9289  36.7034

          k = 0.6000-0.2000 0.6000 (  1073 PWs)   bands (ev):

   -85.0361 -45.6820 -45.5741 -45.5301  13.9210  15.0576  15.6644  16.2699
    17.4724  20.6376  24.3200  32.8809  38.4902

          k = 0.4000 0.0000 0.4000 (  1057 PWs)   bands (ev):

   -85.0490 -45.6230 -45.5493 -45.5062  12.2432  15.0840  15.7319  16.4350
    16.5525  17.9791  32.0240  32.8656  42.9142

          k = 0.0000 0.8000 0.0000 (  1058 PWs)   bands (ev):

   -85.0337 -45.6792 -45.5620 -45.5620  13.2600  14.0820  17.5750  17.5792
    17.5792  18.1785  29.9538  33.2613  33.2613

          k = 0.8000 0.0000 0.8000 (  1059 PWs)   bands (ev):

   -85.0298 -45.6746 -45.6032 -45.5586  13.8125  14.2225  16.3914  17.2409
    17.6701  22.5706  26.6180  27.6425  33.9997

          k = 0.6000-0.2000 1.0000 (  1068 PWs)   bands (ev):

   -85.0322 -45.6570 -45.6052 -45.5555  14.2139  14.7117  15.2587  16.9288
    17.5734  21.5226  27.7349  29.4013  31.4112

     the Fermi energy is    17.6612 ev

!    total energy              =    -426.56944019 Ry
     Harris-Foulkes estimate   =    -426.56944020 Ry
     estimated scf accuracy    <          8.3E-09 Ry

     total all-electron energy =     -3039.027785 Ry

     The total energy is the sum of the following terms:

     one-electron contribution =    -185.05358127 Ry
     hartree contribution      =     104.65224113 Ry
     xc contribution           =     -33.93664878 Ry
     ewald contribution        =    -223.38275369 Ry
     one-center paw contrib.   =     -88.84556561 Ry
     smearing contrib. (-TS)   =      -0.00313197 Ry

     convergence has been achieved in   6 iterations

     Forces acting on atoms (cartesian axes, Ry/au):

     atom    1 type  1   force =     0.00000000    0.00000000    0.00000000

     Total force =     0.000000     Total SCF correction =     0.000000


     Computing stress (Cartesian axis) and pressure

          total   stress  (Ry/bohr**3)                   (kbar)     P= -107.67
  -0.00073191   0.00000000   0.00000000       -107.67      0.00      0.00
   0.00000000  -0.00073191  -0.00000000          0.00   -107.67     -0.00
   0.00000000  -0.00000000  -0.00073191          0.00     -0.00   -107.67


     Writing output data file Ni.save/

     init_run     :      0.35s CPU      0.38s WALL (       1 calls)
     electrons    :      1.83s CPU      1.96s WALL (       1 calls)
     forces       :      0.03s CPU      0.03s WALL (       1 calls)
     stress       :      0.12s CPU      0.12s WALL (       1 calls)

     Called by init_run:
     wfcinit      :      0.04s CPU      0.04s WALL (       1 calls)
     potinit      :      0.11s CPU      0.13s WALL (       1 calls)
     hinit0       :      0.18s CPU      0.18s WALL (       1 calls)

     Called by electrons:
     c_bands      :      0.94s CPU      0.97s WALL (       7 calls)
     sum_band     :      0.22s CPU      0.23s WALL (       7 calls)
     v_of_rho     :      0.04s CPU      0.04s WALL (       7 calls)
     newd         :      0.06s CPU      0.07s WALL (       7 calls)
     PAW_pot      :      0.68s CPU      0.76s WALL (       7 calls)
     mix_rho      :      0.00s CPU      0.00s WALL (       7 calls)

     Called by c_bands:
     init_us_2    :      0.02s CPU      0.03s WALL (     170 calls)
     cegterg      :      0.91s CPU      0.94s WALL (      70 calls)

     Called by sum_band:
     sum_band:bec :      0.00s CPU      0.00s WALL (      70 calls)
     addusdens    :      0.06s CPU      0.06s WALL (       7 calls)

     Called by *egterg:
     h_psi        :      0.68s CPU      0.71s WALL (     264 calls)
     s_psi        :      0.02s CPU      0.02s WALL (     264 calls)
     g_psi        :      0.00s CPU      0.00s WALL (     184 calls)
     cdiaghg      :      0.10s CPU      0.10s WALL (     244 calls)

     Called by h_psi:
     h_psi:pot    :      0.68s CPU      0.70s WALL (     264 calls)
     h_psi:calbec :      0.03s CPU      0.03s WALL (     264 calls)
     vloc_psi     :      0.62s CPU      0.65s WALL (     264 calls)
     add_vuspsi   :      0.02s CPU      0.02s WALL (     264 calls)

     General routines
     calbec       :      0.05s CPU      0.05s WALL (     384 calls)
     fft          :      0.03s CPU      0.03s WALL (     104 calls)
     ffts         :      0.00s CPU      0.00s WALL (       7 calls)
     fftw         :      0.70s CPU      0.72s WALL (    5696 calls)

     Parallel routines
     fft_scatt_xy :      0.06s CPU      0.06s WALL (    5807 calls)
     fft_scatt_yz :      0.21s CPU      0.22s WALL (    5807 calls)

     PWSCF        :     3.11s CPU         3.29s WALL


   This run was terminated on:  23: 2: 9  26Mar2024            

=------------------------------------------------------------------------------=
   JOB DONE.
=------------------------------------------------------------------------------=
