
     Program PWSCF v.6.3MaX starts on 26Mar2024 at 22:40:21 

     This program is part of the open-source Quantum ESPRESSO suite
     for quantum simulation of materials; please cite
         "P. Giannozzi et al., J. Phys.:Condens. Matter 21 395502 (2009);
         "P. Giannozzi et al., J. Phys.:Condens. Matter 29 465901 (2017);
          URL http://www.quantum-espresso.org", 
     in publications or presentations arising from this work. More details at
     http://www.quantum-espresso.org/quote

     Parallel version (MPI), running on     5 processors

     MPI processes distributed on     1 nodes
     R & G space division:  proc/nbgrp/npool/nimage =       5
     Waiting for input...
     Reading input from standard input

     Current dimensions of program PWSCF are:
     Max number of different atomic species (ntypx) = 10
     Max number of k-points (npk) =  40000
     Max angular momentum in pseudopotentials (lmaxx) =  3
               file Ni.pbe-spn-kjpaw_psl.1.0.0.UPF: wavefunction(s)  3P 3D renormalized

     Subspace diagonalization in iterative solution of the eigenvalue problem:
     a serial algorithm will be used


     Parallelization info
     --------------------
     sticks:   dense  smooth     PW     G-vecs:    dense   smooth      PW
     Min          62      62     21                  705      705     144
     Max          63      63     22                  706      706     146
     Sum         313     313    109                 3527     3527     725



     bravais-lattice index     =            2
     lattice parameter (alat)  =       6.6500  a.u.
     unit-cell volume          =      73.5199 (a.u.)^3
     number of atoms/cell      =            1
     number of atomic types    =            1
     number of electrons       =        18.00
     number of Kohn-Sham states=           13
     kinetic-energy cutoff     =      50.0000  Ry
     charge density cutoff     =     200.0000  Ry
     convergence threshold     =      1.0E-08
     mixing beta               =       0.7000
     number of iterations used =            8  plain     mixing
     Exchange-correlation      = SLA PW PBX PBC ( 1  4  3  4 0 0)

     celldm(1)=   6.650000  celldm(2)=   0.000000  celldm(3)=   0.000000
     celldm(4)=   0.000000  celldm(5)=   0.000000  celldm(6)=   0.000000

     crystal axes: (cart. coord. in units of alat)
               a(1) = (  -0.500000   0.000000   0.500000 )  
               a(2) = (   0.000000   0.500000   0.500000 )  
               a(3) = (  -0.500000   0.500000   0.000000 )  

     reciprocal axes: (cart. coord. in units 2 pi/alat)
               b(1) = ( -1.000000 -1.000000  1.000000 )  
               b(2) = (  1.000000  1.000000  1.000000 )  
               b(3) = ( -1.000000  1.000000 -1.000000 )  


     PseudoPot. # 1 for Ni read from file:
     /home/lorenzo/pseudos/Ni/Ni.pbe-spn-kjpaw_psl.1.0.0.UPF
     MD5 check sum: 6e86b733589c3ad8389697b807d86aa7
     Pseudo is Projector augmented-wave + core cor, Zval = 18.0
     Generated using "atomic" code by A. Dal Corso v.6.3
     Shape of augmentation charge: PSQ
     Using radial grid of 1195 points,  6 beta functions with: 
                l(1) =   0
                l(2) =   0
                l(3) =   1
                l(4) =   1
                l(5) =   2
                l(6) =   2
     Q(r) pseudized with 0 coefficients 


     atomic species   valence    mass     pseudopotential
        Ni            18.00    58.69340     Ni( 1.00)

     48 Sym. Ops., with inversion, found



   Cartesian axes

     site n.     atom                  positions (alat units)
         1           Ni  tau(   1) = (   0.0000000   0.0000000   0.0000000  )

     number of k points=    35  gaussian smearing, width (Ry)=  0.0100
                       cart. coord. in units 2pi/alat
        k(    1) = (   0.0000000   0.0000000   0.0000000), wk =   0.0027435
        k(    2) = (  -0.1111111   0.1111111  -0.1111111), wk =   0.0219479
        k(    3) = (  -0.2222222   0.2222222  -0.2222222), wk =   0.0219479
        k(    4) = (  -0.3333333   0.3333333  -0.3333333), wk =   0.0219479
        k(    5) = (  -0.4444444   0.4444444  -0.4444444), wk =   0.0219479
        k(    6) = (   0.0000000   0.2222222   0.0000000), wk =   0.0164609
        k(    7) = (  -0.1111111   0.3333333  -0.1111111), wk =   0.0658436
        k(    8) = (  -0.2222222   0.4444444  -0.2222222), wk =   0.0658436
        k(    9) = (  -0.3333333   0.5555556  -0.3333333), wk =   0.0658436
        k(   10) = (   0.5555556  -0.3333333   0.5555556), wk =   0.0658436
        k(   11) = (   0.4444444  -0.2222222   0.4444444), wk =   0.0658436
        k(   12) = (   0.3333333  -0.1111111   0.3333333), wk =   0.0658436
        k(   13) = (   0.2222222  -0.0000000   0.2222222), wk =   0.0329218
        k(   14) = (   0.0000000   0.4444444   0.0000000), wk =   0.0164609
        k(   15) = (  -0.1111111   0.5555556  -0.1111111), wk =   0.0658436
        k(   16) = (  -0.2222222   0.6666667  -0.2222222), wk =   0.0658436
        k(   17) = (   0.6666667  -0.2222222   0.6666667), wk =   0.0658436
        k(   18) = (   0.5555556  -0.1111111   0.5555556), wk =   0.0658436
        k(   19) = (   0.4444444   0.0000000   0.4444444), wk =   0.0329218
        k(   20) = (   0.0000000   0.6666667   0.0000000), wk =   0.0164609
        k(   21) = (  -0.1111111   0.7777778  -0.1111111), wk =   0.0658436
        k(   22) = (   0.7777778  -0.1111111   0.7777778), wk =   0.0658436
        k(   23) = (   0.6666667  -0.0000000   0.6666667), wk =   0.0329218
        k(   24) = (   0.0000000   0.8888889   0.0000000), wk =   0.0164609
        k(   25) = (   0.8888889   0.0000000   0.8888889), wk =   0.0329218
        k(   26) = (  -0.2222222   0.4444444   0.0000000), wk =   0.0658436
        k(   27) = (  -0.3333333   0.5555556  -0.1111111), wk =   0.1316872
        k(   28) = (   0.5555556  -0.3333333   0.7777778), wk =   0.1316872
        k(   29) = (  -0.2222222   0.6666667   0.0000000), wk =   0.0658436
        k(   30) = (   0.6666667  -0.2222222   0.8888889), wk =   0.1316872
        k(   31) = (   0.5555556  -0.1111111   0.7777778), wk =   0.1316872
        k(   32) = (   0.4444444   0.0000000   0.6666667), wk =   0.0658436
        k(   33) = (   0.7777778  -0.1111111   1.0000000), wk =   0.0658436
        k(   34) = (   0.6666667  -0.0000000   0.8888889), wk =   0.0658436
        k(   35) = (   0.5555556  -0.1111111   1.0000000), wk =   0.0658436

     Dense  grid:     3527 G-vectors     FFT dimensions: (  24,  24,  24)

     Estimated max dynamical RAM per process >       4.50 MB

     Estimated total dynamical RAM >      22.52 MB

     Check: negative/imaginary core charge=   -0.000020    0.000000

     Initial potential from superposition of free atoms

     starting charge   17.99975, renormalised to   18.00000
     Starting wfcs are   10 randomized atomic wfcs +    3 random wfcs
     Checking if some PAW data can be deallocated... 

     total cpu time spent up to now is        1.1 secs

     Self-consistent Calculation

     iteration #  1     ecut=    50.00 Ry     beta= 0.70
     Davidson diagonalization with overlap
     ethr =  1.00E-02,  avg # of iterations =  3.8

     Threshold (ethr) on eigenvalues was too large:
     Diagonalizing with lowered threshold

     Davidson diagonalization with overlap
     ethr =  1.96E-05,  avg # of iterations =  2.7

     total cpu time spent up to now is        1.8 secs

     total energy              =    -429.10874131 Ry
     Harris-Foulkes estimate   =    -429.11023420 Ry
     estimated scf accuracy    <       0.00355907 Ry

     iteration #  2     ecut=    50.00 Ry     beta= 0.70
     Davidson diagonalization with overlap
     ethr =  1.98E-05,  avg # of iterations =  2.1

     total cpu time spent up to now is        2.2 secs

     total energy              =    -429.10803653 Ry
     Harris-Foulkes estimate   =    -429.11087962 Ry
     estimated scf accuracy    <       0.00685353 Ry

     iteration #  3     ecut=    50.00 Ry     beta= 0.70
     Davidson diagonalization with overlap
     ethr =  1.98E-05,  avg # of iterations =  2.1

     total cpu time spent up to now is        2.6 secs

     total energy              =    -429.10953091 Ry
     Harris-Foulkes estimate   =    -429.10973354 Ry
     estimated scf accuracy    <       0.00064942 Ry

     iteration #  4     ecut=    50.00 Ry     beta= 0.70
     Davidson diagonalization with overlap
     ethr =  3.61E-06,  avg # of iterations =  1.5

     total cpu time spent up to now is        2.9 secs

     total energy              =    -429.10963112 Ry
     Harris-Foulkes estimate   =    -429.10963059 Ry
     estimated scf accuracy    <       0.00000107 Ry

     iteration #  5     ecut=    50.00 Ry     beta= 0.70
     Davidson diagonalization with overlap
     ethr =  5.94E-09,  avg # of iterations =  3.2

     total cpu time spent up to now is        3.4 secs

     total energy              =    -429.10963330 Ry
     Harris-Foulkes estimate   =    -429.10963339 Ry
     estimated scf accuracy    <       0.00000029 Ry

     iteration #  6     ecut=    50.00 Ry     beta= 0.70
     Davidson diagonalization with overlap
     ethr =  1.61E-09,  avg # of iterations =  1.0

     total cpu time spent up to now is        3.7 secs

     total energy              =    -429.10963330 Ry
     Harris-Foulkes estimate   =    -429.10963331 Ry
     estimated scf accuracy    <       0.00000003 Ry

     iteration #  7     ecut=    50.00 Ry     beta= 0.70
     Davidson diagonalization with overlap
     ethr =  1.90E-10,  avg # of iterations =  1.5

     total cpu time spent up to now is        4.0 secs

     End of self-consistent calculation

          k = 0.0000 0.0000 0.0000 (   459 PWs)   bands (ev):

   -85.3279 -45.5442 -45.5442 -45.5442   8.8751  15.9067  15.9067  15.9067
    17.0041  17.0041  41.4888  45.4377  45.4377

          k =-0.1111 0.1111-0.1111 (   429 PWs)   bands (ev):

   -85.3237 -45.5473 -45.5122 -45.5122   9.3721  15.7971  16.0245  16.0245
    16.9759  16.9759  39.2917  42.6908  44.5025

          k =-0.2222 0.2222-0.2222 (   435 PWs)   bands (ev):

   -85.3137 -45.6296 -45.5279 -45.5279  10.7077  15.5581  16.1359  16.1359
    17.0358  17.0358  33.7542  41.8576  43.4303

          k =-0.3333 0.3333-0.3333 (   437 PWs)   bands (ev):

   -85.3022 -45.7038 -45.5506 -45.5506  12.4056  15.7491  16.0164  16.0164
    17.3884  17.3884  28.5267  40.8266  42.8069

          k =-0.4444 0.4444-0.4444 (   428 PWs)   bands (ev):

   -85.2946 -45.7436 -45.5504 -45.5504  13.2635  15.8898  15.8898  17.1201
    17.7057  17.7057  24.5730  40.1030  42.5838

          k = 0.0000 0.2222 0.0000 (   443 PWs)   bands (ev):

   -85.3224 -45.5673 -45.5344 -45.5344   9.5207  15.6850  16.0960  16.0960
    16.7914  17.0922  40.3999  42.0509  42.0509

          k =-0.1111 0.3333-0.1111 (   447 PWs)   bands (ev):

   -85.3144 -45.6192 -45.5534 -45.5507  10.5684  15.4221  16.1998  16.2706
    16.7540  17.1965  35.9272  40.3382  40.6154

          k =-0.2222 0.4444-0.2222 (   441 PWs)   bands (ev):

   -85.3034 -45.6820 -45.5689 -45.5601  12.2051  15.3040  15.9641  16.2474
    17.3390  17.4810  30.4728  39.4413  39.5870

          k =-0.3333 0.5556-0.3333 (   439 PWs)   bands (ev):

   -85.2945 -45.7334 -45.5774 -45.5764  13.3903  15.6249  15.9868  16.1047
    17.7415  18.4475  25.8548  38.3381  39.4779

          k = 0.5556-0.3333 0.5556 (   444 PWs)   bands (ev):

   -85.2920 -45.7583 -45.5890 -45.5796  13.5874  15.6320  16.0345  16.3840
    17.6856  19.3428  24.0129  37.2165  40.5871

          k = 0.4444-0.2222 0.4444 (   439 PWs)   bands (ev):

   -85.2970 -45.7133 -45.5922 -45.5589  13.1419  15.6861  15.8149  16.1126
    17.3069  18.2855  27.2659  36.7282  41.8365

          k = 0.3333-0.1111 0.3333 (   439 PWs)   bands (ev):

   -85.3072 -45.6556 -45.5694 -45.5395  11.6476  15.3682  16.0399  16.2824
    16.8309  17.5692  32.2447  37.0123  43.7135

          k = 0.2222-0.0000 0.2222 (   447 PWs)   bands (ev):

   -85.3178 -45.6070 -45.5531 -45.5320  10.1291  15.5747  16.1258  16.1780
    16.7662  17.1432  37.4454  38.4179  44.7054

          k = 0.0000 0.4444 0.0000 (   443 PWs)   bands (ev):

   -85.3090 -45.6275 -45.5685 -45.5685  11.2584  15.1097  16.3923  16.6001
    16.6001  17.3032  38.0403  38.0403  38.9541

          k =-0.1111 0.5556-0.1111 (   445 PWs)   bands (ev):

   -85.3000 -45.6780 -45.5925 -45.5877  12.5304  14.8424  16.0695  16.7559
    17.3712  17.5275  33.0338  36.6786  36.8506

          k =-0.2222 0.6667-0.2222 (   438 PWs)   bands (ev):

   -85.2917 -45.7140 -45.5996 -45.5956  13.7184  14.8326  15.8179  16.6505
    17.7793  19.0062  28.0316  34.4985  36.4222

          k = 0.6667-0.2222 0.6667 (   443 PWs)   bands (ev):

   -85.2879 -45.7348 -45.6283 -45.5962  14.1793  14.9775  15.8065  16.5156
    17.7083  21.3452  24.3503  32.7061  37.3763

          k = 0.5556-0.1111 0.5556 (   439 PWs)   bands (ev):

   -85.2903 -45.7120 -45.6328 -45.5787  14.1278  15.2364  15.4943  16.4793
    17.3055  20.1006  26.5981  31.7369  39.4482

          k = 0.4444 0.0000 0.4444 (   441 PWs)   bands (ev):

   -85.2980 -45.6834 -45.6179 -45.5586  13.1141  15.1867  15.6913  16.5339
    16.8128  18.5088  30.9734  32.0562  42.3629

          k = 0.0000 0.6667 0.0000 (   444 PWs)   bands (ev):

   -85.2937 -45.6957 -45.6106 -45.6106  13.0806  14.4903  16.9070  17.3004
    17.3004  17.5402  33.5444  34.8105  34.8105

          k =-0.1111 0.7778-0.1111 (   443 PWs)   bands (ev):

   -85.2874 -45.7271 -45.6221 -45.6149  13.5945  14.3502  16.7658  17.3181
    17.7956  19.1333  30.6474  31.2334  34.1181

          k = 0.7778-0.1111 0.7778 (   440 PWs)   bands (ev):

   -85.2841 -45.7283 -45.6458 -45.6075  14.0714  14.4671  16.2542  17.1471
    17.7721  22.1288  26.5143  29.0753  34.7743

          k = 0.6667-0.0000 0.6667 (   443 PWs)   bands (ev):

   -85.2853 -45.6961 -45.6888 -45.5979  14.5435  14.6868  15.6584  16.8850
    17.4867  22.7806  25.4659  28.5706  36.6599

          k = 0.0000 0.8889 0.0000 (   452 PWs)   bands (ev):

   -85.2838 -45.7595 -45.6342 -45.6342  13.4601  14.1087  17.7012  17.8487
    17.8487  19.5306  28.3352  32.9375  32.9375

          k = 0.8889 0.0000 0.8889 (   446 PWs)   bands (ev):

   -85.2825 -45.7423 -45.6442 -45.6284  13.6286  14.1648  17.2810  17.5844
    17.8856  21.2661  27.3620  30.1815  33.1757

          k =-0.2222 0.4444 0.0000 (   439 PWs)   bands (ev):

   -85.3058 -45.6525 -45.5723 -45.5535  11.7886  15.1547  16.0102  16.6271
    16.7555  17.5901  34.3542  35.0583  40.7817

          k =-0.3333 0.5556-0.1111 (   437 PWs)   bands (ev):

   -85.2962 -45.6955 -45.6058 -45.5635  13.2953  15.0940  15.6613  16.5490
    17.2540  18.4972  29.3871  34.2372  38.1843

          k = 0.5556-0.3333 0.7778 (   436 PWs)   bands (ev):

   -85.2898 -45.7295 -45.6158 -45.5723  14.0149  15.2048  15.7432  16.4033
    17.6373  20.2527  25.0888  34.5226  36.2011

          k =-0.2222 0.6667 0.0000 (   443 PWs)   bands (ev):

   -85.2924 -45.7040 -45.6189 -45.5961  13.5003  14.6463  15.9417  17.2549
    17.3005  18.5966  31.8464  32.4735  34.3114

          k = 0.6667-0.2222 0.8889 (   442 PWs)   bands (ev):

   -85.2866 -45.7214 -45.6431 -45.6014  14.1852  14.6947  15.7054  17.0052
    17.6944  20.8429  27.4048  31.6436  32.6520

          k = 0.5556-0.1111 0.7778 (   431 PWs)   bands (ev):

   -85.2852 -45.7063 -45.6498 -45.5825  14.6477  14.6943  15.5057  16.8145
    17.6582  22.8988  24.8138  30.2303  33.6536

          k = 0.4444 0.0000 0.6667 (   433 PWs)   bands (ev):

   -85.2890 -45.6971 -45.6458 -45.5707  14.3533  15.0880  15.1725  16.8227
    17.3241  20.3024  28.3437  30.0552  35.6047

          k = 0.7778-0.1111 1.0000 (   442 PWs)   bands (ev):

   -85.2837 -45.7320 -45.6419 -45.6177  13.7951  14.3218  16.6521  17.4619
    17.8528  21.1351  28.5995  30.3273  31.2841

          k = 0.6667-0.0000 0.8889 (   435 PWs)   bands (ev):

   -85.2828 -45.7152 -45.6539 -45.6052  14.1651  14.5683  16.0363  17.1505
    17.8498  23.6235  26.4566  27.9819  31.8379

          k = 0.5556-0.1111 1.0000 (   438 PWs)   bands (ev):

   -85.2832 -45.6981 -45.6755 -45.6053  14.3901  14.9677  15.3653  16.9689
    17.8486  23.6350  26.7719  28.8289  30.0168

     the Fermi energy is    17.7557 ev

!    total energy              =    -429.10963331 Ry
     Harris-Foulkes estimate   =    -429.10963331 Ry
     estimated scf accuracy    <          1.0E-09 Ry

     total all-electron energy =     -3041.541741 Ry

     The total energy is the sum of the following terms:

     one-electron contribution =    -185.07365727 Ry
     hartree contribution      =     104.74521914 Ry
     xc contribution           =     -34.32451349 Ry
     ewald contribution        =    -223.38275374 Ry
     one-center paw contrib.   =     -91.07150578 Ry
     smearing contrib. (-TS)   =      -0.00242217 Ry

     convergence has been achieved in   7 iterations

     Forces acting on atoms (cartesian axes, Ry/au):

     atom    1 type  1   force =     0.00000000    0.00000000    0.00000000

     Total force =     0.000000     Total SCF correction =     0.000000


     Computing stress (Cartesian axis) and pressure

          total   stress  (Ry/bohr**3)                   (kbar)     P= -767.71
  -0.00521878  -0.00000000  -0.00000000       -767.71     -0.00     -0.00
  -0.00000000  -0.00521878   0.00000000         -0.00   -767.71      0.00
  -0.00000000   0.00000000  -0.00521878         -0.00      0.00   -767.71


     Writing output data file Ni.save/

     init_run     :      0.34s CPU      0.36s WALL (       1 calls)
     electrons    :      2.67s CPU      2.92s WALL (       1 calls)
     forces       :      0.02s CPU      0.02s WALL (       1 calls)
     stress       :      0.07s CPU      0.07s WALL (       1 calls)

     Called by init_run:
     wfcinit      :      0.08s CPU      0.09s WALL (       1 calls)
     potinit      :      0.11s CPU      0.12s WALL (       1 calls)
     hinit0       :      0.12s CPU      0.13s WALL (       1 calls)

     Called by electrons:
     c_bands      :      1.72s CPU      1.86s WALL (       8 calls)
     sum_band     :      0.31s CPU      0.33s WALL (       8 calls)
     v_of_rho     :      0.03s CPU      0.03s WALL (       8 calls)
     newd         :      0.03s CPU      0.03s WALL (       8 calls)
     PAW_pot      :      0.69s CPU      0.79s WALL (       8 calls)
     mix_rho      :      0.00s CPU      0.00s WALL (       8 calls)

     Called by c_bands:
     init_us_2    :      0.04s CPU      0.04s WALL (     665 calls)
     cegterg      :      1.66s CPU      1.79s WALL (     280 calls)

     Called by sum_band:
     sum_band:bec :      0.00s CPU      0.00s WALL (     280 calls)
     addusdens    :      0.03s CPU      0.03s WALL (       8 calls)

     Called by *egterg:
     h_psi        :      1.21s CPU      1.31s WALL (     938 calls)
     s_psi        :      0.03s CPU      0.04s WALL (     938 calls)
     g_psi        :      0.00s CPU      0.00s WALL (     623 calls)
     cdiaghg      :      0.27s CPU      0.29s WALL (     868 calls)

     Called by h_psi:
     h_psi:pot    :      1.20s CPU      1.31s WALL (     938 calls)
     h_psi:calbec :      0.05s CPU      0.05s WALL (     938 calls)
     vloc_psi     :      1.11s CPU      1.21s WALL (     938 calls)
     add_vuspsi   :      0.03s CPU      0.04s WALL (     938 calls)

     General routines
     calbec       :      0.08s CPU      0.08s WALL (    1393 calls)
     fft          :      0.02s CPU      0.02s WALL (     115 calls)
     ffts         :      0.00s CPU      0.00s WALL (       8 calls)
     fftw         :      1.24s CPU      1.34s WALL (   21904 calls)

     Parallel routines
     fft_scatt_xy :      0.12s CPU      0.13s WALL (   22027 calls)
     fft_scatt_yz :      0.34s CPU      0.37s WALL (   22027 calls)

     PWSCF        :     3.89s CPU         4.22s WALL


   This run was terminated on:  22:40:25  26Mar2024            

=------------------------------------------------------------------------------=
   JOB DONE.
=------------------------------------------------------------------------------=
