
     Program PWSCF v.6.3MaX starts on 26Mar2024 at 22:32:22 

     This program is part of the open-source Quantum ESPRESSO suite
     for quantum simulation of materials; please cite
         "P. Giannozzi et al., J. Phys.:Condens. Matter 21 395502 (2009);
         "P. Giannozzi et al., J. Phys.:Condens. Matter 29 465901 (2017);
          URL http://www.quantum-espresso.org", 
     in publications or presentations arising from this work. More details at
     http://www.quantum-espresso.org/quote

     Parallel version (MPI), running on     5 processors

     MPI processes distributed on     1 nodes
     R & G space division:  proc/nbgrp/npool/nimage =       5
     Waiting for input...
     Reading input from standard input

     Current dimensions of program PWSCF are:
     Max number of different atomic species (ntypx) = 10
     Max number of k-points (npk) =  40000
     Max angular momentum in pseudopotentials (lmaxx) =  3

     Subspace diagonalization in iterative solution of the eigenvalue problem:
     a serial algorithm will be used


     Parallelization info
     --------------------
     sticks:   dense  smooth     PW     G-vecs:    dense   smooth      PW
     Min          42      42     14                  416      416      82
     Max          43      43     15                  418      418      83
     Sum         211     211     73                 2085     2085     411



     bravais-lattice index     =            2
     lattice parameter (alat)  =       6.6500  a.u.
     unit-cell volume          =      73.5199 (a.u.)^3
     number of atoms/cell      =            1
     number of atomic types    =            1
     number of electrons       =        18.00
     number of Kohn-Sham states=           13
     kinetic-energy cutoff     =      35.0000  Ry
     charge density cutoff     =     140.0000  Ry
     convergence threshold     =      1.0E-08
     mixing beta               =       0.7000
     number of iterations used =            8  plain     mixing
     Exchange-correlation      = PBESOL ( 1  4 10  8 0 0)

     celldm(1)=   6.650000  celldm(2)=   0.000000  celldm(3)=   0.000000
     celldm(4)=   0.000000  celldm(5)=   0.000000  celldm(6)=   0.000000

     crystal axes: (cart. coord. in units of alat)
               a(1) = (  -0.500000   0.000000   0.500000 )  
               a(2) = (   0.000000   0.500000   0.500000 )  
               a(3) = (  -0.500000   0.500000   0.000000 )  

     reciprocal axes: (cart. coord. in units 2 pi/alat)
               b(1) = ( -1.000000 -1.000000  1.000000 )  
               b(2) = (  1.000000  1.000000  1.000000 )  
               b(3) = ( -1.000000  1.000000 -1.000000 )  


     PseudoPot. # 1 for Ni read from file:
     /home/lorenzo/pseudos/Ni/Ni.pbesol-spn-rrkjus_psl.1.0.0.UPF
     MD5 check sum: 6fc0a587bf949a08f2faed986b854013
     Pseudo is Ultrasoft + core correction, Zval = 18.0
     Generated using "atomic" code by A. Dal Corso v.6.3
     Using radial grid of 1195 points,  6 beta functions with: 
                l(1) =   0
                l(2) =   0
                l(3) =   1
                l(4) =   1
                l(5) =   2
                l(6) =   2
     Q(r) pseudized with 0 coefficients 


     atomic species   valence    mass     pseudopotential
        Ni            18.00    58.69340     Ni( 1.00)

     48 Sym. Ops., with inversion, found



   Cartesian axes

     site n.     atom                  positions (alat units)
         1           Ni  tau(   1) = (   0.0000000   0.0000000   0.0000000  )

     number of k points=     3  gaussian smearing, width (Ry)=  0.0100
                       cart. coord. in units 2pi/alat
        k(    1) = (   0.0000000   0.0000000   0.0000000), wk =   0.2500000
        k(    2) = (   0.5000000  -0.5000000   0.5000000), wk =   1.0000000
        k(    3) = (   0.0000000  -1.0000000   0.0000000), wk =   0.7500000

     Dense  grid:     2085 G-vectors     FFT dimensions: (  18,  18,  18)

     Estimated max dynamical RAM per process >       2.60 MB

     Estimated total dynamical RAM >      13.01 MB

     Check: negative/imaginary core charge=   -0.000037    0.000000

     Initial potential from superposition of free atoms

     starting charge   17.99977, renormalised to   18.00000
     Starting wfcs are   10 randomized atomic wfcs +    3 random wfcs

     total cpu time spent up to now is        0.8 secs

     Self-consistent Calculation

     iteration #  1     ecut=    35.00 Ry     beta= 0.70
     Davidson diagonalization with overlap
     ethr =  1.00E-02,  avg # of iterations =  5.3

     total cpu time spent up to now is        0.9 secs

     total energy              =    -337.75000427 Ry
     Harris-Foulkes estimate   =    -337.87332418 Ry
     estimated scf accuracy    <       0.18555483 Ry

     iteration #  2     ecut=    35.00 Ry     beta= 0.70
     Davidson diagonalization with overlap
     ethr =  1.03E-03,  avg # of iterations =  2.0

     total cpu time spent up to now is        0.9 secs

     total energy              =    -337.64060347 Ry
     Harris-Foulkes estimate   =    -338.00281809 Ry
     estimated scf accuracy    <       1.30035601 Ry

     iteration #  3     ecut=    35.00 Ry     beta= 0.70
     Davidson diagonalization with overlap
     ethr =  1.03E-03,  avg # of iterations =  2.0

     total cpu time spent up to now is        0.9 secs

     total energy              =    -337.82061231 Ry
     Harris-Foulkes estimate   =    -337.82759710 Ry
     estimated scf accuracy    <       0.03136378 Ry

     iteration #  4     ecut=    35.00 Ry     beta= 0.70
     Davidson diagonalization with overlap
     ethr =  1.74E-04,  avg # of iterations =  2.3

     total cpu time spent up to now is        0.9 secs

     total energy              =    -337.81978897 Ry
     Harris-Foulkes estimate   =    -337.82239939 Ry
     estimated scf accuracy    <       0.00720319 Ry

     iteration #  5     ecut=    35.00 Ry     beta= 0.70
     Davidson diagonalization with overlap
     ethr =  4.00E-05,  avg # of iterations =  2.0

     total cpu time spent up to now is        1.0 secs

     total energy              =    -337.82058559 Ry
     Harris-Foulkes estimate   =    -337.82064513 Ry
     estimated scf accuracy    <       0.00026322 Ry

     iteration #  6     ecut=    35.00 Ry     beta= 0.70
     Davidson diagonalization with overlap
     ethr =  1.46E-06,  avg # of iterations =  2.3

     total cpu time spent up to now is        1.0 secs

     total energy              =    -337.82056487 Ry
     Harris-Foulkes estimate   =    -337.82060091 Ry
     estimated scf accuracy    <       0.00008010 Ry

     iteration #  7     ecut=    35.00 Ry     beta= 0.70
     Davidson diagonalization with overlap
     ethr =  4.45E-07,  avg # of iterations =  2.0

     total cpu time spent up to now is        1.0 secs

     total energy              =    -337.82058028 Ry
     Harris-Foulkes estimate   =    -337.82058034 Ry
     estimated scf accuracy    <       0.00000016 Ry

     iteration #  8     ecut=    35.00 Ry     beta= 0.70
     Davidson diagonalization with overlap
     ethr =  8.74E-10,  avg # of iterations =  3.0

     total cpu time spent up to now is        1.1 secs

     total energy              =    -337.82058030 Ry
     Harris-Foulkes estimate   =    -337.82058036 Ry
     estimated scf accuracy    <       0.00000020 Ry

     iteration #  9     ecut=    35.00 Ry     beta= 0.70
     Davidson diagonalization with overlap
     ethr =  8.74E-10,  avg # of iterations =  2.0

     total cpu time spent up to now is        1.1 secs

     total energy              =    -337.82058031 Ry
     Harris-Foulkes estimate   =    -337.82058032 Ry
     estimated scf accuracy    <       0.00000001 Ry

     iteration # 10     ecut=    35.00 Ry     beta= 0.70
     Davidson diagonalization with overlap
     ethr =  8.18E-11,  avg # of iterations =  2.0

     total cpu time spent up to now is        1.1 secs

     End of self-consistent calculation

          k = 0.0000 0.0000 0.0000 (   259 PWs)   bands (ev):

   -86.5683 -45.1493 -45.1493 -45.1493   8.9105  15.5383  15.5383  15.5383
    17.1531  17.1531  41.2569  45.2645  45.2645

          k = 0.5000-0.5000 0.5000 (   266 PWs)   bands (ev):

   -86.5542 -45.6941 -45.6941 -45.2183  13.0282  15.2828  15.2828  17.3279
    17.5254  17.5254  23.7551  39.8677  42.2366

          k = 0.0000-1.0000 0.0000 (   254 PWs)   bands (ev):

   -86.5262 -45.2611 -45.1342 -45.1342  13.2635  13.7828  17.7743  18.0067
    18.0067  20.0149  27.0457  32.4340  32.4340

     the Fermi energy is    17.9244 ev

!    total energy              =    -337.82058031 Ry
     Harris-Foulkes estimate   =    -337.82058031 Ry
     estimated scf accuracy    <          9.5E-10 Ry

     The total energy is the sum of the following terms:

     one-electron contribution =    -183.62341504 Ry
     hartree contribution      =     103.01210701 Ry
     xc contribution           =     -33.82295509 Ry
     ewald contribution        =    -223.38275373 Ry
     smearing contrib. (-TS)   =      -0.00356346 Ry

     convergence has been achieved in  10 iterations

     Forces acting on atoms (cartesian axes, Ry/au):

     atom    1 type  1   force =     0.00000000    0.00000000    0.00000000

     Total force =     0.000000     Total SCF correction =     0.000000


     Computing stress (Cartesian axis) and pressure

          total   stress  (Ry/bohr**3)                   (kbar)     P=********
  -0.09369711  -0.00000000   0.00000000     -13783.32     -0.00      0.00
  -0.00000000  -0.09369711   0.00000000         -0.00 -13783.32      0.00
   0.00000000   0.00000000  -0.09369711          0.00      0.00 -13783.32


     Writing output data file Ni.save/

     init_run     :      0.12s CPU      0.12s WALL (       1 calls)
     electrons    :      0.27s CPU      0.29s WALL (       1 calls)
     forces       :      0.01s CPU      0.01s WALL (       1 calls)
     stress       :      0.04s CPU      0.04s WALL (       1 calls)

     Called by init_run:
     wfcinit      :      0.01s CPU      0.01s WALL (       1 calls)
     potinit      :      0.00s CPU      0.00s WALL (       1 calls)
     hinit0       :      0.10s CPU      0.10s WALL (       1 calls)

     Called by electrons:
     c_bands      :      0.17s CPU      0.19s WALL (      10 calls)
     sum_band     :      0.06s CPU      0.06s WALL (      10 calls)
     v_of_rho     :      0.02s CPU      0.02s WALL (      11 calls)
     newd         :      0.03s CPU      0.03s WALL (      11 calls)
     mix_rho      :      0.00s CPU      0.00s WALL (      10 calls)

     Called by c_bands:
     init_us_2    :      0.00s CPU      0.00s WALL (      69 calls)
     cegterg      :      0.16s CPU      0.18s WALL (      30 calls)

     Called by sum_band:
     sum_band:bec :      0.00s CPU      0.00s WALL (      30 calls)
     addusdens    :      0.02s CPU      0.02s WALL (      10 calls)

     Called by *egterg:
     h_psi        :      0.10s CPU      0.11s WALL (     108 calls)
     s_psi        :      0.00s CPU      0.00s WALL (     108 calls)
     g_psi        :      0.00s CPU      0.00s WALL (      75 calls)
     cdiaghg      :      0.04s CPU      0.04s WALL (     105 calls)

     Called by h_psi:
     h_psi:pot    :      0.10s CPU      0.11s WALL (     108 calls)
     h_psi:calbec :      0.01s CPU      0.01s WALL (     108 calls)
     vloc_psi     :      0.09s CPU      0.10s WALL (     108 calls)
     add_vuspsi   :      0.00s CPU      0.00s WALL (     108 calls)

     General routines
     calbec       :      0.01s CPU      0.01s WALL (     153 calls)
     fft          :      0.01s CPU      0.01s WALL (     147 calls)
     ffts         :      0.00s CPU      0.00s WALL (      10 calls)
     fftw         :      0.11s CPU      0.12s WALL (    2346 calls)

     Parallel routines
     fft_scatt_xy :      0.01s CPU      0.01s WALL (    2503 calls)
     fft_scatt_yz :      0.05s CPU      0.06s WALL (    2503 calls)

     PWSCF        :     1.15s CPU         1.20s WALL


   This run was terminated on:  22:32:23  26Mar2024            

=------------------------------------------------------------------------------=
   JOB DONE.
=------------------------------------------------------------------------------=
