
     Program PWSCF v.6.3MaX starts on 26Mar2024 at 22:48: 1 

     This program is part of the open-source Quantum ESPRESSO suite
     for quantum simulation of materials; please cite
         "P. Giannozzi et al., J. Phys.:Condens. Matter 21 395502 (2009);
         "P. Giannozzi et al., J. Phys.:Condens. Matter 29 465901 (2017);
          URL http://www.quantum-espresso.org", 
     in publications or presentations arising from this work. More details at
     http://www.quantum-espresso.org/quote

     Parallel version (MPI), running on     5 processors

     MPI processes distributed on     1 nodes
     R & G space division:  proc/nbgrp/npool/nimage =       5
     Waiting for input...
     Reading input from standard input

     Current dimensions of program PWSCF are:
     Max number of different atomic species (ntypx) = 10
     Max number of k-points (npk) =  40000
     Max angular momentum in pseudopotentials (lmaxx) =  3
               file Ni.pbe-spn-kjpaw_psl.1.0.0.UPF: wavefunction(s)  3P 3D renormalized

     Subspace diagonalization in iterative solution of the eigenvalue problem:
     a serial algorithm will be used


     Parallelization info
     --------------------
     sticks:   dense  smooth     PW     G-vecs:    dense   smooth      PW
     Min          79      79     25                 1032     1032     192
     Max          80      80     26                 1033     1033     195
     Sum         397     397    127                 5161     5161     965



     bravais-lattice index     =            2
     lattice parameter (alat)  =       6.6500  a.u.
     unit-cell volume          =      73.5199 (a.u.)^3
     number of atoms/cell      =            1
     number of atomic types    =            1
     number of electrons       =        18.00
     number of Kohn-Sham states=           13
     kinetic-energy cutoff     =      65.0000  Ry
     charge density cutoff     =     260.0000  Ry
     convergence threshold     =      1.0E-08
     mixing beta               =       0.7000
     number of iterations used =            8  plain     mixing
     Exchange-correlation      = SLA PW PBX PBC ( 1  4  3  4 0 0)

     celldm(1)=   6.650000  celldm(2)=   0.000000  celldm(3)=   0.000000
     celldm(4)=   0.000000  celldm(5)=   0.000000  celldm(6)=   0.000000

     crystal axes: (cart. coord. in units of alat)
               a(1) = (  -0.500000   0.000000   0.500000 )  
               a(2) = (   0.000000   0.500000   0.500000 )  
               a(3) = (  -0.500000   0.500000   0.000000 )  

     reciprocal axes: (cart. coord. in units 2 pi/alat)
               b(1) = ( -1.000000 -1.000000  1.000000 )  
               b(2) = (  1.000000  1.000000  1.000000 )  
               b(3) = ( -1.000000  1.000000 -1.000000 )  


     PseudoPot. # 1 for Ni read from file:
     /home/lorenzo/pseudos/Ni/Ni.pbe-spn-kjpaw_psl.1.0.0.UPF
     MD5 check sum: 6e86b733589c3ad8389697b807d86aa7
     Pseudo is Projector augmented-wave + core cor, Zval = 18.0
     Generated using "atomic" code by A. Dal Corso v.6.3
     Shape of augmentation charge: PSQ
     Using radial grid of 1195 points,  6 beta functions with: 
                l(1) =   0
                l(2) =   0
                l(3) =   1
                l(4) =   1
                l(5) =   2
                l(6) =   2
     Q(r) pseudized with 0 coefficients 


     atomic species   valence    mass     pseudopotential
        Ni            18.00    58.69340     Ni( 1.00)

     48 Sym. Ops., with inversion, found



   Cartesian axes

     site n.     atom                  positions (alat units)
         1           Ni  tau(   1) = (   0.0000000   0.0000000   0.0000000  )

     number of k points=    35  gaussian smearing, width (Ry)=  0.0100
                       cart. coord. in units 2pi/alat
        k(    1) = (   0.0000000   0.0000000   0.0000000), wk =   0.0027435
        k(    2) = (  -0.1111111   0.1111111  -0.1111111), wk =   0.0219479
        k(    3) = (  -0.2222222   0.2222222  -0.2222222), wk =   0.0219479
        k(    4) = (  -0.3333333   0.3333333  -0.3333333), wk =   0.0219479
        k(    5) = (  -0.4444444   0.4444444  -0.4444444), wk =   0.0219479
        k(    6) = (   0.0000000   0.2222222   0.0000000), wk =   0.0164609
        k(    7) = (  -0.1111111   0.3333333  -0.1111111), wk =   0.0658436
        k(    8) = (  -0.2222222   0.4444444  -0.2222222), wk =   0.0658436
        k(    9) = (  -0.3333333   0.5555556  -0.3333333), wk =   0.0658436
        k(   10) = (   0.5555556  -0.3333333   0.5555556), wk =   0.0658436
        k(   11) = (   0.4444444  -0.2222222   0.4444444), wk =   0.0658436
        k(   12) = (   0.3333333  -0.1111111   0.3333333), wk =   0.0658436
        k(   13) = (   0.2222222  -0.0000000   0.2222222), wk =   0.0329218
        k(   14) = (   0.0000000   0.4444444   0.0000000), wk =   0.0164609
        k(   15) = (  -0.1111111   0.5555556  -0.1111111), wk =   0.0658436
        k(   16) = (  -0.2222222   0.6666667  -0.2222222), wk =   0.0658436
        k(   17) = (   0.6666667  -0.2222222   0.6666667), wk =   0.0658436
        k(   18) = (   0.5555556  -0.1111111   0.5555556), wk =   0.0658436
        k(   19) = (   0.4444444   0.0000000   0.4444444), wk =   0.0329218
        k(   20) = (   0.0000000   0.6666667   0.0000000), wk =   0.0164609
        k(   21) = (  -0.1111111   0.7777778  -0.1111111), wk =   0.0658436
        k(   22) = (   0.7777778  -0.1111111   0.7777778), wk =   0.0658436
        k(   23) = (   0.6666667  -0.0000000   0.6666667), wk =   0.0329218
        k(   24) = (   0.0000000   0.8888889   0.0000000), wk =   0.0164609
        k(   25) = (   0.8888889   0.0000000   0.8888889), wk =   0.0329218
        k(   26) = (  -0.2222222   0.4444444   0.0000000), wk =   0.0658436
        k(   27) = (  -0.3333333   0.5555556  -0.1111111), wk =   0.1316872
        k(   28) = (   0.5555556  -0.3333333   0.7777778), wk =   0.1316872
        k(   29) = (  -0.2222222   0.6666667   0.0000000), wk =   0.0658436
        k(   30) = (   0.6666667  -0.2222222   0.8888889), wk =   0.1316872
        k(   31) = (   0.5555556  -0.1111111   0.7777778), wk =   0.1316872
        k(   32) = (   0.4444444   0.0000000   0.6666667), wk =   0.0658436
        k(   33) = (   0.7777778  -0.1111111   1.0000000), wk =   0.0658436
        k(   34) = (   0.6666667  -0.0000000   0.8888889), wk =   0.0658436
        k(   35) = (   0.5555556  -0.1111111   1.0000000), wk =   0.0658436

     Dense  grid:     5161 G-vectors     FFT dimensions: (  25,  25,  25)

     Estimated max dynamical RAM per process >       6.14 MB

     Estimated total dynamical RAM >      30.71 MB

     Check: negative/imaginary core charge=   -0.000011    0.000000

     Initial potential from superposition of free atoms

     starting charge   17.99975, renormalised to   18.00000
     Starting wfcs are   10 randomized atomic wfcs +    3 random wfcs
     Checking if some PAW data can be deallocated... 

     total cpu time spent up to now is        1.2 secs

     Self-consistent Calculation

     iteration #  1     ecut=    65.00 Ry     beta= 0.70
     Davidson diagonalization with overlap
     ethr =  1.00E-02,  avg # of iterations =  3.5

     Threshold (ethr) on eigenvalues was too large:
     Diagonalizing with lowered threshold

     Davidson diagonalization with overlap
     ethr =  1.85E-05,  avg # of iterations =  3.0

     total cpu time spent up to now is        2.1 secs

     total energy              =    -429.14617852 Ry
     Harris-Foulkes estimate   =    -429.14792115 Ry
     estimated scf accuracy    <       0.00337296 Ry

     iteration #  2     ecut=    65.00 Ry     beta= 0.70
     Davidson diagonalization with overlap
     ethr =  1.87E-05,  avg # of iterations =  2.3

     total cpu time spent up to now is        2.6 secs

     total energy              =    -429.14547280 Ry
     Harris-Foulkes estimate   =    -429.14941219 Ry
     estimated scf accuracy    <       0.01052769 Ry

     iteration #  3     ecut=    65.00 Ry     beta= 0.70
     Davidson diagonalization with overlap
     ethr =  1.87E-05,  avg # of iterations =  2.1

     total cpu time spent up to now is        3.0 secs

     total energy              =    -429.14740930 Ry
     Harris-Foulkes estimate   =    -429.14746204 Ry
     estimated scf accuracy    <       0.00021031 Ry

     iteration #  4     ecut=    65.00 Ry     beta= 0.70
     Davidson diagonalization with overlap
     ethr =  1.17E-06,  avg # of iterations =  1.5

     total cpu time spent up to now is        3.4 secs

     total energy              =    -429.14743894 Ry
     Harris-Foulkes estimate   =    -429.14743873 Ry
     estimated scf accuracy    <       0.00000029 Ry

     iteration #  5     ecut=    65.00 Ry     beta= 0.70
     Davidson diagonalization with overlap
     ethr =  1.58E-09,  avg # of iterations =  3.5

     total cpu time spent up to now is        4.1 secs

     total energy              =    -429.14743964 Ry
     Harris-Foulkes estimate   =    -429.14743967 Ry
     estimated scf accuracy    <       0.00000008 Ry

     iteration #  6     ecut=    65.00 Ry     beta= 0.70
     Davidson diagonalization with overlap
     ethr =  4.72E-10,  avg # of iterations =  1.0

     total cpu time spent up to now is        4.5 secs

     End of self-consistent calculation

          k = 0.0000 0.0000 0.0000 (   645 PWs)   bands (ev):

   -85.3227 -45.5741 -45.5741 -45.5741   8.8266  15.8960  15.8960  15.8960
    17.0029  17.0029  41.4878  45.4390  45.4390

          k =-0.1111 0.1111-0.1111 (   643 PWs)   bands (ev):

   -85.3187 -45.6002 -45.5778 -45.5778   9.3062  15.7698  15.9962  15.9962
    16.9654  16.9654  39.2905  42.6756  44.5092

          k =-0.2222 0.2222-0.2222 (   643 PWs)   bands (ev):

   -85.3087 -45.6657 -45.5873 -45.5873  10.6485  15.5382  16.1104  16.1104
    17.0307  17.0307  33.7397  41.8405  43.4404

          k =-0.3333 0.3333-0.3333 (   646 PWs)   bands (ev):

   -85.2974 -45.7400 -45.5981 -45.5981  12.3581  15.7320  15.9999  15.9999
    17.3846  17.3846  28.4933  40.8142  42.8182

          k =-0.4444 0.4444-0.4444 (   640 PWs)   bands (ev):

   -85.2898 -45.7881 -45.6051 -45.6051  13.2205  15.8690  15.8690  17.1155
    17.7000  17.7000  24.5094  40.0931  42.5946

          k = 0.0000 0.2222 0.0000 (   637 PWs)   bands (ev):

   -85.3172 -45.5994 -45.5838 -45.5838   9.4648  15.6621  16.0781  16.0781
    16.7930  17.0860  40.4036  42.0591  42.0591

          k =-0.1111 0.3333-0.1111 (   644 PWs)   bands (ev):

   -85.3095 -45.6480 -45.5949 -45.5913  10.5181  15.4063  16.1900  16.2561
    16.7476  17.1943  35.9221  40.3473  40.6045

          k =-0.2222 0.4444-0.2222 (   641 PWs)   bands (ev):

   -85.2985 -45.7165 -45.6061 -45.6034  12.1615  15.2899  15.9519  16.2374
    17.3256  17.4804  30.4506  39.4516  39.5841

          k =-0.3333 0.5556-0.3333 (   647 PWs)   bands (ev):

   -85.2899 -45.7706 -45.6166 -45.6120  13.3592  15.6162  15.9733  16.0953
    17.7387  18.4401  25.8084  38.3390  39.4893

          k = 0.5556-0.3333 0.5556 (   653 PWs)   bands (ev):

   -85.2876 -45.7855 -45.6245 -45.6099  13.5639  15.6243  16.0248  16.3796
    17.6834  19.3434  23.9592  37.2127  40.5996

          k = 0.4444-0.2222 0.4444 (   642 PWs)   bands (ev):

   -85.2922 -45.7548 -45.6229 -45.6009  13.1091  15.6749  15.8050  16.1014
    17.2978  18.2781  27.2279  36.7211  41.8257

          k = 0.3333-0.1111 0.3333 (   643 PWs)   bands (ev):

   -85.3023 -45.6935 -45.6118 -45.5890  11.5978  15.3553  16.0271  16.2671
    16.8181  17.5607  32.2275  37.0019  43.7101

          k = 0.2222-0.0000 0.2222 (   654 PWs)   bands (ev):

   -85.3131 -45.6323 -45.5941 -45.5799  10.0763  15.5647  16.1099  16.1581
    16.7643  17.1393  37.4533  38.3970  44.7061

          k = 0.0000 0.4444 0.0000 (   645 PWs)   bands (ev):

   -85.3042 -45.6623 -45.6083 -45.6083  11.2110  15.0922  16.3816  16.5910
    16.5910  17.2983  38.0486  38.0486  38.9625

          k =-0.1111 0.5556-0.1111 (   646 PWs)   bands (ev):

   -85.2953 -45.7085 -45.6234 -45.6211  12.4946  14.8299  16.0623  16.7491
    17.3581  17.5282  33.0273  36.6873  36.8527

          k =-0.2222 0.6667-0.2222 (   651 PWs)   bands (ev):

   -85.2872 -45.7500 -45.6447 -45.6274  13.6938  14.8166  15.8036  16.6415
    17.7779  18.9941  28.0021  34.4854  36.4320

          k = 0.6667-0.2222 0.6667 (   646 PWs)   bands (ev):

   -85.2832 -45.7645 -45.6652 -45.6243  14.1633  14.9709  15.7970  16.5094
    17.7041  21.3482  24.3005  32.6843  37.3881

          k = 0.5556-0.1111 0.5556 (   659 PWs)   bands (ev):

   -85.2861 -45.7493 -45.6712 -45.6131  14.1054  15.2323  15.4810  16.4713
    17.2944  20.0844  26.5711  31.7051  39.4620

          k = 0.4444 0.0000 0.4444 (   646 PWs)   bands (ev):

   -85.2933 -45.7216 -45.6499 -45.5992  13.0792  15.1753  15.6864  16.5233
    16.7978  18.4980  30.9829  32.0073  42.3796

          k = 0.0000 0.6667 0.0000 (   644 PWs)   bands (ev):

   -85.2891 -45.7321 -45.6361 -45.6361  13.0580  14.4803  16.8901  17.2924
    17.2924  17.5450  33.5361  34.8186  34.8186

          k =-0.1111 0.7778-0.1111 (   654 PWs)   bands (ev):

   -85.2831 -45.7570 -45.6550 -45.6441  13.5788  14.3395  16.7527  17.3109
    17.7965  19.1242  30.6526  31.1913  34.1260

          k = 0.7778-0.1111 0.7778 (   652 PWs)   bands (ev):

   -85.2797 -45.7555 -45.6873 -45.6414  14.0590  14.4534  16.2457  17.1405
    17.7675  22.1267  26.4958  29.0221  34.7837

          k = 0.6667-0.0000 0.6667 (   650 PWs)   bands (ev):

   -85.2808 -45.7236 -45.7226 -45.6291  14.5322  14.6813  15.6504  16.8845
    17.4731  22.7657  25.4737  28.5015  36.6718

          k = 0.0000 0.8889 0.0000 (   652 PWs)   bands (ev):

   -85.2795 -45.7768 -45.6543 -45.6543  13.4506  14.0994  17.7092  17.8468
    17.8468  19.5301  28.3010  32.9449  32.9449

          k = 0.8889 0.0000 0.8889 (   648 PWs)   bands (ev):

   -85.2780 -45.7753 -45.6680 -45.6532  13.6182  14.1523  17.2765  17.5928
    17.8779  21.2721  27.3116  30.1655  33.1837

          k =-0.2222 0.4444 0.0000 (   641 PWs)   bands (ev):

   -85.3010 -45.6869 -45.6201 -45.5981  11.7408  15.1409  16.0002  16.6069
    16.7463  17.5833  34.3635  35.0298  40.7797

          k =-0.3333 0.5556-0.1111 (   646 PWs)   bands (ev):

   -85.2915 -45.7341 -45.6417 -45.6094  13.2602  15.0792  15.6498  16.5380
    17.2452  18.4862  29.3642  34.2250  38.1690

          k = 0.5556-0.3333 0.7778 (   651 PWs)   bands (ev):

   -85.2854 -45.7662 -45.6520 -45.6192  13.9887  15.1968  15.7314  16.3897
    17.6307  20.2465  25.0415  34.5201  36.1716

          k =-0.2222 0.6667 0.0000 (   652 PWs)   bands (ev):

   -85.2880 -45.7365 -45.6496 -45.6297  13.4758  14.6332  15.9321  17.2551
    17.2898  18.5863  31.8555  32.4594  34.2743

          k = 0.6667-0.2222 0.8889 (   659 PWs)   bands (ev):

   -85.2824 -45.7503 -45.6757 -45.6382  14.1716  14.6800  15.6944  17.0007
    17.6896  20.8328  27.3846  31.6391  32.6042

          k = 0.5556-0.1111 0.7778 (   658 PWs)   bands (ev):

   -85.2810 -45.7433 -45.6969 -45.6352  14.6270  14.6827  15.4884  16.8031
    17.6471  22.8938  24.7794  30.1892  33.6225

          k = 0.4444 0.0000 0.6667 (   654 PWs)   bands (ev):

   -85.2847 -45.7379 -45.6838 -45.6225  14.3311  15.0707  15.1580  16.8133
    17.3120  20.2838  28.3516  29.9942  35.5805

          k = 0.7778-0.1111 1.0000 (   656 PWs)   bands (ev):

   -85.2794 -45.7646 -45.6689 -45.6539  13.7840  14.3091  16.6415  17.4637
    17.8458  21.1296  28.5670  30.3357  31.2367

          k = 0.6667-0.0000 0.8889 (   660 PWs)   bands (ev):

   -85.2786 -45.7480 -45.6965 -45.6506  14.1528  14.5477  16.0241  17.1458
    17.8427  23.6290  26.4557  27.9038  31.8064

          k = 0.5556-0.1111 1.0000 (   658 PWs)   bands (ev):

   -85.2790 -45.7333 -45.7060 -45.6524  14.3821  14.9509  15.3511  16.9608
    17.8433  23.6267  26.7788  28.8162  29.9221

     the Fermi energy is    17.7513 ev

!    total energy              =    -429.14743964 Ry
     Harris-Foulkes estimate   =    -429.14743965 Ry
     estimated scf accuracy    <          8.9E-09 Ry

     total all-electron energy =     -3041.579547 Ry

     The total energy is the sum of the following terms:

     one-electron contribution =    -185.11363664 Ry
     hartree contribution      =     104.76126545 Ry
     xc contribution           =     -34.31944484 Ry
     ewald contribution        =    -223.38275369 Ry
     one-center paw contrib.   =     -91.09045871 Ry
     smearing contrib. (-TS)   =      -0.00241122 Ry

     convergence has been achieved in   6 iterations

     Forces acting on atoms (cartesian axes, Ry/au):

     atom    1 type  1   force =     0.00000000    0.00000000    0.00000000

     Total force =     0.000000     Total SCF correction =     0.000000


     Computing stress (Cartesian axis) and pressure

          total   stress  (Ry/bohr**3)                   (kbar)     P=  -34.67
  -0.00023566   0.00000000   0.00000000        -34.67      0.00      0.00
   0.00000000  -0.00023566  -0.00000000          0.00    -34.67     -0.00
   0.00000000  -0.00000000  -0.00023566          0.00     -0.00    -34.67


     Writing output data file Ni.save/

     init_run     :      0.41s CPU      0.45s WALL (       1 calls)
     electrons    :      3.11s CPU      3.32s WALL (       1 calls)
     forces       :      0.03s CPU      0.03s WALL (       1 calls)
     stress       :      0.10s CPU      0.10s WALL (       1 calls)

     Called by init_run:
     wfcinit      :      0.12s CPU      0.13s WALL (       1 calls)
     potinit      :      0.12s CPU      0.14s WALL (       1 calls)
     hinit0       :      0.15s CPU      0.15s WALL (       1 calls)

     Called by electrons:
     c_bands      :      2.13s CPU      2.24s WALL (       7 calls)
     sum_band     :      0.37s CPU      0.39s WALL (       7 calls)
     v_of_rho     :      0.02s CPU      0.02s WALL (       7 calls)
     newd         :      0.04s CPU      0.04s WALL (       7 calls)
     PAW_pot      :      0.66s CPU      0.75s WALL (       7 calls)
     mix_rho      :      0.00s CPU      0.00s WALL (       7 calls)

     Called by c_bands:
     init_us_2    :      0.05s CPU      0.05s WALL (     595 calls)
     cegterg      :      2.06s CPU      2.16s WALL (     245 calls)

     Called by sum_band:
     sum_band:bec :      0.00s CPU      0.00s WALL (     245 calls)
     addusdens    :      0.04s CPU      0.04s WALL (       7 calls)

     Called by *egterg:
     h_psi        :      1.54s CPU      1.63s WALL (     873 calls)
     s_psi        :      0.04s CPU      0.05s WALL (     873 calls)
     g_psi        :      0.00s CPU      0.00s WALL (     593 calls)
     cdiaghg      :      0.29s CPU      0.30s WALL (     803 calls)

     Called by h_psi:
     h_psi:pot    :      1.54s CPU      1.62s WALL (     873 calls)
     h_psi:calbec :      0.06s CPU      0.07s WALL (     873 calls)
     vloc_psi     :      1.42s CPU      1.49s WALL (     873 calls)
     add_vuspsi   :      0.05s CPU      0.05s WALL (     873 calls)

     General routines
     calbec       :      0.10s CPU      0.11s WALL (    1293 calls)
     fft          :      0.02s CPU      0.02s WALL (     104 calls)
     ffts         :      0.00s CPU      0.00s WALL (       7 calls)
     fftw         :      1.58s CPU      1.67s WALL (   19889 calls)

     Parallel routines
     fft_scatt_xy :      0.13s CPU      0.13s WALL (   20000 calls)
     fft_scatt_yz :      0.44s CPU      0.46s WALL (   20000 calls)

     PWSCF        :     4.45s CPU         4.76s WALL


   This run was terminated on:  22:48: 6  26Mar2024            

=------------------------------------------------------------------------------=
   JOB DONE.
=------------------------------------------------------------------------------=
