
     Program PWSCF v.6.3MaX starts on 26Mar2024 at 22:52: 3 

     This program is part of the open-source Quantum ESPRESSO suite
     for quantum simulation of materials; please cite
         "P. Giannozzi et al., J. Phys.:Condens. Matter 21 395502 (2009);
         "P. Giannozzi et al., J. Phys.:Condens. Matter 29 465901 (2017);
          URL http://www.quantum-espresso.org", 
     in publications or presentations arising from this work. More details at
     http://www.quantum-espresso.org/quote

     Parallel version (MPI), running on     5 processors

     MPI processes distributed on     1 nodes
     R & G space division:  proc/nbgrp/npool/nimage =       5
     Waiting for input...
     Reading input from standard input

     Current dimensions of program PWSCF are:
     Max number of different atomic species (ntypx) = 10
     Max number of k-points (npk) =  40000
     Max angular momentum in pseudopotentials (lmaxx) =  3

     Subspace diagonalization in iterative solution of the eigenvalue problem:
     a serial algorithm will be used


     Parallelization info
     --------------------
     sticks:   dense  smooth     PW     G-vecs:    dense   smooth      PW
     Min          90      90     27                 1284     1284     213
     Max          91      91     28                 1287     1287     214
     Sum         451     451    139                 6423     6423    1067



     bravais-lattice index     =            2
     lattice parameter (alat)  =       6.6500  a.u.
     unit-cell volume          =      73.5199 (a.u.)^3
     number of atoms/cell      =            1
     number of atomic types    =            1
     number of electrons       =        18.00
     number of Kohn-Sham states=           13
     kinetic-energy cutoff     =      75.0000  Ry
     charge density cutoff     =     300.0000  Ry
     convergence threshold     =      1.0E-08
     mixing beta               =       0.7000
     number of iterations used =            8  plain     mixing
     Exchange-correlation      = PBESOL ( 1  4 10  8 0 0)

     celldm(1)=   6.650000  celldm(2)=   0.000000  celldm(3)=   0.000000
     celldm(4)=   0.000000  celldm(5)=   0.000000  celldm(6)=   0.000000

     crystal axes: (cart. coord. in units of alat)
               a(1) = (  -0.500000   0.000000   0.500000 )  
               a(2) = (   0.000000   0.500000   0.500000 )  
               a(3) = (  -0.500000   0.500000   0.000000 )  

     reciprocal axes: (cart. coord. in units 2 pi/alat)
               b(1) = ( -1.000000 -1.000000  1.000000 )  
               b(2) = (  1.000000  1.000000  1.000000 )  
               b(3) = ( -1.000000  1.000000 -1.000000 )  


     PseudoPot. # 1 for Ni read from file:
     /home/lorenzo/pseudos/Ni/Ni.pbesol-spn-rrkjus_psl.1.0.0.UPF
     MD5 check sum: 6fc0a587bf949a08f2faed986b854013
     Pseudo is Ultrasoft + core correction, Zval = 18.0
     Generated using "atomic" code by A. Dal Corso v.6.3
     Using radial grid of 1195 points,  6 beta functions with: 
                l(1) =   0
                l(2) =   0
                l(3) =   1
                l(4) =   1
                l(5) =   2
                l(6) =   2
     Q(r) pseudized with 0 coefficients 


     atomic species   valence    mass     pseudopotential
        Ni            18.00    58.69340     Ni( 1.00)

     48 Sym. Ops., with inversion, found



   Cartesian axes

     site n.     atom                  positions (alat units)
         1           Ni  tau(   1) = (   0.0000000   0.0000000   0.0000000  )

     number of k points=     3  gaussian smearing, width (Ry)=  0.0100
                       cart. coord. in units 2pi/alat
        k(    1) = (   0.0000000   0.0000000   0.0000000), wk =   0.2500000
        k(    2) = (   0.5000000  -0.5000000   0.5000000), wk =   1.0000000
        k(    3) = (   0.0000000  -1.0000000   0.0000000), wk =   0.7500000

     Dense  grid:     6423 G-vectors     FFT dimensions: (  25,  25,  25)

     Estimated max dynamical RAM per process >       6.34 MB

     Estimated total dynamical RAM >      31.70 MB

     Check: negative/imaginary core charge=   -0.000008    0.000000

     Initial potential from superposition of free atoms

     starting charge   17.99977, renormalised to   18.00000
     Starting wfcs are   10 randomized atomic wfcs +    3 random wfcs

     total cpu time spent up to now is        0.9 secs

     Self-consistent Calculation

     iteration #  1     ecut=    75.00 Ry     beta= 0.70
     Davidson diagonalization with overlap
     ethr =  1.00E-02,  avg # of iterations =  5.3

     Threshold (ethr) on eigenvalues was too large:
     Diagonalizing with lowered threshold

     Davidson diagonalization with overlap
     ethr =  6.30E-05,  avg # of iterations =  3.0

     total cpu time spent up to now is        1.0 secs

     total energy              =    -339.19998540 Ry
     Harris-Foulkes estimate   =    -339.20404316 Ry
     estimated scf accuracy    <       0.01119188 Ry

     iteration #  2     ecut=    75.00 Ry     beta= 0.70
     Davidson diagonalization with overlap
     ethr =  6.22E-05,  avg # of iterations =  2.0

     total cpu time spent up to now is        1.0 secs

     total energy              =    -339.16979855 Ry
     Harris-Foulkes estimate   =    -339.21930965 Ry
     estimated scf accuracy    <       0.49212353 Ry

     iteration #  3     ecut=    75.00 Ry     beta= 0.70
     Davidson diagonalization with overlap
     ethr =  6.22E-05,  avg # of iterations =  2.3

     total cpu time spent up to now is        1.1 secs

     total energy              =    -339.20257116 Ry
     Harris-Foulkes estimate   =    -339.20313309 Ry
     estimated scf accuracy    <       0.00635106 Ry

     iteration #  4     ecut=    75.00 Ry     beta= 0.70
     Davidson diagonalization with overlap
     ethr =  3.53E-05,  avg # of iterations =  1.0

     total cpu time spent up to now is        1.1 secs

     total energy              =    -339.20231620 Ry
     Harris-Foulkes estimate   =    -339.20262146 Ry
     estimated scf accuracy    <       0.00425086 Ry

     iteration #  5     ecut=    75.00 Ry     beta= 0.70
     Davidson diagonalization with overlap
     ethr =  2.36E-05,  avg # of iterations =  1.0

     total cpu time spent up to now is        1.2 secs

     total energy              =    -339.20172136 Ry
     Harris-Foulkes estimate   =    -339.20233798 Ry
     estimated scf accuracy    <       0.00295991 Ry

     iteration #  6     ecut=    75.00 Ry     beta= 0.70
     Davidson diagonalization with overlap
     ethr =  1.64E-05,  avg # of iterations =  1.0

     total cpu time spent up to now is        1.2 secs

     total energy              =    -339.20191935 Ry
     Harris-Foulkes estimate   =    -339.20190853 Ry
     estimated scf accuracy    <       0.00002909 Ry

     iteration #  7     ecut=    75.00 Ry     beta= 0.70
     Davidson diagonalization with overlap
     ethr =  1.62E-07,  avg # of iterations =  2.0

     total cpu time spent up to now is        1.3 secs

     total energy              =    -339.20188633 Ry
     Harris-Foulkes estimate   =    -339.20193381 Ry
     estimated scf accuracy    <       0.00028116 Ry

     iteration #  8     ecut=    75.00 Ry     beta= 0.70
     Davidson diagonalization with overlap
     ethr =  1.62E-07,  avg # of iterations =  2.0

     total cpu time spent up to now is        1.3 secs

     total energy              =    -339.20191172 Ry
     Harris-Foulkes estimate   =    -339.20191362 Ry
     estimated scf accuracy    <       0.00001880 Ry

     iteration #  9     ecut=    75.00 Ry     beta= 0.70
     Davidson diagonalization with overlap
     ethr =  1.04E-07,  avg # of iterations =  1.0

     total cpu time spent up to now is        1.4 secs

     total energy              =    -339.20191263 Ry
     Harris-Foulkes estimate   =    -339.20191250 Ry
     estimated scf accuracy    <       0.00000062 Ry

     iteration # 10     ecut=    75.00 Ry     beta= 0.70
     Davidson diagonalization with overlap
     ethr =  3.45E-09,  avg # of iterations =  2.0

     total cpu time spent up to now is        1.4 secs

     total energy              =    -339.20191215 Ry
     Harris-Foulkes estimate   =    -339.20191274 Ry
     estimated scf accuracy    <       0.00000392 Ry

     iteration # 11     ecut=    75.00 Ry     beta= 0.70
     Davidson diagonalization with overlap
     ethr =  3.45E-09,  avg # of iterations =  2.0

     total cpu time spent up to now is        1.5 secs

     total energy              =    -339.20191246 Ry
     Harris-Foulkes estimate   =    -339.20191250 Ry
     estimated scf accuracy    <       0.00000018 Ry

     iteration # 12     ecut=    75.00 Ry     beta= 0.70
     Davidson diagonalization with overlap
     ethr =  9.77E-10,  avg # of iterations =  1.0

     total cpu time spent up to now is        1.5 secs

     total energy              =    -339.20191248 Ry
     Harris-Foulkes estimate   =    -339.20191249 Ry
     estimated scf accuracy    <       0.00000006 Ry

     iteration # 13     ecut=    75.00 Ry     beta= 0.70
     Davidson diagonalization with overlap
     ethr =  3.15E-10,  avg # of iterations =  1.0

     total cpu time spent up to now is        1.5 secs

     End of self-consistent calculation

          k = 0.0000 0.0000 0.0000 (   869 PWs)   bands (ev):

   -85.4173 -45.8144 -45.8144 -45.8144   8.5873  15.4909  15.4909  15.4909
    16.6660  16.6660  41.2068  45.2280  45.2280

          k = 0.5000-0.5000 0.5000 (   796 PWs)   bands (ev):

   -85.3826 -46.0326 -45.8436 -45.8436  12.9410  15.4923  15.4923  17.3338
    17.3659  17.3659  23.4440  39.8182  42.2665

          k = 0.0000-1.0000 0.0000 (   790 PWs)   bands (ev):

   -85.3713 -46.0203 -45.8945 -45.8945  13.1701  13.6614  17.3970  17.5171
    17.5171  20.0269  26.9831  32.4305  32.4305

     the Fermi energy is    17.4933 ev

!    total energy              =    -339.20191249 Ry
     Harris-Foulkes estimate   =    -339.20191249 Ry
     estimated scf accuracy    <          1.9E-09 Ry

     The total energy is the sum of the following terms:

     one-electron contribution =    -186.17894152 Ry
     hartree contribution      =     104.27303537 Ry
     xc contribution           =     -33.90480442 Ry
     ewald contribution        =    -223.38275369 Ry
     smearing contrib. (-TS)   =      -0.00844823 Ry

     convergence has been achieved in  13 iterations

     Forces acting on atoms (cartesian axes, Ry/au):

     atom    1 type  1   force =     0.00000000    0.00000000    0.00000000

     Total force =     0.000000     Total SCF correction =     0.000000


     Computing stress (Cartesian axis) and pressure

          total   stress  (Ry/bohr**3)                   (kbar)     P=  176.52
   0.00119997   0.00000000   0.00000000        176.52      0.00      0.00
   0.00000000   0.00119997  -0.00000000          0.00    176.52     -0.00
   0.00000000  -0.00000000   0.00119997          0.00     -0.00    176.52


     Writing output data file Ni.save/

     init_run     :      0.18s CPU      0.18s WALL (       1 calls)
     electrons    :      0.63s CPU      0.66s WALL (       1 calls)
     forces       :      0.02s CPU      0.02s WALL (       1 calls)
     stress       :      0.06s CPU      0.06s WALL (       1 calls)

     Called by init_run:
     wfcinit      :      0.01s CPU      0.01s WALL (       1 calls)
     potinit      :      0.01s CPU      0.01s WALL (       1 calls)
     hinit0       :      0.14s CPU      0.15s WALL (       1 calls)

     Called by electrons:
     c_bands      :      0.33s CPU      0.35s WALL (      14 calls)
     sum_band     :      0.16s CPU      0.17s WALL (      14 calls)
     v_of_rho     :      0.05s CPU      0.05s WALL (      14 calls)
     newd         :      0.09s CPU      0.09s WALL (      14 calls)
     mix_rho      :      0.01s CPU      0.01s WALL (      14 calls)

     Called by c_bands:
     init_us_2    :      0.01s CPU      0.01s WALL (      93 calls)
     cegterg      :      0.32s CPU      0.33s WALL (      42 calls)

     Called by sum_band:
     sum_band:bec :      0.00s CPU      0.00s WALL (      42 calls)
     addusdens    :      0.08s CPU      0.09s WALL (      14 calls)

     Called by *egterg:
     h_psi        :      0.23s CPU      0.25s WALL (     125 calls)
     s_psi        :      0.01s CPU      0.01s WALL (     125 calls)
     g_psi        :      0.00s CPU      0.00s WALL (      80 calls)
     cdiaghg      :      0.04s CPU      0.04s WALL (     119 calls)

     Called by h_psi:
     h_psi:pot    :      0.23s CPU      0.24s WALL (     125 calls)
     h_psi:calbec :      0.01s CPU      0.01s WALL (     125 calls)
     vloc_psi     :      0.21s CPU      0.22s WALL (     125 calls)
     add_vuspsi   :      0.01s CPU      0.01s WALL (     125 calls)

     General routines
     calbec       :      0.02s CPU      0.02s WALL (     182 calls)
     fft          :      0.03s CPU      0.03s WALL (     181 calls)
     ffts         :      0.00s CPU      0.00s WALL (      14 calls)
     fftw         :      0.24s CPU      0.25s WALL (    3028 calls)

     Parallel routines
     fft_scatt_xy :      0.02s CPU      0.02s WALL (    3223 calls)
     fft_scatt_yz :      0.08s CPU      0.08s WALL (    3223 calls)

     PWSCF        :     1.59s CPU         1.66s WALL


   This run was terminated on:  22:52: 5  26Mar2024            

=------------------------------------------------------------------------------=
   JOB DONE.
=------------------------------------------------------------------------------=
