
     Program PWSCF v.6.3MaX starts on 26Mar2024 at 23: 4:40 

     This program is part of the open-source Quantum ESPRESSO suite
     for quantum simulation of materials; please cite
         "P. Giannozzi et al., J. Phys.:Condens. Matter 21 395502 (2009);
         "P. Giannozzi et al., J. Phys.:Condens. Matter 29 465901 (2017);
          URL http://www.quantum-espresso.org", 
     in publications or presentations arising from this work. More details at
     http://www.quantum-espresso.org/quote

     Parallel version (MPI), running on     5 processors

     MPI processes distributed on     1 nodes
     R & G space division:  proc/nbgrp/npool/nimage =       5
     Waiting for input...
     Reading input from standard input

     Current dimensions of program PWSCF are:
     Max number of different atomic species (ntypx) = 10
     Max number of k-points (npk) =  40000
     Max angular momentum in pseudopotentials (lmaxx) =  3

     Subspace diagonalization in iterative solution of the eigenvalue problem:
     a serial algorithm will be used


     Parallelization info
     --------------------
     sticks:   dense  smooth     PW     G-vecs:    dense   smooth      PW
     Min         116     116     37                 1850     1850     327
     Max         117     117     38                 1853     1853     329
     Sum         583     583    187                 9257     9257    1639



     bravais-lattice index     =            2
     lattice parameter (alat)  =       6.6500  a.u.
     unit-cell volume          =      73.5199 (a.u.)^3
     number of atoms/cell      =            1
     number of atomic types    =            1
     number of electrons       =        18.00
     number of Kohn-Sham states=           13
     kinetic-energy cutoff     =      95.0000  Ry
     charge density cutoff     =     380.0000  Ry
     convergence threshold     =      1.0E-08
     mixing beta               =       0.7000
     number of iterations used =            8  plain     mixing
     Exchange-correlation      = PBE ( 1  4  3  4 0 0)

     celldm(1)=   6.650000  celldm(2)=   0.000000  celldm(3)=   0.000000
     celldm(4)=   0.000000  celldm(5)=   0.000000  celldm(6)=   0.000000

     crystal axes: (cart. coord. in units of alat)
               a(1) = (  -0.500000   0.000000   0.500000 )  
               a(2) = (   0.000000   0.500000   0.500000 )  
               a(3) = (  -0.500000   0.500000   0.000000 )  

     reciprocal axes: (cart. coord. in units 2 pi/alat)
               b(1) = ( -1.000000 -1.000000  1.000000 )  
               b(2) = (  1.000000  1.000000  1.000000 )  
               b(3) = ( -1.000000  1.000000 -1.000000 )  


     PseudoPot. # 1 for Ni read from file:
     /home/lorenzo/pseudos/Ni/Ni.pbe-spn-rrkjus_psl.1.0.0.UPF
     MD5 check sum: 8b3fc9aac6dafe35f580d41bb18c3945
     Pseudo is Ultrasoft + core correction, Zval = 18.0
     Generated using "atomic" code by A. Dal Corso v.6.3
     Using radial grid of 1195 points,  6 beta functions with: 
                l(1) =   0
                l(2) =   0
                l(3) =   1
                l(4) =   1
                l(5) =   2
                l(6) =   2
     Q(r) pseudized with 0 coefficients 


     atomic species   valence    mass     pseudopotential
        Ni            18.00    58.69340     Ni( 1.00)

     48 Sym. Ops., with inversion, found



   Cartesian axes

     site n.     atom                  positions (alat units)
         1           Ni  tau(   1) = (   0.0000000   0.0000000   0.0000000  )

     number of k points=    56  gaussian smearing, width (Ry)=  0.0100
                       cart. coord. in units 2pi/alat
        k(    1) = (   0.0000000   0.0000000   0.0000000), wk =   0.0015026
        k(    2) = (  -0.0909091   0.0909091  -0.0909091), wk =   0.0120210
        k(    3) = (  -0.1818182   0.1818182  -0.1818182), wk =   0.0120210
        k(    4) = (  -0.2727273   0.2727273  -0.2727273), wk =   0.0120210
        k(    5) = (  -0.3636364   0.3636364  -0.3636364), wk =   0.0120210
        k(    6) = (  -0.4545455   0.4545455  -0.4545455), wk =   0.0120210
        k(    7) = (   0.0000000   0.1818182   0.0000000), wk =   0.0090158
        k(    8) = (  -0.0909091   0.2727273  -0.0909091), wk =   0.0360631
        k(    9) = (  -0.1818182   0.3636364  -0.1818182), wk =   0.0360631
        k(   10) = (  -0.2727273   0.4545455  -0.2727273), wk =   0.0360631
        k(   11) = (  -0.3636364   0.5454545  -0.3636364), wk =   0.0360631
        k(   12) = (   0.5454545  -0.3636364   0.5454545), wk =   0.0360631
        k(   13) = (   0.4545455  -0.2727273   0.4545455), wk =   0.0360631
        k(   14) = (   0.3636364  -0.1818182   0.3636364), wk =   0.0360631
        k(   15) = (   0.2727273  -0.0909091   0.2727273), wk =   0.0360631
        k(   16) = (   0.1818182  -0.0000000   0.1818182), wk =   0.0180316
        k(   17) = (   0.0000000   0.3636364   0.0000000), wk =   0.0090158
        k(   18) = (  -0.0909091   0.4545455  -0.0909091), wk =   0.0360631
        k(   19) = (  -0.1818182   0.5454545  -0.1818182), wk =   0.0360631
        k(   20) = (  -0.2727273   0.6363636  -0.2727273), wk =   0.0360631
        k(   21) = (   0.6363636  -0.2727273   0.6363636), wk =   0.0360631
        k(   22) = (   0.5454545  -0.1818182   0.5454545), wk =   0.0360631
        k(   23) = (   0.4545455  -0.0909091   0.4545455), wk =   0.0360631
        k(   24) = (   0.3636364   0.0000000   0.3636364), wk =   0.0180316
        k(   25) = (   0.0000000   0.5454545   0.0000000), wk =   0.0090158
        k(   26) = (  -0.0909091   0.6363636  -0.0909091), wk =   0.0360631
        k(   27) = (  -0.1818182   0.7272727  -0.1818182), wk =   0.0360631
        k(   28) = (   0.7272727  -0.1818182   0.7272727), wk =   0.0360631
        k(   29) = (   0.6363636  -0.0909091   0.6363636), wk =   0.0360631
        k(   30) = (   0.5454545   0.0000000   0.5454545), wk =   0.0180316
        k(   31) = (   0.0000000   0.7272727   0.0000000), wk =   0.0090158
        k(   32) = (  -0.0909091   0.8181818  -0.0909091), wk =   0.0360631
        k(   33) = (   0.8181818  -0.0909091   0.8181818), wk =   0.0360631
        k(   34) = (   0.7272727   0.0000000   0.7272727), wk =   0.0180316
        k(   35) = (   0.0000000   0.9090909   0.0000000), wk =   0.0090158
        k(   36) = (   0.9090909  -0.0000000   0.9090909), wk =   0.0180316
        k(   37) = (  -0.1818182   0.3636364   0.0000000), wk =   0.0360631
        k(   38) = (  -0.2727273   0.4545455  -0.0909091), wk =   0.0721262
        k(   39) = (  -0.3636364   0.5454545  -0.1818182), wk =   0.0721262
        k(   40) = (   0.5454545  -0.3636364   0.7272727), wk =   0.0721262
        k(   41) = (  -0.1818182   0.5454545   0.0000000), wk =   0.0360631
        k(   42) = (  -0.2727273   0.6363636  -0.0909091), wk =   0.0721262
        k(   43) = (   0.6363636  -0.2727273   0.8181818), wk =   0.0721262
        k(   44) = (   0.5454545  -0.1818182   0.7272727), wk =   0.0721262
        k(   45) = (   0.4545455  -0.0909091   0.6363636), wk =   0.0721262
        k(   46) = (   0.3636364   0.0000000   0.5454545), wk =   0.0360631
        k(   47) = (  -0.1818182   0.7272727   0.0000000), wk =   0.0360631
        k(   48) = (   0.7272727  -0.1818182   0.9090909), wk =   0.0721262
        k(   49) = (   0.6363636  -0.0909091   0.8181818), wk =   0.0721262
        k(   50) = (   0.5454545   0.0000000   0.7272727), wk =   0.0360631
        k(   51) = (   0.8181818  -0.0909091   1.0000000), wk =   0.0360631
        k(   52) = (   0.7272727   0.0000000   0.9090909), wk =   0.0360631
        k(   53) = (   0.6363636  -0.2727273   1.0000000), wk =   0.0360631
        k(   54) = (   0.5454545  -0.1818182   0.9090909), wk =   0.0721262
        k(   55) = (   0.6363636  -0.0909091   1.0000000), wk =   0.0360631
        k(   56) = (   0.5454545   0.0000000   0.9090909), wk =   0.0360631

     Dense  grid:     9257 G-vectors     FFT dimensions: (  30,  30,  30)

     Estimated max dynamical RAM per process >      11.14 MB

     Estimated total dynamical RAM >      55.69 MB

     Check: negative/imaginary core charge=   -0.000003    0.000000

     Initial potential from superposition of free atoms

     starting charge   17.99975, renormalised to   18.00000
     Starting wfcs are   10 randomized atomic wfcs +    3 random wfcs

     total cpu time spent up to now is        1.2 secs

     Self-consistent Calculation

     iteration #  1     ecut=    95.00 Ry     beta= 0.70
     Davidson diagonalization with overlap
     ethr =  1.00E-02,  avg # of iterations =  3.6

     Threshold (ethr) on eigenvalues was too large:
     Diagonalizing with lowered threshold

     Davidson diagonalization with overlap
     ethr =  1.83E-05,  avg # of iterations =  2.9

     total cpu time spent up to now is        2.9 secs

     total energy              =    -339.60601638 Ry
     Harris-Foulkes estimate   =    -339.60781017 Ry
     estimated scf accuracy    <       0.00325893 Ry

     iteration #  2     ecut=    95.00 Ry     beta= 0.70
     Davidson diagonalization with overlap
     ethr =  1.81E-05,  avg # of iterations =  2.2

     total cpu time spent up to now is        3.7 secs

     total energy              =    -339.60531292 Ry
     Harris-Foulkes estimate   =    -339.60893864 Ry
     estimated scf accuracy    <       0.00964381 Ry

     iteration #  3     ecut=    95.00 Ry     beta= 0.70
     Davidson diagonalization with overlap
     ethr =  1.81E-05,  avg # of iterations =  2.1

     total cpu time spent up to now is        4.5 secs

     total energy              =    -339.60711101 Ry
     Harris-Foulkes estimate   =    -339.60718721 Ry
     estimated scf accuracy    <       0.00025764 Ry

     iteration #  4     ecut=    95.00 Ry     beta= 0.70
     Davidson diagonalization with overlap
     ethr =  1.43E-06,  avg # of iterations =  1.5

     total cpu time spent up to now is        5.2 secs

     total energy              =    -339.60714891 Ry
     Harris-Foulkes estimate   =    -339.60714867 Ry
     estimated scf accuracy    <       0.00000036 Ry

     iteration #  5     ecut=    95.00 Ry     beta= 0.70
     Davidson diagonalization with overlap
     ethr =  2.03E-09,  avg # of iterations =  3.7

     total cpu time spent up to now is        6.3 secs

     total energy              =    -339.60714998 Ry
     Harris-Foulkes estimate   =    -339.60715003 Ry
     estimated scf accuracy    <       0.00000011 Ry

     iteration #  6     ecut=    95.00 Ry     beta= 0.70
     Davidson diagonalization with overlap
     ethr =  6.17E-10,  avg # of iterations =  1.0

     total cpu time spent up to now is        7.0 secs

     End of self-consistent calculation

          k = 0.0000 0.0000 0.0000 (  1139 PWs)   bands (ev):

   -85.3076 -45.5739 -45.5739 -45.5739   8.8219  15.8885  15.8885  15.8885
    16.9965  16.9965  41.4880  45.4339  45.4339

          k =-0.0909 0.0909-0.0909 (  1167 PWs)   bands (ev):

   -85.3049 -45.5920 -45.5767 -45.5767   9.1443  15.8016  15.9590  15.9590
    16.9679  16.9679  40.1319  42.9405  44.7282

          k =-0.1818 0.1818-0.1818 (  1167 PWs)   bands (ev):

   -85.2977 -45.6391 -45.5837 -45.5837  10.0722  15.6057  16.0851  16.0851
    16.9648  16.9648  35.7760  42.1508  43.7714

          k =-0.2727 0.2727-0.2727 (  1164 PWs)   bands (ev):

   -85.2883 -45.7008 -45.5926 -45.5926  11.4370  15.5105  16.0732  16.0732
    17.1623  17.1623  31.2545  41.3783  43.0920

          k =-0.3636 0.3636-0.3636 (  1155 PWs)   bands (ev):

   -85.2796 -45.7571 -45.6007 -45.6007  12.7149  15.9498  15.9498  15.9923
    17.4827  17.4827  27.2124  40.5595  42.7153

          k =-0.4545 0.4545-0.4545 (  1164 PWs)   bands (ev):

   -85.2745 -45.7908 -45.6056 -45.6056  13.2411  15.8559  15.8559  17.2412
    17.7067  17.7067  24.2674  40.0592  42.5819

          k = 0.0000 0.1818 0.0000 (  1163 PWs)   bands (ev):

   -85.3040 -45.5914 -45.5808 -45.5808   9.2511  15.7294  16.0108  16.0108
    16.8526  17.0526  40.6870  42.8124  42.8124

          k =-0.0909 0.2727-0.0909 (  1164 PWs)   bands (ev):

   -85.2983 -45.6265 -45.5889 -45.5857   9.9761  15.5379  16.1421  16.1554
    16.7484  17.1104  37.5247  41.1915  41.3408

          k =-0.1818 0.3636-0.1818 (  1145 PWs)   bands (ev):

   -85.2897 -45.6816 -45.5983 -45.5937  11.2069  15.3600  16.0889  16.2127
    16.9607  17.2768  32.9316  40.3700  40.4398

          k =-0.2727 0.4545-0.2727 (  1145 PWs)   bands (ev):

   -85.2807 -45.7383 -45.6063 -45.6040  12.5762  15.4710  15.8993  16.1243
    17.5198  17.5484  28.6708  39.6420  39.9444

          k =-0.3636 0.5455-0.3636 (  1149 PWs)   bands (ev):

   -85.2744 -45.7782 -45.6134 -45.6101  13.3420  15.7064  16.0097  16.2110
    17.7336  18.4031  25.1701  38.8126  40.1437

          k = 0.5455-0.3636 0.5455 (  1156 PWs)   bands (ev):

   -85.2727 -45.7889 -45.6186 -45.6088  13.4726  15.6920  15.9616  16.5603
    17.6954  19.0104  23.8831  38.0808  41.0509

          k = 0.4545-0.2727 0.4545 (  1145 PWs)   bands (ev):

   -85.2761 -45.7670 -45.6178 -45.6024  13.1880  15.7893  15.9889  16.0142
    17.4264  18.2592  26.2159  37.6951  41.5873

          k = 0.3636-0.1818 0.3636 (  1148 PWs)   bands (ev):

   -85.2836 -45.7201 -45.6112 -45.5933  12.1541  15.4242  15.9679  16.1449
    17.0382  17.6719  30.0417  37.7799  42.7872

          k = 0.2727-0.0909 0.2727 (  1152 PWs)   bands (ev):

   -85.2928 -45.6628 -45.6005 -45.5842  10.7558  15.4475  16.0977  16.2172
    16.7637  17.2689  34.4473  38.3320  44.2334

          k = 0.1818-0.0000 0.1818 (  1163 PWs)   bands (ev):

   -85.3007 -45.6151 -45.5877 -45.5781   9.6693  15.6529  16.0668  16.0674
    16.8252  17.0590  38.6366  39.7876  44.3310

          k = 0.0000 0.3636 0.0000 (  1162 PWs)   bands (ev):

   -85.2944 -45.6368 -45.5985 -45.5985  10.4730  15.3142  16.3641  16.3641
    16.5103  17.2044  39.4256  39.4384  39.4384

          k =-0.0909 0.4545-0.0909 (  1151 PWs)   bands (ev):

   -85.2873 -45.6761 -45.6092 -45.6083  11.4802  15.0791  16.1642  16.5309
    16.8665  17.3480  35.0052  38.1189  39.0346

          k =-0.1818 0.5455-0.1818 (  1146 PWs)   bands (ev):

   -85.2791 -45.7229 -45.6213 -45.6177  12.7409  14.9655  15.8644  16.5092
    17.5961  17.6739  30.6021  37.4247  37.4506

          k =-0.2727 0.6364-0.2727 (  1144 PWs)   bands (ev):

   -85.2725 -45.7592 -45.6363 -45.6213  13.6625  15.0970  15.7537  16.3952
    17.7658  19.0190  26.6930  35.7409  37.5142

          k = 0.6364-0.2727 0.6364 (  1155 PWs)   bands (ev):

   -85.2696 -45.7736 -45.6487 -45.6191  13.9456  15.2170  15.9134  16.3028
    17.7059  20.6053  24.0790  34.3980  38.3591

          k = 0.5455-0.1818 0.5455 (  1150 PWs)   bands (ev):

   -85.2713 -45.7627 -45.6532 -45.6112  13.8761  15.3668  15.7103  16.2914
    17.4087  19.7962  25.6281  33.5797  39.9492

          k = 0.4545-0.0909 0.4545 (  1141 PWs)   bands (ev):

   -85.2771 -45.7322 -45.6459 -45.6006  13.2053  15.2534  15.6668  16.3790
    16.9739  18.5647  29.2792  33.3594  42.1546

          k = 0.3636 0.0000 0.3636 (  1151 PWs)   bands (ev):

   -85.2851 -45.6951 -45.6263 -45.5906  11.9196  15.2505  15.9444  16.5334
    16.5545  17.7901  33.2434  34.0272  43.8436

          k = 0.0000 0.5455 0.0000 (  1146 PWs)   bands (ev):

   -85.2819 -45.6952 -45.6214 -45.6214  12.1641  14.7944  16.3585  16.8933
    16.8933  17.4065  36.4436  36.4436  36.7629

          k =-0.0909 0.6364-0.0909 (  1141 PWs)   bands (ev):

   -85.2753 -45.7269 -45.6352 -45.6311  13.0282  14.5972  16.2783  17.0159
    17.6057  17.6691  32.8361  34.6067  35.4609

          k =-0.1818 0.7273-0.1818 (  1151 PWs)   bands (ev):

   -85.2694 -45.7510 -45.6556 -45.6355  13.7532  14.5653  16.0658  16.9274
    17.7921  19.3108  28.8307  32.5586  35.2862

          k = 0.7273-0.1818 0.7273 (  1150 PWs)   bands (ev):

   -85.2663 -45.7564 -45.6793 -45.6329  14.2101  14.6645  15.8689  16.8011
    17.7405  21.6424  25.3512  30.9757  35.9716

          k = 0.6364-0.0909 0.6364 (  1144 PWs)   bands (ev):

   -85.2668 -45.7444 -45.6958 -45.6241  14.4493  14.8495  15.5811  16.6961
    17.4593  21.8908  25.2723  29.9680  37.4528

          k = 0.5455 0.0000 0.5455 (  1147 PWs)   bands (ev):

   -85.2708 -45.7360 -45.6829 -45.6122  14.1703  15.2406  15.2415  16.5957
    17.1139  19.9249  28.3308  30.0172  39.5742

          k = 0.0000 0.7273 0.0000 (  1150 PWs)   bands (ev):

   -85.2704 -45.7482 -45.6426 -45.6426  13.2865  14.3386  17.4622  17.4683
    17.4683  17.5955  31.9279  34.1420  34.1420

          k =-0.0909 0.8182-0.0909 (  1152 PWs)   bands (ev):

   -85.2661 -45.7646 -45.6565 -45.6481  13.5491  14.2422  17.0889  17.4524
    17.8065  19.3615  29.8094  31.4082  33.6637

          k = 0.8182-0.0909 0.8182 (  1148 PWs)   bands (ev):

   -85.2637 -45.7624 -45.6809 -45.6461  13.8762  14.3317  16.5753  17.3106
    17.8008  21.7654  27.6491  28.5342  34.1185

          k = 0.7273 0.0000 0.7273 (  1136 PWs)   bands (ev):

   -85.2639 -45.7409 -45.7092 -45.6371  14.2866  14.5327  15.9850  17.0747
    17.6104  24.1708  24.5495  28.0358  35.4420

          k = 0.0000 0.9091 0.0000 (  1154 PWs)   bands (ev):

   -85.2636 -45.7791 -45.6553 -45.6553  13.4476  14.0768  17.7094  17.8651
    17.8651  19.7542  27.9634  32.8578  32.8578

          k = 0.9091-0.0000 0.9091 (  1138 PWs)   bands (ev):

   -85.2627 -45.7781 -45.6643 -45.6544  13.5598  14.1130  17.4422  17.6301
    17.8862  20.9875  27.2783  30.8186  33.0187

          k =-0.1818 0.3636 0.0000 (  1153 PWs)   bands (ev):

   -85.2919 -45.6585 -45.6061 -45.5904  10.8559  15.3194  16.1350  16.3795
    16.6777  17.3027  36.0957  36.8159  42.7778

          k =-0.2727 0.4545-0.0909 (  1146 PWs)   bands (ev):

   -85.2835 -45.7046 -45.6225 -45.5984  12.1396  15.1644  15.9054  16.4367
    16.9417  17.7457  31.8641  35.7911  40.7436

          k =-0.3636 0.5455-0.1818 (  1148 PWs)   bands (ev):

   -85.2757 -45.7486 -45.6336 -45.6082  13.3215  15.3026  15.6857  16.3136
    17.3960  18.5226  27.7627  35.5882  38.8286

          k = 0.5455-0.3636 0.7273 (  1153 PWs)   bands (ev):

   -85.2711 -45.7751 -45.6389 -45.6151  13.7800  15.3879  15.9419  16.2153
    17.6557  19.8337  24.5627  35.8706  37.4229

          k =-0.1818 0.5455 0.0000 (  1139 PWs)   bands (ev):

   -85.2804 -45.7068 -45.6298 -45.6142  12.4876  14.8631  15.9636  16.8946
    16.9981  17.7311  33.8159  34.3426  37.5692

          k =-0.2727 0.6364-0.0909 (  1151 PWs)   bands (ev):

   -85.2734 -45.7376 -45.6489 -45.6232  13.5331  14.7943  15.6993  16.8326
    17.4452  18.7028  29.8137  33.7062  35.4315

          k = 0.6364-0.2727 0.8182 (  1142 PWs)   bands (ev):

   -85.2685 -45.7565 -45.6646 -45.6288  14.1459  14.8697  15.6159  16.6767
    17.6820  20.4881  26.0929  33.3096  34.3321

          k = 0.5455-0.1818 0.7273 (  1154 PWs)   bands (ev):

   -85.2673 -45.7585 -45.6750 -45.6268  14.3450  14.9133  15.6251  16.5769
    17.6235  21.8070  24.3587  32.1891  35.1308

          k = 0.4545-0.0909 0.6364 (  1152 PWs)   bands (ev):

   -85.2702 -45.7454 -45.6728 -45.6181  14.1608  15.1032  15.3437  16.6255
    17.3345  20.0190  27.2682  31.5440  36.6213

          k = 0.3636 0.0000 0.5455 (  1149 PWs)   bands (ev):

   -85.2762 -45.7261 -45.6529 -45.6071  13.3153  15.0421  15.5756  16.7138
    16.9345  18.6200  30.8568  31.8657  38.5760

          k =-0.1818 0.7273 0.0000 (  1152 PWs)   bands (ev):

   -85.2698 -45.7475 -45.6521 -45.6394  13.5551  14.4548  16.3194  17.4283
    17.4658  18.8064  31.9784  31.9789  32.9098

          k = 0.7273-0.1818 0.9091 (  1150 PWs)   bands (ev):

   -85.2657 -45.7549 -45.6738 -45.6446  13.9777  14.4929  16.0851  17.2053
    17.7461  20.8137  28.3832  30.3856  32.5084

          k = 0.6364-0.0909 0.8182 (  1152 PWs)   bands (ev):

   -85.2642 -45.7437 -45.7006 -45.6412  14.3544  14.6252  15.7581  16.9775
    17.7138  23.4031  25.0966  29.0913  33.3078

          k = 0.5455 0.0000 0.7273 (  1151 PWs)   bands (ev):

   -85.2659 -45.7304 -45.7105 -45.6308  14.6459  14.7735  15.3537  16.8260
    17.4904  22.1114  26.3579  28.8643  34.7366

          k = 0.8182-0.0909 1.0000 (  1152 PWs)   bands (ev):

   -85.2635 -45.7702 -45.6653 -45.6552  13.6741  14.2185  16.9532  17.5421
    17.8648  20.9477  28.1236  30.9089  31.5973

          k = 0.7273 0.0000 0.9091 (  1152 PWs)   bands (ev):

   -85.2628 -45.7591 -45.6853 -45.6526  13.9535  14.3883  16.3954  17.2980
    17.8621  22.7764  27.3188  28.1200  31.9867

          k = 0.6364-0.2727 1.0000 (  1151 PWs)   bands (ev):

   -85.2681 -45.7429 -45.6775 -45.6331  14.1993  14.8018  15.4167  17.0413
    17.4647  20.3024  29.0201  30.3551  33.2740

          k = 0.5455-0.1818 0.9091 (  1151 PWs)   bands (ev):

   -85.2650 -45.7405 -45.6974 -45.6417  14.5122  14.8564  15.3172  16.8818
    17.6964  22.5893  25.8899  30.3703  31.6680

          k = 0.6364-0.0909 1.0000 (  1153 PWs)   bands (ev):

   -85.2633 -45.7465 -45.6920 -45.6548  14.1849  14.6504  15.8013  17.1069
    17.8637  22.9682  27.9668  28.6094  29.8266

          k = 0.5455 0.0000 0.9091 (  1148 PWs)   bands (ev):

   -85.2630 -45.7269 -45.7150 -45.6536  14.3829  14.9333  15.3837  16.9309
    17.8620  25.1963  25.2331  28.2423  30.1790

     the Fermi energy is    17.7415 ev

!    total energy              =    -339.60714998 Ry
     Harris-Foulkes estimate   =    -339.60714999 Ry
     estimated scf accuracy    <          8.2E-09 Ry

     The total energy is the sum of the following terms:

     one-electron contribution =    -186.66431943 Ry
     hartree contribution      =     104.76848339 Ry
     xc contribution           =     -34.32577211 Ry
     ewald contribution        =    -223.38275369 Ry
     smearing contrib. (-TS)   =      -0.00278815 Ry

     convergence has been achieved in   6 iterations

     Forces acting on atoms (cartesian axes, Ry/au):

     atom    1 type  1   force =     0.00000000    0.00000000    0.00000000

     Total force =     0.000000     Total SCF correction =     0.000000


     Computing stress (Cartesian axis) and pressure

          total   stress  (Ry/bohr**3)                   (kbar)     P=  -19.38
  -0.00013177  -0.00000000   0.00000000        -19.38     -0.00      0.00
  -0.00000000  -0.00013177  -0.00000000         -0.00    -19.38     -0.00
   0.00000000  -0.00000000  -0.00013177          0.00     -0.00    -19.38


     Writing output data file Ni.save/

     init_run     :      0.44s CPU      0.46s WALL (       1 calls)
     electrons    :      5.58s CPU      5.81s WALL (       1 calls)
     forces       :      0.07s CPU      0.07s WALL (       1 calls)
     stress       :      0.25s CPU      0.25s WALL (       1 calls)

     Called by init_run:
     wfcinit      :      0.24s CPU      0.26s WALL (       1 calls)
     potinit      :      0.01s CPU      0.01s WALL (       1 calls)
     hinit0       :      0.17s CPU      0.17s WALL (       1 calls)

     Called by electrons:
     c_bands      :      4.66s CPU      4.86s WALL (       7 calls)
     sum_band     :      0.83s CPU      0.86s WALL (       7 calls)
     v_of_rho     :      0.03s CPU      0.04s WALL (       7 calls)
     newd         :      0.06s CPU      0.06s WALL (       7 calls)
     mix_rho      :      0.00s CPU      0.00s WALL (       7 calls)

     Called by c_bands:
     init_us_2    :      0.13s CPU      0.13s WALL (     952 calls)
     cegterg      :      4.49s CPU      4.68s WALL (     392 calls)

     Called by sum_band:
     sum_band:bec :      0.00s CPU      0.00s WALL (     392 calls)
     addusdens    :      0.06s CPU      0.06s WALL (       7 calls)

     Called by *egterg:
     h_psi        :      3.44s CPU      3.60s WALL (    1392 calls)
     s_psi        :      0.12s CPU      0.12s WALL (    1392 calls)
     g_psi        :      0.01s CPU      0.01s WALL (     944 calls)
     cdiaghg      :      0.47s CPU      0.48s WALL (    1280 calls)

     Called by h_psi:
     h_psi:pot    :      3.43s CPU      3.58s WALL (    1392 calls)
     h_psi:calbec :      0.15s CPU      0.16s WALL (    1392 calls)
     vloc_psi     :      3.15s CPU      3.29s WALL (    1392 calls)
     add_vuspsi   :      0.12s CPU      0.13s WALL (    1392 calls)

     General routines
     calbec       :      0.26s CPU      0.27s WALL (    2064 calls)
     fft          :      0.02s CPU      0.02s WALL (     104 calls)
     ffts         :      0.00s CPU      0.00s WALL (       7 calls)
     fftw         :      3.53s CPU      3.69s WALL (   31848 calls)

     Parallel routines
     fft_scatt_xy :      0.31s CPU      0.33s WALL (   31959 calls)
     fft_scatt_yz :      0.77s CPU      0.80s WALL (   31959 calls)

     PWSCF        :     7.09s CPU         7.41s WALL


   This run was terminated on:  23: 4:48  26Mar2024            

=------------------------------------------------------------------------------=
   JOB DONE.
=------------------------------------------------------------------------------=
