
     Program PWSCF v.6.3MaX starts on 26Mar2024 at 22:32:39 

     This program is part of the open-source Quantum ESPRESSO suite
     for quantum simulation of materials; please cite
         "P. Giannozzi et al., J. Phys.:Condens. Matter 21 395502 (2009);
         "P. Giannozzi et al., J. Phys.:Condens. Matter 29 465901 (2017);
          URL http://www.quantum-espresso.org", 
     in publications or presentations arising from this work. More details at
     http://www.quantum-espresso.org/quote

     Parallel version (MPI), running on     5 processors

     MPI processes distributed on     1 nodes
     R & G space division:  proc/nbgrp/npool/nimage =       5
     Waiting for input...
     Reading input from standard input

     Current dimensions of program PWSCF are:
     Max number of different atomic species (ntypx) = 10
     Max number of k-points (npk) =  40000
     Max angular momentum in pseudopotentials (lmaxx) =  3
               file Ni.pbe-spn-kjpaw_psl.1.0.0.UPF: wavefunction(s)  3P 3D renormalized

     Subspace diagonalization in iterative solution of the eigenvalue problem:
     a serial algorithm will be used


     Parallelization info
     --------------------
     sticks:   dense  smooth     PW     G-vecs:    dense   smooth      PW
     Min          42      42     14                  416      416      82
     Max          43      43     15                  418      418      83
     Sum         211     211     73                 2085     2085     411



     bravais-lattice index     =            2
     lattice parameter (alat)  =       6.6500  a.u.
     unit-cell volume          =      73.5199 (a.u.)^3
     number of atoms/cell      =            1
     number of atomic types    =            1
     number of electrons       =        18.00
     number of Kohn-Sham states=           13
     kinetic-energy cutoff     =      35.0000  Ry
     charge density cutoff     =     140.0000  Ry
     convergence threshold     =      1.0E-08
     mixing beta               =       0.7000
     number of iterations used =            8  plain     mixing
     Exchange-correlation      = SLA PW PBX PBC ( 1  4  3  4 0 0)

     celldm(1)=   6.650000  celldm(2)=   0.000000  celldm(3)=   0.000000
     celldm(4)=   0.000000  celldm(5)=   0.000000  celldm(6)=   0.000000

     crystal axes: (cart. coord. in units of alat)
               a(1) = (  -0.500000   0.000000   0.500000 )  
               a(2) = (   0.000000   0.500000   0.500000 )  
               a(3) = (  -0.500000   0.500000   0.000000 )  

     reciprocal axes: (cart. coord. in units 2 pi/alat)
               b(1) = ( -1.000000 -1.000000  1.000000 )  
               b(2) = (  1.000000  1.000000  1.000000 )  
               b(3) = ( -1.000000  1.000000 -1.000000 )  


     PseudoPot. # 1 for Ni read from file:
     /home/lorenzo/pseudos/Ni/Ni.pbe-spn-kjpaw_psl.1.0.0.UPF
     MD5 check sum: 6e86b733589c3ad8389697b807d86aa7
     Pseudo is Projector augmented-wave + core cor, Zval = 18.0
     Generated using "atomic" code by A. Dal Corso v.6.3
     Shape of augmentation charge: PSQ
     Using radial grid of 1195 points,  6 beta functions with: 
                l(1) =   0
                l(2) =   0
                l(3) =   1
                l(4) =   1
                l(5) =   2
                l(6) =   2
     Q(r) pseudized with 0 coefficients 


     atomic species   valence    mass     pseudopotential
        Ni            18.00    58.69340     Ni( 1.00)

     48 Sym. Ops., with inversion, found



   Cartesian axes

     site n.     atom                  positions (alat units)
         1           Ni  tau(   1) = (   0.0000000   0.0000000   0.0000000  )

     number of k points=     8  gaussian smearing, width (Ry)=  0.0100
                       cart. coord. in units 2pi/alat
        k(    1) = (   0.0000000   0.0000000   0.0000000), wk =   0.0312500
        k(    2) = (  -0.2500000   0.2500000  -0.2500000), wk =   0.2500000
        k(    3) = (   0.5000000  -0.5000000   0.5000000), wk =   0.1250000
        k(    4) = (   0.0000000   0.5000000   0.0000000), wk =   0.1875000
        k(    5) = (   0.7500000  -0.2500000   0.7500000), wk =   0.7500000
        k(    6) = (   0.5000000   0.0000000   0.5000000), wk =   0.3750000
        k(    7) = (   0.0000000  -1.0000000   0.0000000), wk =   0.0937500
        k(    8) = (  -0.5000000  -1.0000000   0.0000000), wk =   0.1875000

     Dense  grid:     2085 G-vectors     FFT dimensions: (  18,  18,  18)

     Estimated max dynamical RAM per process >       2.65 MB

     Estimated total dynamical RAM >      13.26 MB

     Check: negative/imaginary core charge=   -0.000037    0.000000

     Initial potential from superposition of free atoms

     starting charge   17.99975, renormalised to   18.00000
     Starting wfcs are   10 randomized atomic wfcs +    3 random wfcs
     Checking if some PAW data can be deallocated... 

     total cpu time spent up to now is        1.0 secs

     Self-consistent Calculation

     iteration #  1     ecut=    35.00 Ry     beta= 0.70
     Davidson diagonalization with overlap
     ethr =  1.00E-02,  avg # of iterations =  4.6

     total cpu time spent up to now is        1.2 secs

     total energy              =    -427.54495195 Ry
     Harris-Foulkes estimate   =    -427.68241279 Ry
     estimated scf accuracy    <       0.20749228 Ry

     iteration #  2     ecut=    35.00 Ry     beta= 0.70
     Davidson diagonalization with overlap
     ethr =  1.15E-03,  avg # of iterations =  2.2

     total cpu time spent up to now is        1.4 secs

     total energy              =    -427.50787684 Ry
     Harris-Foulkes estimate   =    -427.76216389 Ry
     estimated scf accuracy    <       0.67285571 Ry

     iteration #  3     ecut=    35.00 Ry     beta= 0.70
     Davidson diagonalization with overlap
     ethr =  1.15E-03,  avg # of iterations =  2.0

     total cpu time spent up to now is        1.5 secs

     total energy              =    -427.62726137 Ry
     Harris-Foulkes estimate   =    -427.63089079 Ry
     estimated scf accuracy    <       0.01344524 Ry

     iteration #  4     ecut=    35.00 Ry     beta= 0.70
     Davidson diagonalization with overlap
     ethr =  7.47E-05,  avg # of iterations =  2.0

     total cpu time spent up to now is        1.7 secs

     total energy              =    -427.62888053 Ry
     Harris-Foulkes estimate   =    -427.62891639 Ry
     estimated scf accuracy    <       0.00021089 Ry

     iteration #  5     ecut=    35.00 Ry     beta= 0.70
     Davidson diagonalization with overlap
     ethr =  1.17E-06,  avg # of iterations =  2.1

     total cpu time spent up to now is        1.8 secs

     total energy              =    -427.62893014 Ry
     Harris-Foulkes estimate   =    -427.62893184 Ry
     estimated scf accuracy    <       0.00000551 Ry

     iteration #  6     ecut=    35.00 Ry     beta= 0.70
     Davidson diagonalization with overlap
     ethr =  3.06E-08,  avg # of iterations =  1.8

     total cpu time spent up to now is        2.0 secs

     total energy              =    -427.62893066 Ry
     Harris-Foulkes estimate   =    -427.62893075 Ry
     estimated scf accuracy    <       0.00000023 Ry

     iteration #  7     ecut=    35.00 Ry     beta= 0.70
     Davidson diagonalization with overlap
     ethr =  1.28E-09,  avg # of iterations =  2.0

     total cpu time spent up to now is        2.1 secs

     End of self-consistent calculation

          k = 0.0000 0.0000 0.0000 (   259 PWs)   bands (ev):

   -86.7195 -45.0843 -45.0843 -45.0843   9.1309  15.8924  15.8924  15.8924
    17.4111  17.4111  41.5245  45.4676  45.4676

          k =-0.2500 0.2500-0.2500 (   268 PWs)   bands (ev):

   -86.7167 -45.4509 -45.4509 -45.2580  11.3004  15.7235  15.9875  15.9875
    17.0202  17.0202  32.2525  41.6506  43.0614

          k = 0.5000-0.5000 0.5000 (   266 PWs)   bands (ev):

   -86.7069 -45.6318 -45.6318 -45.1486  13.3467  15.5808  15.5808  17.5391
    17.8387  17.8387  24.0575  40.0570  42.5400

          k = 0.0000 0.5000 0.0000 (   258 PWs)   bands (ev):

   -86.6958 -45.0981 -45.0981 -45.0470  11.9846  15.0893  16.6317  16.9657
    16.9657  17.5218  37.0341  37.0341  37.7138

          k = 0.7500-0.2500 0.7500 (   254 PWs)   bands (ev):

   -86.6830 -45.2348 -45.0527 -44.9711  14.2473  14.8693  16.0784  16.9117
    18.2374  20.4272  26.4467  32.5102  36.0047

          k = 0.5000 0.0000 0.5000 (   256 PWs)   bands (ev):

   -86.6896 -45.2385 -45.1911 -44.9546  13.9586  15.5129  15.5810  16.7192
    17.0557  19.4180  29.2938  31.0298  40.6241

          k = 0.0000-1.0000 0.0000 (   254 PWs)   bands (ev):

   -86.6789 -45.1917 -45.0674 -45.0674  13.4945  14.1275  18.0320  18.3674
    18.3674  20.2700  27.2840  32.6871  32.6871

          k =-0.5000-1.0000 0.0000 (   252 PWs)   bands (ev):

   -86.6756 -45.1787 -44.9876 -44.9876  14.6779  15.3238  15.3238  17.2325
    18.3630  25.5746  25.5746  27.7916  29.7639

     the Fermi energy is    18.2692 ev

!    total energy              =    -427.62893070 Ry
     Harris-Foulkes estimate   =    -427.62893071 Ry
     estimated scf accuracy    <          7.5E-09 Ry

     total all-electron energy =     -3040.061038 Ry

     The total energy is the sum of the following terms:

     one-electron contribution =    -182.54364928 Ry
     hartree contribution      =     103.34997247 Ry
     xc contribution           =     -34.22590209 Ry
     ewald contribution        =    -223.38275373 Ry
     one-center paw contrib.   =     -90.82393901 Ry
     smearing contrib. (-TS)   =      -0.00265906 Ry

     convergence has been achieved in   7 iterations

     Forces acting on atoms (cartesian axes, Ry/au):

     atom    1 type  1   force =     0.00000000    0.00000000    0.00000000

     Total force =     0.000000     Total SCF correction =     0.000000


     Computing stress (Cartesian axis) and pressure

          total   stress  (Ry/bohr**3)                   (kbar)     P=********
  -0.10239771  -0.00000000   0.00000000     -15063.22     -0.00      0.00
  -0.00000000  -0.10239771  -0.00000000         -0.00 -15063.22     -0.00
   0.00000000  -0.00000000  -0.10239771          0.00     -0.00 -15063.22


     Writing output data file Ni.save/

     init_run     :      0.22s CPU      0.24s WALL (       1 calls)
     electrons    :      1.01s CPU      1.14s WALL (       1 calls)
     forces       :      0.01s CPU      0.01s WALL (       1 calls)
     stress       :      0.03s CPU      0.04s WALL (       1 calls)

     Called by init_run:
     wfcinit      :      0.02s CPU      0.02s WALL (       1 calls)
     potinit      :      0.09s CPU      0.10s WALL (       1 calls)
     hinit0       :      0.10s CPU      0.10s WALL (       1 calls)

     Called by electrons:
     c_bands      :      0.28s CPU      0.30s WALL (       7 calls)
     sum_band     :      0.06s CPU      0.06s WALL (       7 calls)
     v_of_rho     :      0.01s CPU      0.01s WALL (       8 calls)
     newd         :      0.02s CPU      0.02s WALL (       8 calls)
     PAW_pot      :      0.73s CPU      0.84s WALL (       8 calls)
     mix_rho      :      0.00s CPU      0.00s WALL (       7 calls)

     Called by c_bands:
     init_us_2    :      0.01s CPU      0.01s WALL (     136 calls)
     cegterg      :      0.27s CPU      0.29s WALL (      56 calls)

     Called by sum_band:
     sum_band:bec :      0.00s CPU      0.00s WALL (      56 calls)
     addusdens    :      0.01s CPU      0.01s WALL (       7 calls)

     Called by *egterg:
     h_psi        :      0.18s CPU      0.19s WALL (     198 calls)
     s_psi        :      0.01s CPU      0.01s WALL (     198 calls)
     g_psi        :      0.00s CPU      0.00s WALL (     134 calls)
     cdiaghg      :      0.07s CPU      0.07s WALL (     190 calls)

     Called by h_psi:
     h_psi:pot    :      0.18s CPU      0.19s WALL (     198 calls)
     h_psi:calbec :      0.01s CPU      0.01s WALL (     198 calls)
     vloc_psi     :      0.16s CPU      0.18s WALL (     198 calls)
     add_vuspsi   :      0.01s CPU      0.01s WALL (     198 calls)

     General routines
     calbec       :      0.02s CPU      0.02s WALL (     294 calls)
     fft          :      0.01s CPU      0.01s WALL (     114 calls)
     ffts         :      0.00s CPU      0.00s WALL (       7 calls)
     fftw         :      0.18s CPU      0.19s WALL (    4494 calls)

     Parallel routines
     fft_scatt_xy :      0.02s CPU      0.02s WALL (    4615 calls)
     fft_scatt_yz :      0.05s CPU      0.05s WALL (    4615 calls)

     PWSCF        :     2.02s CPU         2.21s WALL


   This run was terminated on:  22:32:42  26Mar2024            

=------------------------------------------------------------------------------=
   JOB DONE.
=------------------------------------------------------------------------------=
