
     Program PWSCF v.6.3MaX starts on 26Mar2024 at 22:25:10 

     This program is part of the open-source Quantum ESPRESSO suite
     for quantum simulation of materials; please cite
         "P. Giannozzi et al., J. Phys.:Condens. Matter 21 395502 (2009);
         "P. Giannozzi et al., J. Phys.:Condens. Matter 29 465901 (2017);
          URL http://www.quantum-espresso.org", 
     in publications or presentations arising from this work. More details at
     http://www.quantum-espresso.org/quote

     Parallel version (MPI), running on     5 processors

     MPI processes distributed on     1 nodes
     R & G space division:  proc/nbgrp/npool/nimage =       5
     Waiting for input...
     Reading input from standard input

     Current dimensions of program PWSCF are:
     Max number of different atomic species (ntypx) = 10
     Max number of k-points (npk) =  40000
     Max angular momentum in pseudopotentials (lmaxx) =  3
               file Ni.pbe-spn-kjpaw_psl.1.0.0.UPF: wavefunction(s)  3P 3D renormalized

     Subspace diagonalization in iterative solution of the eigenvalue problem:
     a serial algorithm will be used


     Parallelization info
     --------------------
     sticks:   dense  smooth     PW     G-vecs:    dense   smooth      PW
     Min          17      17      7                  112      112      33
     Max          19      19      8                  113      113      35
     Sum          91      91     37                  561      561     169



     bravais-lattice index     =            2
     lattice parameter (alat)  =       6.6500  a.u.
     unit-cell volume          =      73.5199 (a.u.)^3
     number of atoms/cell      =            1
     number of atomic types    =            1
     number of electrons       =        18.00
     number of Kohn-Sham states=           13
     kinetic-energy cutoff     =      15.0000  Ry
     charge density cutoff     =      60.0000  Ry
     convergence threshold     =      1.0E-08
     mixing beta               =       0.7000
     number of iterations used =            8  plain     mixing
     Exchange-correlation      = SLA PW PBX PBC ( 1  4  3  4 0 0)

     celldm(1)=   6.650000  celldm(2)=   0.000000  celldm(3)=   0.000000
     celldm(4)=   0.000000  celldm(5)=   0.000000  celldm(6)=   0.000000

     crystal axes: (cart. coord. in units of alat)
               a(1) = (  -0.500000   0.000000   0.500000 )  
               a(2) = (   0.000000   0.500000   0.500000 )  
               a(3) = (  -0.500000   0.500000   0.000000 )  

     reciprocal axes: (cart. coord. in units 2 pi/alat)
               b(1) = ( -1.000000 -1.000000  1.000000 )  
               b(2) = (  1.000000  1.000000  1.000000 )  
               b(3) = ( -1.000000  1.000000 -1.000000 )  


     PseudoPot. # 1 for Ni read from file:
     /home/lorenzo/pseudos/Ni/Ni.pbe-spn-kjpaw_psl.1.0.0.UPF
     MD5 check sum: 6e86b733589c3ad8389697b807d86aa7
     Pseudo is Projector augmented-wave + core cor, Zval = 18.0
     Generated using "atomic" code by A. Dal Corso v.6.3
     Shape of augmentation charge: PSQ
     Using radial grid of 1195 points,  6 beta functions with: 
                l(1) =   0
                l(2) =   0
                l(3) =   1
                l(4) =   1
                l(5) =   2
                l(6) =   2
     Q(r) pseudized with 0 coefficients 


     atomic species   valence    mass     pseudopotential
        Ni            18.00    58.69340     Ni( 1.00)

     48 Sym. Ops., with inversion, found



   Cartesian axes

     site n.     atom                  positions (alat units)
         1           Ni  tau(   1) = (   0.0000000   0.0000000   0.0000000  )

     number of k points=    20  gaussian smearing, width (Ry)=  0.0100
                       cart. coord. in units 2pi/alat
        k(    1) = (   0.0000000   0.0000000   0.0000000), wk =   0.0058309
        k(    2) = (  -0.1428571   0.1428571  -0.1428571), wk =   0.0466472
        k(    3) = (  -0.2857143   0.2857143  -0.2857143), wk =   0.0466472
        k(    4) = (  -0.4285714   0.4285714  -0.4285714), wk =   0.0466472
        k(    5) = (   0.0000000   0.2857143   0.0000000), wk =   0.0349854
        k(    6) = (  -0.1428571   0.4285714  -0.1428571), wk =   0.1399417
        k(    7) = (  -0.2857143   0.5714286  -0.2857143), wk =   0.1399417
        k(    8) = (   0.5714286  -0.2857143   0.5714286), wk =   0.1399417
        k(    9) = (   0.4285714  -0.1428571   0.4285714), wk =   0.1399417
        k(   10) = (   0.2857143  -0.0000000   0.2857143), wk =   0.0699708
        k(   11) = (   0.0000000   0.5714286   0.0000000), wk =   0.0349854
        k(   12) = (  -0.1428571   0.7142857  -0.1428571), wk =   0.1399417
        k(   13) = (   0.7142857  -0.1428571   0.7142857), wk =   0.1399417
        k(   14) = (   0.5714286   0.0000000   0.5714286), wk =   0.0699708
        k(   15) = (   0.0000000   0.8571429   0.0000000), wk =   0.0349854
        k(   16) = (   0.8571429  -0.0000000   0.8571429), wk =   0.0699708
        k(   17) = (  -0.2857143   0.5714286   0.0000000), wk =   0.1399417
        k(   18) = (   0.5714286  -0.2857143   0.8571429), wk =   0.2798834
        k(   19) = (   0.7142857  -0.1428571   1.0000000), wk =   0.1399417
        k(   20) = (   0.5714286   0.0000000   0.8571429), wk =   0.1399417

     Dense  grid:      561 G-vectors     FFT dimensions: (  12,  12,  12)

     Estimated max dynamical RAM per process >       1.14 MB

     Estimated total dynamical RAM >       5.72 MB

     Check: negative/imaginary core charge=   -0.001438    0.000000

     Initial potential from superposition of free atoms
     Check: negative starting charge=   -0.125591

     starting charge   17.99975, renormalised to   18.00000

     negative rho (up, down):  1.256E-01 0.000E+00
     Starting wfcs are   10 randomized atomic wfcs +    3 random wfcs
     Checking if some PAW data can be deallocated... 

     total cpu time spent up to now is        1.0 secs

     Self-consistent Calculation

     iteration #  1     ecut=    15.00 Ry     beta= 0.70
     Davidson diagonalization with overlap
     ethr =  1.00E-02,  avg # of iterations =  3.3

     total cpu time spent up to now is        1.2 secs

     total energy              =    -359.48485249 Ry
     Harris-Foulkes estimate   =    -399.78089491 Ry
     estimated scf accuracy    <      46.98102692 Ry

     iteration #  2     ecut=    15.00 Ry     beta= 0.70
     Davidson diagonalization with overlap
     ethr =  1.00E-02,  avg # of iterations =  3.0

     negative rho (up, down):  1.746E-04 0.000E+00

     total cpu time spent up to now is        1.4 secs

     total energy              =    -365.78401417 Ry
     Harris-Foulkes estimate   =    -366.77238677 Ry
     estimated scf accuracy    <       2.00557002 Ry

     iteration #  3     ecut=    15.00 Ry     beta= 0.70
     Davidson diagonalization with overlap
     ethr =  1.00E-02,  avg # of iterations =  1.0

     negative rho (up, down):  2.831E-03 0.000E+00

     total cpu time spent up to now is        1.6 secs

     total energy              =    -365.76785297 Ry
     Harris-Foulkes estimate   =    -365.83545137 Ry
     estimated scf accuracy    <       0.12113992 Ry

     iteration #  4     ecut=    15.00 Ry     beta= 0.70
     Davidson diagonalization with overlap
     ethr =  6.73E-04,  avg # of iterations =  1.2

     negative rho (up, down):  2.786E-03 0.000E+00

     total cpu time spent up to now is        1.7 secs

     total energy              =    -365.77181761 Ry
     Harris-Foulkes estimate   =    -365.77207121 Ry
     estimated scf accuracy    <       0.00052371 Ry

     iteration #  5     ecut=    15.00 Ry     beta= 0.70
     Davidson diagonalization with overlap
     ethr =  2.91E-06,  avg # of iterations =  2.5

     negative rho (up, down):  2.787E-03 0.000E+00

     total cpu time spent up to now is        1.9 secs

     total energy              =    -365.77189381 Ry
     Harris-Foulkes estimate   =    -365.77198561 Ry
     estimated scf accuracy    <       0.00015834 Ry

     iteration #  6     ecut=    15.00 Ry     beta= 0.70
     Davidson diagonalization with overlap
     ethr =  8.80E-07,  avg # of iterations =  1.9

     negative rho (up, down):  2.789E-03 0.000E+00

     total cpu time spent up to now is        2.1 secs

     total energy              =    -365.77191988 Ry
     Harris-Foulkes estimate   =    -365.77191993 Ry
     estimated scf accuracy    <       0.00000015 Ry

     iteration #  7     ecut=    15.00 Ry     beta= 0.70
     Davidson diagonalization with overlap
     ethr =  8.07E-10,  avg # of iterations =  2.0

     negative rho (up, down):  2.790E-03 0.000E+00

     total cpu time spent up to now is        2.3 secs

     total energy              =    -365.77191993 Ry
     Harris-Foulkes estimate   =    -365.77191993 Ry
     estimated scf accuracy    <       0.00000003 Ry

     iteration #  8     ecut=    15.00 Ry     beta= 0.70
     Davidson diagonalization with overlap
     ethr =  1.71E-10,  avg # of iterations =  1.0

     negative rho (up, down):  2.790E-03 0.000E+00

     total cpu time spent up to now is        2.4 secs

     End of self-consistent calculation

          k = 0.0000 0.0000 0.0000 (    65 PWs)   bands (ev):

  -169.9280 -48.5805 -48.5805 -48.5805  13.4475  33.5815  33.5815  34.3477
    34.3477  34.3477  48.4248  52.9283  52.9283

          k =-0.1429 0.1429-0.1429 (    62 PWs)   bands (ev):

  -168.7836 -45.4417 -45.4417 -45.3344  14.4324  32.2575  34.4783  34.4783
    37.4455  37.4455  49.7571  51.6408  55.8713

          k =-0.2857 0.2857-0.2857 (    68 PWs)   bands (ev):

  -170.0585 -56.0399 -48.6521 -48.6521  16.5884  27.3955  33.0110  33.0110
    35.2169  35.2169  44.0168  50.1255  55.0096

          k =-0.4286 0.4286-0.4286 (    73 PWs)   bands (ev):

  -171.6203 -63.0575 -53.9842 -53.9842  20.1966  24.8831  25.2542  25.2542
    32.4443  32.4443  38.4376  47.9246  48.7923

          k = 0.0000 0.2857 0.0000 (    64 PWs)   bands (ev):

  -169.3761 -48.6177 -48.6177 -45.8335  14.5113  32.8615  33.8999  33.8999
    34.0718  34.7591  51.3522  51.4860  54.4113

          k =-0.1429 0.4286-0.1429 (    69 PWs)   bands (ev):

  -170.3971 -60.5485 -49.4988 -47.4928  16.3458  28.3973  30.6108  30.8999
    33.6440  36.0200  42.4992  51.2594  51.8867

          k =-0.2857 0.5714-0.2857 (    70 PWs)   bands (ev):

  -170.4770 -60.5813 -53.0634 -47.3838  19.6092  26.3737  26.6135  30.2082
    33.2230  34.5668  38.6075  49.2378  49.8315

          k = 0.5714-0.2857 0.5714 (    73 PWs)   bands (ev):

  -171.3238 -62.8895 -54.4290 -54.0219  21.6638  23.9573  25.2901  27.1460
    30.4997  32.4617  35.3430  48.4973  49.1701

          k = 0.4286-0.1429 0.4286 (    70 PWs)   bands (ev):

  -170.5610 -63.1142 -49.4572 -48.4250  18.1893  26.2520  29.9261  30.0736
    31.4533  35.8469  40.5581  50.1492  51.5611

          k = 0.2857-0.0000 0.2857 (    67 PWs)   bands (ev):

  -169.9265 -57.4643 -48.9087 -46.0824  15.5607  28.0025  29.9589  32.6807
    34.4054  35.7520  45.3556  52.1765  52.2518

          k = 0.0000 0.5714 0.0000 (    76 PWs)   bands (ev):

  -172.4174 -66.4203 -56.7344 -56.7344  17.3476  25.3617  25.3617  27.7711
    29.4358  29.6751  42.7138  43.1694  43.1694

          k =-0.1429 0.7143-0.1429 (    77 PWs)   bands (ev):

  -172.5284 -67.6231 -59.2012 -57.1704  19.9370  24.0956  24.4346  26.3310
    28.0075  29.4153  37.3801  41.5755  43.0999

          k = 0.7143-0.1429 0.7143 (    72 PWs)   bands (ev):

  -170.6246 -57.1282 -55.3750 -52.4085  23.6732  25.2861  27.6203  28.3521
    31.1944  34.2564  38.6627  45.3464  45.3619

          k = 0.5714 0.0000 0.5714 (    73 PWs)   bands (ev):

  -170.9921 -60.1133 -55.0376 -52.9935  21.6015  25.9026  27.5355  27.5951
    33.2057  35.0545  37.9648  43.3019  48.7330

          k = 0.0000 0.8571 0.0000 (    72 PWs)   bands (ev):

  -170.4124 -55.5561 -55.5561 -53.6946  22.4416  28.4029  28.7222  28.7222
    29.4254  30.1728  39.9010  41.3129  41.3129

          k = 0.8571-0.0000 0.8571 (    71 PWs)   bands (ev):

  -170.2632 -57.9446 -52.7448 -50.8478  24.8713  25.9270  27.6501  29.2791
    32.7832  34.8997  36.1730  42.6250  43.3803

          k =-0.2857 0.5714 0.0000 (    75 PWs)   bands (ev):

  -172.0206 -65.3854 -59.3217 -51.9598  18.3106  24.3852  26.8681  28.2289
    29.6965  31.8101  39.6587  42.4508  49.0942

          k = 0.5714-0.2857 0.8571 (    75 PWs)   bands (ev):

  -171.6395 -62.8061 -58.1801 -54.4734  21.7060  25.0091  25.3172  27.0279
    30.0269  33.1584  36.8004  42.9156  46.3116

          k = 0.7143-0.1429 1.0000 (    72 PWs)   bands (ev):

  -170.4817 -60.4215 -53.1123 -50.7397  23.3228  25.1379  27.2992  31.7706
    32.0650  34.6457  37.6771  41.9857  45.1336

          k = 0.5714 0.0000 0.8571 (    72 PWs)   bands (ev):

  -170.4868 -59.0468 -52.9965 -52.1886  25.1250  26.4650  26.6628  28.4134
    30.4558  34.1312  39.0222  41.7993  48.0046

     the Fermi energy is    33.1620 ev

!    total energy              =    -365.77191993 Ry
     Harris-Foulkes estimate   =    -365.77191993 Ry
     estimated scf accuracy    <          1.6E-09 Ry

     total all-electron energy =     -2978.204027 Ry

     The total energy is the sum of the following terms:

     one-electron contribution =     -60.59181890 Ry
     hartree contribution      =      33.12151915 Ry
     xc contribution           =     -24.99551472 Ry
     ewald contribution        =    -223.38275371 Ry
     one-center paw contrib.   =     -89.92198403 Ry
     smearing contrib. (-TS)   =      -0.00136772 Ry

     convergence has been achieved in   8 iterations

     negative rho (up, down):  2.790E-03 0.000E+00

     Forces acting on atoms (cartesian axes, Ry/au):

     atom    1 type  1   force =     0.00000000    0.00000000    0.00000000

     Total force =     0.000000     Total SCF correction =     0.000000


     Computing stress (Cartesian axis) and pressure


     negative rho (up, down):  2.790E-03 0.000E+00
          total   stress  (Ry/bohr**3)                   (kbar)     P=********
  -0.92171086   0.00000000   0.00000000    -135588.33      0.00      0.00
  -0.00000000  -0.92171086  -0.00000000         -0.00-135588.33     -0.00
   0.00000000  -0.00000000  -0.92171086          0.00     -0.00-135588.33


     Writing output data file Ni.save/

     init_run     :      0.19s CPU      0.21s WALL (       1 calls)
     electrons    :      1.20s CPU      1.44s WALL (       1 calls)
     forces       :      0.01s CPU      0.01s WALL (       1 calls)
     stress       :      0.01s CPU      0.01s WALL (       1 calls)

     Called by init_run:
     wfcinit      :      0.01s CPU      0.02s WALL (       1 calls)
     potinit      :      0.09s CPU      0.11s WALL (       1 calls)
     hinit0       :      0.06s CPU      0.07s WALL (       1 calls)

     Called by electrons:
     c_bands      :      0.46s CPU      0.54s WALL (       8 calls)
     sum_band     :      0.05s CPU      0.06s WALL (       8 calls)
     v_of_rho     :      0.00s CPU      0.00s WALL (       9 calls)
     newd         :      0.01s CPU      0.01s WALL (       9 calls)
     PAW_pot      :      0.77s CPU      0.91s WALL (       9 calls)
     mix_rho      :      0.00s CPU      0.00s WALL (       8 calls)

     Called by c_bands:
     init_us_2    :      0.01s CPU      0.01s WALL (     380 calls)
     cegterg      :      0.44s CPU      0.52s WALL (     160 calls)

     Called by sum_band:
     sum_band:bec :      0.00s CPU      0.00s WALL (     160 calls)
     addusdens    :      0.00s CPU      0.01s WALL (       8 calls)

     Called by *egterg:
     h_psi        :      0.24s CPU      0.28s WALL (     498 calls)
     s_psi        :      0.01s CPU      0.01s WALL (     498 calls)
     g_psi        :      0.00s CPU      0.00s WALL (     318 calls)
     cdiaghg      :      0.16s CPU      0.18s WALL (     478 calls)

     Called by h_psi:
     h_psi:pot    :      0.24s CPU      0.28s WALL (     498 calls)
     h_psi:calbec :      0.01s CPU      0.01s WALL (     498 calls)
     vloc_psi     :      0.21s CPU      0.25s WALL (     498 calls)
     add_vuspsi   :      0.01s CPU      0.01s WALL (     498 calls)

     General routines
     calbec       :      0.02s CPU      0.02s WALL (     758 calls)
     fft          :      0.00s CPU      0.00s WALL (     125 calls)
     ffts         :      0.00s CPU      0.00s WALL (       8 calls)
     fftw         :      0.22s CPU      0.27s WALL (   13018 calls)

     Parallel routines
     fft_scatt_xy :      0.03s CPU      0.03s WALL (   13151 calls)
     fft_scatt_yz :      0.11s CPU      0.13s WALL (   13151 calls)

     PWSCF        :     2.19s CPU         2.51s WALL


   This run was terminated on:  22:25:12  26Mar2024            

=------------------------------------------------------------------------------=
   JOB DONE.
=------------------------------------------------------------------------------=
