
     Program PWSCF v.6.3MaX starts on 26Mar2024 at 22:46:42 

     This program is part of the open-source Quantum ESPRESSO suite
     for quantum simulation of materials; please cite
         "P. Giannozzi et al., J. Phys.:Condens. Matter 21 395502 (2009);
         "P. Giannozzi et al., J. Phys.:Condens. Matter 29 465901 (2017);
          URL http://www.quantum-espresso.org", 
     in publications or presentations arising from this work. More details at
     http://www.quantum-espresso.org/quote

     Parallel version (MPI), running on     5 processors

     MPI processes distributed on     1 nodes
     R & G space division:  proc/nbgrp/npool/nimage =       5
     Waiting for input...
     Reading input from standard input

     Current dimensions of program PWSCF are:
     Max number of different atomic species (ntypx) = 10
     Max number of k-points (npk) =  40000
     Max angular momentum in pseudopotentials (lmaxx) =  3
               file Ni.pbe-spn-kjpaw_psl.1.0.0.UPF: wavefunction(s)  3P 3D renormalized

     Subspace diagonalization in iterative solution of the eigenvalue problem:
     a serial algorithm will be used


     Parallelization info
     --------------------
     sticks:   dense  smooth     PW     G-vecs:    dense   smooth      PW
     Min          79      79     24                 1032     1032     178
     Max          80      80     25                 1033     1033     181
     Sum         397     397    121                 5161     5161     893



     bravais-lattice index     =            2
     lattice parameter (alat)  =       6.6500  a.u.
     unit-cell volume          =      73.5199 (a.u.)^3
     number of atoms/cell      =            1
     number of atomic types    =            1
     number of electrons       =        18.00
     number of Kohn-Sham states=           13
     kinetic-energy cutoff     =      65.0000  Ry
     charge density cutoff     =     260.0000  Ry
     convergence threshold     =      1.0E-08
     mixing beta               =       0.7000
     number of iterations used =            8  plain     mixing
     Exchange-correlation      = SLA PW PBX PBC ( 1  4  3  4 0 0)

     celldm(1)=   6.650000  celldm(2)=   0.000000  celldm(3)=   0.000000
     celldm(4)=   0.000000  celldm(5)=   0.000000  celldm(6)=   0.000000

     crystal axes: (cart. coord. in units of alat)
               a(1) = (  -0.500000   0.000000   0.500000 )  
               a(2) = (   0.000000   0.500000   0.500000 )  
               a(3) = (  -0.500000   0.500000   0.000000 )  

     reciprocal axes: (cart. coord. in units 2 pi/alat)
               b(1) = ( -1.000000 -1.000000  1.000000 )  
               b(2) = (  1.000000  1.000000  1.000000 )  
               b(3) = ( -1.000000  1.000000 -1.000000 )  


     PseudoPot. # 1 for Ni read from file:
     /home/lorenzo/pseudos/Ni/Ni.pbe-spn-kjpaw_psl.1.0.0.UPF
     MD5 check sum: 6e86b733589c3ad8389697b807d86aa7
     Pseudo is Projector augmented-wave + core cor, Zval = 18.0
     Generated using "atomic" code by A. Dal Corso v.6.3
     Shape of augmentation charge: PSQ
     Using radial grid of 1195 points,  6 beta functions with: 
                l(1) =   0
                l(2) =   0
                l(3) =   1
                l(4) =   1
                l(5) =   2
                l(6) =   2
     Q(r) pseudized with 0 coefficients 


     atomic species   valence    mass     pseudopotential
        Ni            18.00    58.69340     Ni( 1.00)

     48 Sym. Ops., with inversion, found



   Cartesian axes

     site n.     atom                  positions (alat units)
         1           Ni  tau(   1) = (   0.0000000   0.0000000   0.0000000  )

     number of k points=     4  gaussian smearing, width (Ry)=  0.0100
                       cart. coord. in units 2pi/alat
        k(    1) = (   0.0000000   0.0000000   0.0000000), wk =   0.0740741
        k(    2) = (  -0.3333333   0.3333333  -0.3333333), wk =   0.5925926
        k(    3) = (   0.0000000   0.6666667   0.0000000), wk =   0.4444444
        k(    4) = (   0.6666667  -0.0000000   0.6666667), wk =   0.8888889

     Dense  grid:     5161 G-vectors     FFT dimensions: (  25,  25,  25)

     Estimated max dynamical RAM per process >       5.34 MB

     Estimated total dynamical RAM >      26.72 MB

     Check: negative/imaginary core charge=   -0.000011    0.000000

     Initial potential from superposition of free atoms

     starting charge   17.99975, renormalised to   18.00000
     Starting wfcs are   10 randomized atomic wfcs +    3 random wfcs
     Checking if some PAW data can be deallocated... 

     total cpu time spent up to now is        1.1 secs

     Self-consistent Calculation

     iteration #  1     ecut=    65.00 Ry     beta= 0.70
     Davidson diagonalization with overlap
     ethr =  1.00E-02,  avg # of iterations =  4.2

     Threshold (ethr) on eigenvalues was too large:
     Diagonalizing with lowered threshold

     Davidson diagonalization with overlap
     ethr =  1.30E-05,  avg # of iterations =  3.5

     total cpu time spent up to now is        1.4 secs

     total energy              =    -429.12140807 Ry
     Harris-Foulkes estimate   =    -429.12269081 Ry
     estimated scf accuracy    <       0.00225443 Ry

     iteration #  2     ecut=    65.00 Ry     beta= 0.70
     Davidson diagonalization with overlap
     ethr =  1.25E-05,  avg # of iterations =  3.0

     total cpu time spent up to now is        1.5 secs

     total energy              =    -429.12136763 Ry
     Harris-Foulkes estimate   =    -429.12395148 Ry
     estimated scf accuracy    <       0.00641532 Ry

     iteration #  3     ecut=    65.00 Ry     beta= 0.70
     Davidson diagonalization with overlap
     ethr =  1.25E-05,  avg # of iterations =  2.2

     total cpu time spent up to now is        1.7 secs

     total energy              =    -429.12255424 Ry
     Harris-Foulkes estimate   =    -429.12254262 Ry
     estimated scf accuracy    <       0.00003227 Ry

     iteration #  4     ecut=    65.00 Ry     beta= 0.70
     Davidson diagonalization with overlap
     ethr =  1.79E-07,  avg # of iterations =  2.2

     total cpu time spent up to now is        1.9 secs

     total energy              =    -429.12256073 Ry
     Harris-Foulkes estimate   =    -429.12256080 Ry
     estimated scf accuracy    <       0.00000016 Ry

     iteration #  5     ecut=    65.00 Ry     beta= 0.70
     Davidson diagonalization with overlap
     ethr =  8.80E-10,  avg # of iterations =  3.0

     total cpu time spent up to now is        2.1 secs

     total energy              =    -429.12256082 Ry
     Harris-Foulkes estimate   =    -429.12256084 Ry
     estimated scf accuracy    <       0.00000002 Ry

     iteration #  6     ecut=    65.00 Ry     beta= 0.70
     Davidson diagonalization with overlap
     ethr =  1.31E-10,  avg # of iterations =  2.0

     total cpu time spent up to now is        2.3 secs

     End of self-consistent calculation

          k = 0.0000 0.0000 0.0000 (   645 PWs)   bands (ev):

   -85.7489 -45.9848 -45.9848 -45.9848   8.8011  15.5786  15.5786  15.5786
    16.6419  16.6419  41.4959  45.4063  45.4063

          k =-0.3333 0.3333-0.3333 (   646 PWs)   bands (ev):

   -85.7240 -46.1477 -46.0084 -46.0084  12.2747  15.5214  15.6745  15.6745
    17.0259  17.0259  28.3704  40.8199  42.7407

          k = 0.0000 0.6667 0.0000 (   644 PWs)   bands (ev):

   -85.7157 -46.1400 -46.0458 -46.0458  12.9277  14.2042  16.6891  16.9481
    16.9481  17.1725  33.4331  34.7587  34.7587

          k = 0.6667-0.0000 0.6667 (   650 PWs)   bands (ev):

   -85.7076 -46.1317 -46.1308 -46.0389  14.2724  14.4467  15.3833  16.5340
    17.1209  22.6083  25.3464  28.3818  36.6000

     the Fermi energy is    17.1069 ev

!    total energy              =    -429.12256082 Ry
     Harris-Foulkes estimate   =    -429.12256082 Ry
     estimated scf accuracy    <          4.5E-09 Ry

     total all-electron energy =     -3041.554668 Ry

     The total energy is the sum of the following terms:

     one-electron contribution =    -184.66495974 Ry
     hartree contribution      =     104.30375844 Ry
     xc contribution           =     -34.26878406 Ry
     ewald contribution        =    -223.38275369 Ry
     one-center paw contrib.   =     -91.10335899 Ry
     smearing contrib. (-TS)   =      -0.00646279 Ry

     convergence has been achieved in   6 iterations

     Forces acting on atoms (cartesian axes, Ry/au):

     atom    1 type  1   force =     0.00000000    0.00000000    0.00000000

     Total force =     0.000000     Total SCF correction =     0.000000


     Computing stress (Cartesian axis) and pressure

          total   stress  (Ry/bohr**3)                   (kbar)     P=   54.61
   0.00037122   0.00000000   0.00000000         54.61      0.00      0.00
   0.00000000   0.00037122  -0.00000000          0.00     54.61     -0.00
   0.00000000  -0.00000000   0.00037122          0.00     -0.00     54.61


     Writing output data file Ni.save/

     init_run     :      0.36s CPU      0.38s WALL (       1 calls)
     electrons    :      1.07s CPU      1.17s WALL (       1 calls)
     forces       :      0.03s CPU      0.03s WALL (       1 calls)
     stress       :      0.06s CPU      0.06s WALL (       1 calls)

     Called by init_run:
     wfcinit      :      0.02s CPU      0.02s WALL (       1 calls)
     potinit      :      0.12s CPU      0.14s WALL (       1 calls)
     hinit0       :      0.19s CPU      0.19s WALL (       1 calls)

     Called by electrons:
     c_bands      :      0.32s CPU      0.33s WALL (       7 calls)
     sum_band     :      0.10s CPU      0.10s WALL (       7 calls)
     v_of_rho     :      0.02s CPU      0.02s WALL (       7 calls)
     newd         :      0.05s CPU      0.05s WALL (       7 calls)
     PAW_pot      :      0.70s CPU      0.79s WALL (       7 calls)
     mix_rho      :      0.00s CPU      0.00s WALL (       7 calls)

     Called by c_bands:
     init_us_2    :      0.01s CPU      0.01s WALL (      68 calls)
     cegterg      :      0.31s CPU      0.32s WALL (      28 calls)

     Called by sum_band:
     sum_band:bec :      0.00s CPU      0.00s WALL (      28 calls)
     addusdens    :      0.04s CPU      0.04s WALL (       7 calls)

     Called by *egterg:
     h_psi        :      0.23s CPU      0.24s WALL (     113 calls)
     s_psi        :      0.01s CPU      0.01s WALL (     113 calls)
     g_psi        :      0.00s CPU      0.00s WALL (      81 calls)
     cdiaghg      :      0.05s CPU      0.05s WALL (     105 calls)

     Called by h_psi:
     h_psi:pot    :      0.23s CPU      0.24s WALL (     113 calls)
     h_psi:calbec :      0.01s CPU      0.01s WALL (     113 calls)
     vloc_psi     :      0.22s CPU      0.23s WALL (     113 calls)
     add_vuspsi   :      0.01s CPU      0.01s WALL (     113 calls)

     General routines
     calbec       :      0.01s CPU      0.01s WALL (     161 calls)
     fft          :      0.02s CPU      0.02s WALL (     104 calls)
     ffts         :      0.00s CPU      0.00s WALL (       7 calls)
     fftw         :      0.25s CPU      0.26s WALL (    2396 calls)

     Parallel routines
     fft_scatt_xy :      0.02s CPU      0.02s WALL (    2507 calls)
     fft_scatt_yz :      0.11s CPU      0.12s WALL (    2507 calls)

     PWSCF        :     2.28s CPU         2.43s WALL


   This run was terminated on:  22:46:44  26Mar2024            

=------------------------------------------------------------------------------=
   JOB DONE.
=------------------------------------------------------------------------------=
