
     Program PWSCF v.6.3MaX starts on 26Mar2024 at 22:48:29 

     This program is part of the open-source Quantum ESPRESSO suite
     for quantum simulation of materials; please cite
         "P. Giannozzi et al., J. Phys.:Condens. Matter 21 395502 (2009);
         "P. Giannozzi et al., J. Phys.:Condens. Matter 29 465901 (2017);
          URL http://www.quantum-espresso.org", 
     in publications or presentations arising from this work. More details at
     http://www.quantum-espresso.org/quote

     Parallel version (MPI), running on     5 processors

     MPI processes distributed on     1 nodes
     R & G space division:  proc/nbgrp/npool/nimage =       5
     Waiting for input...
     Reading input from standard input

     Current dimensions of program PWSCF are:
     Max number of different atomic species (ntypx) = 10
     Max number of k-points (npk) =  40000
     Max angular momentum in pseudopotentials (lmaxx) =  3

     Subspace diagonalization in iterative solution of the eigenvalue problem:
     a serial algorithm will be used


     Parallelization info
     --------------------
     sticks:   dense  smooth     PW     G-vecs:    dense   smooth      PW
     Min          85      85     27                 1163     1163     213
     Max          87      87     28                 1164     1164     214
     Sum         433     433    139                 5817     5817    1067



     bravais-lattice index     =            2
     lattice parameter (alat)  =       6.6500  a.u.
     unit-cell volume          =      73.5199 (a.u.)^3
     number of atoms/cell      =            1
     number of atomic types    =            1
     number of electrons       =        18.00
     number of Kohn-Sham states=           13
     kinetic-energy cutoff     =      70.0000  Ry
     charge density cutoff     =     280.0000  Ry
     convergence threshold     =      1.0E-08
     mixing beta               =       0.7000
     number of iterations used =            8  plain     mixing
     Exchange-correlation      = PBE ( 1  4  3  4 0 0)

     celldm(1)=   6.650000  celldm(2)=   0.000000  celldm(3)=   0.000000
     celldm(4)=   0.000000  celldm(5)=   0.000000  celldm(6)=   0.000000

     crystal axes: (cart. coord. in units of alat)
               a(1) = (  -0.500000   0.000000   0.500000 )  
               a(2) = (   0.000000   0.500000   0.500000 )  
               a(3) = (  -0.500000   0.500000   0.000000 )  

     reciprocal axes: (cart. coord. in units 2 pi/alat)
               b(1) = ( -1.000000 -1.000000  1.000000 )  
               b(2) = (  1.000000  1.000000  1.000000 )  
               b(3) = ( -1.000000  1.000000 -1.000000 )  


     PseudoPot. # 1 for Ni read from file:
     /home/lorenzo/pseudos/Ni/Ni.pbe-spn-rrkjus_psl.1.0.0.UPF
     MD5 check sum: 8b3fc9aac6dafe35f580d41bb18c3945
     Pseudo is Ultrasoft + core correction, Zval = 18.0
     Generated using "atomic" code by A. Dal Corso v.6.3
     Using radial grid of 1195 points,  6 beta functions with: 
                l(1) =   0
                l(2) =   0
                l(3) =   1
                l(4) =   1
                l(5) =   2
                l(6) =   2
     Q(r) pseudized with 0 coefficients 


     atomic species   valence    mass     pseudopotential
        Ni            18.00    58.69340     Ni( 1.00)

     48 Sym. Ops., with inversion, found



   Cartesian axes

     site n.     atom                  positions (alat units)
         1           Ni  tau(   1) = (   0.0000000   0.0000000   0.0000000  )

     number of k points=    47  gaussian smearing, width (Ry)=  0.0100
                       cart. coord. in units 2pi/alat
        k(    1) = (   0.0000000   0.0000000   0.0000000), wk =   0.0020000
        k(    2) = (  -0.1000000   0.1000000  -0.1000000), wk =   0.0160000
        k(    3) = (  -0.2000000   0.2000000  -0.2000000), wk =   0.0160000
        k(    4) = (  -0.3000000   0.3000000  -0.3000000), wk =   0.0160000
        k(    5) = (  -0.4000000   0.4000000  -0.4000000), wk =   0.0160000
        k(    6) = (   0.5000000  -0.5000000   0.5000000), wk =   0.0080000
        k(    7) = (   0.0000000   0.2000000   0.0000000), wk =   0.0120000
        k(    8) = (  -0.1000000   0.3000000  -0.1000000), wk =   0.0480000
        k(    9) = (  -0.2000000   0.4000000  -0.2000000), wk =   0.0480000
        k(   10) = (  -0.3000000   0.5000000  -0.3000000), wk =   0.0480000
        k(   11) = (   0.6000000  -0.4000000   0.6000000), wk =   0.0480000
        k(   12) = (   0.5000000  -0.3000000   0.5000000), wk =   0.0480000
        k(   13) = (   0.4000000  -0.2000000   0.4000000), wk =   0.0480000
        k(   14) = (   0.3000000  -0.1000000   0.3000000), wk =   0.0480000
        k(   15) = (   0.2000000   0.0000000   0.2000000), wk =   0.0240000
        k(   16) = (   0.0000000   0.4000000   0.0000000), wk =   0.0120000
        k(   17) = (  -0.1000000   0.5000000  -0.1000000), wk =   0.0480000
        k(   18) = (  -0.2000000   0.6000000  -0.2000000), wk =   0.0480000
        k(   19) = (   0.7000000  -0.3000000   0.7000000), wk =   0.0480000
        k(   20) = (   0.6000000  -0.2000000   0.6000000), wk =   0.0480000
        k(   21) = (   0.5000000  -0.1000000   0.5000000), wk =   0.0480000
        k(   22) = (   0.4000000   0.0000000   0.4000000), wk =   0.0240000
        k(   23) = (   0.0000000   0.6000000   0.0000000), wk =   0.0120000
        k(   24) = (  -0.1000000   0.7000000  -0.1000000), wk =   0.0480000
        k(   25) = (   0.8000000  -0.2000000   0.8000000), wk =   0.0480000
        k(   26) = (   0.7000000  -0.1000000   0.7000000), wk =   0.0480000
        k(   27) = (   0.6000000  -0.0000000   0.6000000), wk =   0.0240000
        k(   28) = (   0.0000000   0.8000000   0.0000000), wk =   0.0120000
        k(   29) = (   0.9000000  -0.1000000   0.9000000), wk =   0.0480000
        k(   30) = (   0.8000000   0.0000000   0.8000000), wk =   0.0240000
        k(   31) = (   0.0000000  -1.0000000   0.0000000), wk =   0.0060000
        k(   32) = (  -0.2000000   0.4000000   0.0000000), wk =   0.0480000
        k(   33) = (  -0.3000000   0.5000000  -0.1000000), wk =   0.0960000
        k(   34) = (   0.6000000  -0.4000000   0.8000000), wk =   0.0960000
        k(   35) = (   0.5000000  -0.3000000   0.7000000), wk =   0.0480000
        k(   36) = (  -0.2000000   0.6000000   0.0000000), wk =   0.0480000
        k(   37) = (   0.7000000  -0.3000000   0.9000000), wk =   0.0960000
        k(   38) = (   0.6000000  -0.2000000   0.8000000), wk =   0.0960000
        k(   39) = (   0.5000000  -0.1000000   0.7000000), wk =   0.0960000
        k(   40) = (   0.4000000   0.0000000   0.6000000), wk =   0.0480000
        k(   41) = (   0.8000000  -0.2000000   1.0000000), wk =   0.0480000
        k(   42) = (   0.7000000  -0.1000000   0.9000000), wk =   0.0960000
        k(   43) = (   0.6000000   0.0000000   0.8000000), wk =   0.0480000
        k(   44) = (  -0.2000000  -1.0000000   0.0000000), wk =   0.0240000
        k(   45) = (   0.6000000  -0.2000000   1.0000000), wk =   0.0480000
        k(   46) = (   0.5000000  -0.1000000   0.9000000), wk =   0.0480000
        k(   47) = (  -0.4000000  -1.0000000   0.0000000), wk =   0.0240000

     Dense  grid:     5817 G-vectors     FFT dimensions: (  25,  25,  25)

     Estimated max dynamical RAM per process >       7.11 MB

     Estimated total dynamical RAM >      35.55 MB

     Check: negative/imaginary core charge=   -0.000011    0.000000

     Initial potential from superposition of free atoms

     starting charge   17.99975, renormalised to   18.00000
     Starting wfcs are   10 randomized atomic wfcs +    3 random wfcs

     total cpu time spent up to now is        1.2 secs

     Self-consistent Calculation

     iteration #  1     ecut=    70.00 Ry     beta= 0.70
     Davidson diagonalization with overlap
     ethr =  1.00E-02,  avg # of iterations =  3.6

     Threshold (ethr) on eigenvalues was too large:
     Diagonalizing with lowered threshold

     Davidson diagonalization with overlap
     ethr =  2.26E-05,  avg # of iterations =  2.7

     total cpu time spent up to now is        2.3 secs

     total energy              =    -339.59463995 Ry
     Harris-Foulkes estimate   =    -339.59708540 Ry
     estimated scf accuracy    <       0.00411446 Ry

     iteration #  2     ecut=    70.00 Ry     beta= 0.70
     Davidson diagonalization with overlap
     ethr =  2.29E-05,  avg # of iterations =  2.3

     total cpu time spent up to now is        2.9 secs

     total energy              =    -339.59376649 Ry
     Harris-Foulkes estimate   =    -339.59930671 Ry
     estimated scf accuracy    <       0.01550832 Ry

     iteration #  3     ecut=    70.00 Ry     beta= 0.70
     Davidson diagonalization with overlap
     ethr =  2.29E-05,  avg # of iterations =  2.2

     total cpu time spent up to now is        3.4 secs

     total energy              =    -339.59640530 Ry
     Harris-Foulkes estimate   =    -339.59643481 Ry
     estimated scf accuracy    <       0.00013873 Ry

     iteration #  4     ecut=    70.00 Ry     beta= 0.70
     Davidson diagonalization with overlap
     ethr =  7.71E-07,  avg # of iterations =  1.7

     total cpu time spent up to now is        3.8 secs

     total energy              =    -339.59642622 Ry
     Harris-Foulkes estimate   =    -339.59642601 Ry
     estimated scf accuracy    <       0.00000043 Ry

     iteration #  5     ecut=    70.00 Ry     beta= 0.70
     Davidson diagonalization with overlap
     ethr =  2.38E-09,  avg # of iterations =  3.3

     total cpu time spent up to now is        4.4 secs

     total energy              =    -339.59642675 Ry
     Harris-Foulkes estimate   =    -339.59642677 Ry
     estimated scf accuracy    <       0.00000005 Ry

     iteration #  6     ecut=    70.00 Ry     beta= 0.70
     Davidson diagonalization with overlap
     ethr =  3.05E-10,  avg # of iterations =  1.3

     total cpu time spent up to now is        4.9 secs

     End of self-consistent calculation

          k = 0.0000 0.0000 0.0000 (   725 PWs)   bands (ev):

   -85.2769 -45.5320 -45.5320 -45.5320   8.8267  15.9230  15.9230  15.9230
    17.0327  17.0327  41.4906  45.4392  45.4392

          k =-0.1000 0.1000-0.1000 (   728 PWs)   bands (ev):

   -85.2737 -45.5535 -45.5352 -45.5352   9.2163  15.8188  16.0067  16.0067
    16.9995  16.9995  39.7786  42.8071  44.6354

          k =-0.2000 0.2000-0.2000 (   718 PWs)   bands (ev):

   -85.2651 -45.6087 -45.5431 -45.5431  10.3254  15.6010  16.1330  16.1330
    17.0215  17.0215  34.8642  42.0198  43.6230

          k =-0.3000 0.3000-0.3000 (   745 PWs)   bands (ev):

   -85.2552 -45.6774 -45.5537 -45.5537  11.8762  15.5908  16.0736  16.0736
    17.2928  17.2928  29.9906  41.1202  42.9612

          k =-0.4000 0.4000-0.4000 (   739 PWs)   bands (ev):

   -85.2466 -45.7321 -45.5615 -45.5615  13.0356  15.9362  15.9362  16.4734
    17.6317  17.6317  25.8561  40.3070  42.6495

          k = 0.5000-0.5000 0.5000 (   718 PWs)   bands (ev):

   -85.2430 -45.7525 -45.5640 -45.5640  13.3104  15.8760  15.8760  17.5497
    17.7771  17.7771  23.7955  39.9930  42.5803

          k = 0.0000 0.2000 0.0000 (   721 PWs)   bands (ev):

   -85.2725 -45.5528 -45.5399 -45.5399   9.3452  15.7313  16.0713  16.0713
    16.8594  17.1005  40.5663  42.4813  42.4813

          k =-0.1000 0.3000-0.1000 (   725 PWs)   bands (ev):

   -85.2659 -45.5942 -45.5493 -45.5462  10.2128  15.5093  16.2045  16.2334
    16.7665  17.1787  36.8130  40.8955  40.9306

          k =-0.2000 0.4000-0.2000 (   723 PWs)   bands (ev):

   -85.2561 -45.6561 -45.5598 -45.5558  11.6414  15.3444  16.0640  16.2593
    17.1313  17.4006  31.8050  39.9391  40.0813

          k =-0.3000 0.5000-0.3000 (   730 PWs)   bands (ev):

   -85.2471 -45.7133 -45.5678 -45.5675  13.0138  15.6064  15.8844  16.1391
    17.6860  17.8967  27.3183  39.1203  39.6840

          k = 0.6000-0.4000 0.6000 (   728 PWs)   bands (ev):

   -85.2421 -45.7438 -45.5771 -45.5690  13.5132  15.6819  16.0341  16.4237
    17.7864  19.0301  24.1539  38.1184  40.2432

          k = 0.5000-0.3000 0.5000 (   732 PWs)   bands (ev):

   -85.2433 -45.7369 -45.5798 -45.5644  13.4407  15.7374  16.0352  16.2772
    17.5928  18.7696  24.9528  37.4123  41.2247

          k = 0.4000-0.2000 0.4000 (   739 PWs)   bands (ev):

   -85.2501 -45.6956 -45.5749 -45.5552  12.6410  15.5267  15.9237  16.1526
    17.1852  17.9430  28.7391  37.2704  42.3520

          k = 0.3000-0.1000 0.3000 (   730 PWs)   bands (ev):

   -85.2597 -45.6352 -45.5633 -45.5445  11.1292  15.4282  16.1056  16.2797
    16.8069  17.4202  33.4452  37.7242  44.0759

          k = 0.2000 0.0000 0.2000 (   723 PWs)   bands (ev):

   -85.2687 -45.5807 -45.5482 -45.5369   9.8473  15.6444  16.1214  16.1378
    16.8304  17.1234  38.1196  39.1602  44.4843

          k = 0.0000 0.4000 0.0000 (   721 PWs)   bands (ev):

   -85.2613 -45.6063 -45.5605 -45.5605  10.7985  15.2455  16.4757  16.4948
    16.4948  17.2797  38.8102  38.8103  39.2178

          k =-0.1000 0.5000-0.1000 (   727 PWs)   bands (ev):

   -85.2534 -45.6494 -45.5730 -45.5725  11.9495  14.9922  16.1343  16.6634
    17.0909  17.4613  34.1045  37.4537  38.1729

          k =-0.2000 0.6000-0.2000 (   725 PWs)   bands (ev):

   -85.2449 -45.6955 -45.5893 -45.5805  13.2484  14.9184  15.8367  16.6007
    17.7289  18.2049  29.3971  36.1345  36.9331

          k = 0.7000-0.3000 0.7000 (   726 PWs)   bands (ev):

   -85.2393 -45.7235 -45.6070 -45.5818  13.9584  15.0659  15.8209  16.4720
    17.8127  20.0622  25.4225  34.3295  37.3509

          k = 0.6000-0.2000 0.6000 (   721 PWs)   bands (ev):

   -85.2386 -45.7240 -45.6184 -45.5754  14.0910  15.2092  15.8193  16.4004
    17.5940  20.8090  24.5037  33.0891  38.7200

          k = 0.5000-0.1000 0.5000 (   730 PWs)   bands (ev):

   -85.2433 -45.7006 -45.6158 -45.5643  13.7092  15.3328  15.5348  16.4367
    17.1527  19.1744  28.0180  32.5575  40.9116

          k = 0.4000 0.0000 0.4000 (   728 PWs)   bands (ev):

   -85.2513 -45.6668 -45.5943 -45.5525  12.4565  15.2324  15.8695  16.5612
    16.6842  18.1055  32.2231  33.0785  43.1373

          k = 0.0000 0.6000 0.0000 (   721 PWs)   bands (ev):

   -85.2475 -45.6707 -45.5861 -45.5861  12.6351  14.6748  16.5231  17.1071
    17.1071  17.5050  35.3338  35.6765  35.6765

          k =-0.1000 0.7000-0.1000 (   724 PWs)   bands (ev):

   -85.2408 -45.7005 -45.6024 -45.5957  13.3815  14.4933  16.5026  17.1923
    17.7365  18.2399  31.8848  32.9516  34.7874

          k = 0.8000-0.2000 0.8000 (   729 PWs)   bands (ev):

   -85.2360 -45.7147 -45.6280 -45.5976  13.9566  14.5174  16.2081  17.0663
    17.8492  20.5090  27.7099  30.8401  34.9382

          k = 0.7000-0.1000 0.7000 (   721 PWs)   bands (ev):

   -85.2345 -45.7038 -45.6568 -45.5905  14.4044  14.6582  15.8406  16.9135
    17.6542  23.1372  24.5140  29.4296  36.1356

          k = 0.6000-0.0000 0.6000 (   728 PWs)   bands (ev):

   -85.2374 -45.6918 -45.6591 -45.5780  14.4881  15.0033  15.4067  16.7339
    17.3184  21.0774  27.0159  29.2334  38.2083

          k = 0.0000 0.8000 0.0000 (   729 PWs)   bands (ev):

   -85.2364 -45.7219 -45.6071 -45.6071  13.4309  14.2348  17.6902  17.7021
    17.7021  18.3781  30.1450  33.4961  33.4961

          k = 0.9000-0.1000 0.9000 (   726 PWs)   bands (ev):

   -85.2332 -45.7308 -45.6214 -45.6101  13.6102  14.1955  17.2900  17.5890
    17.8985  20.4819  28.2178  30.7136  33.2918

          k = 0.8000 0.0000 0.8000 (   728 PWs)   bands (ev):

   -85.2325 -45.7173 -45.6474 -45.6038  13.9706  14.3781  16.5403  17.3605
    17.7915  22.7657  26.8074  27.8439  34.2330

          k = 0.0000-1.0000 0.0000 (   740 PWs)   bands (ev):

   -85.2324 -45.7410 -45.6153 -45.6153  13.4685  14.0707  17.7619  17.9614
    17.9614  20.2987  27.2511  32.6961  32.6961

          k =-0.2000 0.4000 0.0000 (   723 PWs)   bands (ev):

   -85.2585 -45.6299 -45.5699 -45.5516  11.2480  15.2660  16.1176  16.5111
    16.7303  17.4470  35.3204  35.9959  41.9306

          k =-0.3000 0.5000-0.1000 (   729 PWs)   bands (ev):

   -85.2495 -45.6777 -45.5891 -45.5613  12.6770  15.1403  15.8200  16.5137
    17.1092  18.0595  30.7174  35.0557  39.6012

          k = 0.6000-0.4000 0.8000 (   729 PWs)   bands (ev):

   -85.2422 -45.7176 -45.6002 -45.5717  13.7134  15.3282  15.6897  16.3735
    17.5628  19.2182  26.4452  35.0554  37.5947

          k = 0.5000-0.3000 0.7000 (   726 PWs)   bands (ev):

   -85.2393 -45.7329 -45.6035 -45.5763  13.9403  15.3104  15.9652  16.2975
    17.7164  20.5405  24.0021  35.4352  36.5197

          k =-0.2000 0.6000 0.0000 (   722 PWs)   bands (ev):

   -85.2460 -45.6799 -45.5968 -45.5792  13.0027  14.7769  15.9479  17.1068
    17.1607  18.0655  32.9115  33.4587  36.0736

          k = 0.7000-0.3000 0.9000 (   725 PWs)   bands (ev):

   -85.2393 -45.7045 -45.6188 -45.5885  13.9260  14.7571  15.7010  16.9587
    17.6116  19.5486  28.6663  32.9235  33.8920

          k = 0.6000-0.2000 0.8000 (   725 PWs)   bands (ev):

   -85.2359 -45.7122 -45.6373 -45.5911  14.4008  14.8010  15.6350  16.7688
    17.7292  21.9175  24.9588  31.8625  33.8537

          k = 0.5000-0.1000 0.7000 (   726 PWs)   bands (ev):

   -85.2370 -45.7041 -45.6438 -45.5841  14.4760  14.9479  15.4168  16.7249
    17.5247  21.2493  26.0244  30.8438  35.2129

          k = 0.4000 0.0000 0.6000 (   732 PWs)   bands (ev):

   -85.2423 -45.6927 -45.6248 -45.5719  13.8634  15.0581  15.4164  16.7922
    17.1404  19.2810  29.7074  30.9514  37.1995

          k = 0.8000-0.2000 1.0000 (   729 PWs)   bands (ev):

   -85.2360 -45.7161 -45.6188 -45.6050  13.7287  14.3911  16.5248  17.5109
    17.6998  19.7894  30.3934  31.1560  31.9737

          k = 0.7000-0.1000 0.9000 (   728 PWs)   bands (ev):

   -85.2332 -45.7119 -45.6440 -45.6072  14.0828  14.5127  16.1546  17.2411
    17.8523  22.3152  27.4067  28.8162  32.0606

          k = 0.6000 0.0000 0.8000 (   719 PWs)   bands (ev):

   -85.2334 -45.6867 -45.6749 -45.5982  14.4955  14.7114  15.6388  16.9806
    17.7068  23.9728  25.0527  28.3111  33.3176

          k =-0.2000-1.0000 0.0000 (   724 PWs)   bands (ev):

   -85.2321 -45.7287 -45.6270 -45.6154  13.7332  14.2470  16.9682  17.5353
    17.9624  21.7273  27.3760  30.4897  31.2690

          k = 0.6000-0.2000 1.0000 (   737 PWs)   bands (ev):

   -85.2351 -45.6997 -45.6495 -45.6008  14.3761  14.8645  15.4126  17.0529
    17.6962  21.6977  27.9341  29.6042  31.6219

          k = 0.5000-0.1000 0.9000 (   728 PWs)   bands (ev):

   -85.2332 -45.6895 -45.6671 -45.6071  14.4959  15.0016  15.2916  16.9288
    17.8381  24.2772  25.1105  29.6708  30.3810

          k =-0.4000-1.0000 0.0000 (   726 PWs)   bands (ev):

   -85.2321 -45.6973 -45.6586 -45.6161  14.2695  14.7848  15.7044  17.0543
    17.9629  24.2745  27.2629  27.7911  29.4040

     the Fermi energy is    17.8032 ev

!    total energy              =    -339.59642675 Ry
     Harris-Foulkes estimate   =    -339.59642675 Ry
     estimated scf accuracy    <          3.6E-09 Ry

     The total energy is the sum of the following terms:

     one-electron contribution =    -186.68933028 Ry
     hartree contribution      =     104.80293282 Ry
     xc contribution           =     -34.32512397 Ry
     ewald contribution        =    -223.38275369 Ry
     smearing contrib. (-TS)   =      -0.00215163 Ry

     convergence has been achieved in   6 iterations

     Forces acting on atoms (cartesian axes, Ry/au):

     atom    1 type  1   force =     0.00000000    0.00000000    0.00000000

     Total force =     0.000000     Total SCF correction =     0.000000


     Computing stress (Cartesian axis) and pressure

          total   stress  (Ry/bohr**3)                   (kbar)     P=  -52.03
  -0.00035368  -0.00000000  -0.00000000        -52.03     -0.00     -0.00
  -0.00000000  -0.00035368   0.00000000         -0.00    -52.03      0.00
  -0.00000000   0.00000000  -0.00035368         -0.00      0.00    -52.03


     Writing output data file Ni.save/

     init_run     :      0.37s CPU      0.38s WALL (       1 calls)
     electrons    :      3.47s CPU      3.68s WALL (       1 calls)
     forces       :      0.05s CPU      0.05s WALL (       1 calls)
     stress       :      0.15s CPU      0.15s WALL (       1 calls)

     Called by init_run:
     wfcinit      :      0.18s CPU      0.19s WALL (       1 calls)
     potinit      :      0.01s CPU      0.01s WALL (       1 calls)
     hinit0       :      0.17s CPU      0.17s WALL (       1 calls)

     Called by electrons:
     c_bands      :      2.92s CPU      3.09s WALL (       7 calls)
     sum_band     :      0.49s CPU      0.52s WALL (       7 calls)
     v_of_rho     :      0.02s CPU      0.02s WALL (       7 calls)
     newd         :      0.04s CPU      0.04s WALL (       7 calls)
     mix_rho      :      0.00s CPU      0.00s WALL (       7 calls)

     Called by c_bands:
     init_us_2    :      0.08s CPU      0.08s WALL (     799 calls)
     cegterg      :      2.80s CPU      2.97s WALL (     329 calls)

     Called by sum_band:
     sum_band:bec :      0.00s CPU      0.00s WALL (     329 calls)
     addusdens    :      0.04s CPU      0.04s WALL (       7 calls)

     Called by *egterg:
     h_psi        :      2.11s CPU      2.25s WALL (    1182 calls)
     s_psi        :      0.07s CPU      0.07s WALL (    1182 calls)
     g_psi        :      0.01s CPU      0.01s WALL (     806 calls)
     cdiaghg      :      0.38s CPU      0.40s WALL (    1088 calls)

     Called by h_psi:
     h_psi:pot    :      2.10s CPU      2.24s WALL (    1182 calls)
     h_psi:calbec :      0.10s CPU      0.11s WALL (    1182 calls)
     vloc_psi     :      1.93s CPU      2.06s WALL (    1182 calls)
     add_vuspsi   :      0.07s CPU      0.07s WALL (    1182 calls)

     General routines
     calbec       :      0.17s CPU      0.17s WALL (    1746 calls)
     fft          :      0.02s CPU      0.02s WALL (     104 calls)
     ffts         :      0.00s CPU      0.00s WALL (       7 calls)
     fftw         :      2.16s CPU      2.30s WALL (   26405 calls)

     Parallel routines
     fft_scatt_xy :      0.17s CPU      0.18s WALL (   26516 calls)
     fft_scatt_yz :      0.61s CPU      0.64s WALL (   26516 calls)

     PWSCF        :     4.91s CPU         5.20s WALL


   This run was terminated on:  22:48:34  26Mar2024            

=------------------------------------------------------------------------------=
   JOB DONE.
=------------------------------------------------------------------------------=
