
     Program PWSCF v.6.3MaX starts on 26Mar2024 at 22:30:53 

     This program is part of the open-source Quantum ESPRESSO suite
     for quantum simulation of materials; please cite
         "P. Giannozzi et al., J. Phys.:Condens. Matter 21 395502 (2009);
         "P. Giannozzi et al., J. Phys.:Condens. Matter 29 465901 (2017);
          URL http://www.quantum-espresso.org", 
     in publications or presentations arising from this work. More details at
     http://www.quantum-espresso.org/quote

     Parallel version (MPI), running on     5 processors

     MPI processes distributed on     1 nodes
     R & G space division:  proc/nbgrp/npool/nimage =       5
     Waiting for input...
     Reading input from standard input

     Current dimensions of program PWSCF are:
     Max number of different atomic species (ntypx) = 10
     Max number of k-points (npk) =  40000
     Max angular momentum in pseudopotentials (lmaxx) =  3
               file Ni.pbesol-spn-kjpaw_psl.1.0.0.UPF: wavefunction(s)  3P 3D renormalized

     Subspace diagonalization in iterative solution of the eigenvalue problem:
     a serial algorithm will be used


     Parallelization info
     --------------------
     sticks:   dense  smooth     PW     G-vecs:    dense   smooth      PW
     Min          37      37     12                  327      327      67
     Max          38      38     13                  329      329      70
     Sum         187     187     61                 1639     1639     339



     bravais-lattice index     =            2
     lattice parameter (alat)  =       6.6500  a.u.
     unit-cell volume          =      73.5199 (a.u.)^3
     number of atoms/cell      =            1
     number of atomic types    =            1
     number of electrons       =        18.00
     number of Kohn-Sham states=           13
     kinetic-energy cutoff     =      30.0000  Ry
     charge density cutoff     =     120.0000  Ry
     convergence threshold     =      1.0E-08
     mixing beta               =       0.7000
     number of iterations used =            8  plain     mixing
     Exchange-correlation      = SLA PW PSX PSC ( 1  4 10  8 0 0)

     celldm(1)=   6.650000  celldm(2)=   0.000000  celldm(3)=   0.000000
     celldm(4)=   0.000000  celldm(5)=   0.000000  celldm(6)=   0.000000

     crystal axes: (cart. coord. in units of alat)
               a(1) = (  -0.500000   0.000000   0.500000 )  
               a(2) = (   0.000000   0.500000   0.500000 )  
               a(3) = (  -0.500000   0.500000   0.000000 )  

     reciprocal axes: (cart. coord. in units 2 pi/alat)
               b(1) = ( -1.000000 -1.000000  1.000000 )  
               b(2) = (  1.000000  1.000000  1.000000 )  
               b(3) = ( -1.000000  1.000000 -1.000000 )  


     PseudoPot. # 1 for Ni read from file:
     /home/lorenzo/pseudos/Ni/Ni.pbesol-spn-kjpaw_psl.1.0.0.UPF
     MD5 check sum: ef06ee83099c2673f0516457bd731f51
     Pseudo is Projector augmented-wave + core cor, Zval = 18.0
     Generated using "atomic" code by A. Dal Corso v.6.3
     Shape of augmentation charge: PSQ
     Using radial grid of 1195 points,  6 beta functions with: 
                l(1) =   0
                l(2) =   0
                l(3) =   1
                l(4) =   1
                l(5) =   2
                l(6) =   2
     Q(r) pseudized with 0 coefficients 


     atomic species   valence    mass     pseudopotential
        Ni            18.00    58.69340     Ni( 1.00)

     48 Sym. Ops., with inversion, found



   Cartesian axes

     site n.     atom                  positions (alat units)
         1           Ni  tau(   1) = (   0.0000000   0.0000000   0.0000000  )

     number of k points=    16  gaussian smearing, width (Ry)=  0.0100
                       cart. coord. in units 2pi/alat
        k(    1) = (   0.0000000   0.0000000   0.0000000), wk =   0.0092593
        k(    2) = (  -0.1666667   0.1666667  -0.1666667), wk =   0.0740741
        k(    3) = (  -0.3333333   0.3333333  -0.3333333), wk =   0.0740741
        k(    4) = (   0.5000000  -0.5000000   0.5000000), wk =   0.0370370
        k(    5) = (   0.0000000   0.3333333   0.0000000), wk =   0.0555556
        k(    6) = (  -0.1666667   0.5000000  -0.1666667), wk =   0.2222222
        k(    7) = (   0.6666667  -0.3333333   0.6666667), wk =   0.2222222
        k(    8) = (   0.5000000  -0.1666667   0.5000000), wk =   0.2222222
        k(    9) = (   0.3333333   0.0000000   0.3333333), wk =   0.1111111
        k(   10) = (   0.0000000   0.6666667   0.0000000), wk =   0.0555556
        k(   11) = (   0.8333333  -0.1666667   0.8333333), wk =   0.2222222
        k(   12) = (   0.6666667  -0.0000000   0.6666667), wk =   0.1111111
        k(   13) = (   0.0000000  -1.0000000   0.0000000), wk =   0.0277778
        k(   14) = (   0.6666667  -0.3333333   1.0000000), wk =   0.2222222
        k(   15) = (   0.5000000  -0.1666667   0.8333333), wk =   0.2222222
        k(   16) = (  -0.3333333  -1.0000000   0.0000000), wk =   0.1111111

     Dense  grid:     1639 G-vectors     FFT dimensions: (  18,  18,  18)

     Estimated max dynamical RAM per process >       2.31 MB

     Estimated total dynamical RAM >      11.56 MB

     Check: negative/imaginary core charge=   -0.000070    0.000000

     Initial potential from superposition of free atoms

     starting charge   17.99977, renormalised to   18.00000
     Starting wfcs are   10 randomized atomic wfcs +    3 random wfcs
     Checking if some PAW data can be deallocated... 

     total cpu time spent up to now is        1.0 secs

     Self-consistent Calculation

     iteration #  1     ecut=    30.00 Ry     beta= 0.70
     Davidson diagonalization with overlap
     ethr =  1.00E-02,  avg # of iterations =  4.4

     total cpu time spent up to now is        1.2 secs

     total energy              =    -421.57232555 Ry
     Harris-Foulkes estimate   =    -422.55729757 Ry
     estimated scf accuracy    <       1.26321028 Ry

     iteration #  2     ecut=    30.00 Ry     beta= 0.70
     Davidson diagonalization with overlap
     ethr =  7.02E-03,  avg # of iterations =  2.0

     total cpu time spent up to now is        1.4 secs

     total energy              =    -421.54569679 Ry
     Harris-Foulkes estimate   =    -423.09673940 Ry
     estimated scf accuracy    <       3.99680426 Ry

     iteration #  3     ecut=    30.00 Ry     beta= 0.70
     Davidson diagonalization with overlap
     ethr =  7.02E-03,  avg # of iterations =  1.9

     total cpu time spent up to now is        1.6 secs

     total energy              =    -422.20659504 Ry
     Harris-Foulkes estimate   =    -422.21103244 Ry
     estimated scf accuracy    <       0.01349763 Ry

     iteration #  4     ecut=    30.00 Ry     beta= 0.70
     Davidson diagonalization with overlap
     ethr =  7.50E-05,  avg # of iterations =  2.1

     total cpu time spent up to now is        1.8 secs

     total energy              =    -422.20815921 Ry
     Harris-Foulkes estimate   =    -422.20825649 Ry
     estimated scf accuracy    <       0.00038084 Ry

     iteration #  5     ecut=    30.00 Ry     beta= 0.70
     Davidson diagonalization with overlap
     ethr =  2.12E-06,  avg # of iterations =  2.0

     total cpu time spent up to now is        2.0 secs

     total energy              =    -422.20821762 Ry
     Harris-Foulkes estimate   =    -422.20822866 Ry
     estimated scf accuracy    <       0.00002843 Ry

     iteration #  6     ecut=    30.00 Ry     beta= 0.70
     Davidson diagonalization with overlap
     ethr =  1.58E-07,  avg # of iterations =  1.2

     total cpu time spent up to now is        2.1 secs

     total energy              =    -422.20822180 Ry
     Harris-Foulkes estimate   =    -422.20822181 Ry
     estimated scf accuracy    <       0.00000002 Ry

     iteration #  7     ecut=    30.00 Ry     beta= 0.70
     Davidson diagonalization with overlap
     ethr =  1.16E-10,  avg # of iterations =  2.4

     total cpu time spent up to now is        2.3 secs

     End of self-consistent calculation

          k = 0.0000 0.0000 0.0000 (   181 PWs)   bands (ev):

   -89.0379 -42.1148 -42.1148 -42.1148   9.4337  18.9044  18.9044  18.9044
    19.4567  19.4567  41.7699  45.8040  45.8040

          k =-0.1667 0.1667-0.1667 (   193 PWs)   bands (ev):

   -89.0806 -44.4464 -42.6841 -42.6841  10.4615  16.8364  17.8553  17.8553
    18.7774  18.7774  36.3380  42.6080  44.0252

          k =-0.3333 0.3333-0.3333 (   205 PWs)   bands (ev):

   -89.1389 -45.2481 -44.1108 -44.1108  13.0395  16.1391  17.1364  17.1364
    17.3653  17.3653  28.5835  41.0865  42.7192

          k = 0.5000-0.5000 0.5000 (   210 PWs)   bands (ev):

   -89.1504 -45.7779 -44.4492 -44.4492  14.0994  16.5659  16.5659  17.3475
    17.3475  17.6092  23.8233  40.2659  42.7063

          k = 0.0000 0.3333 0.0000 (   202 PWs)   bands (ev):

   -89.1291 -44.9305 -43.6887 -43.6887  10.7889  16.7128  16.7128  17.5063
    17.5209  17.9557  39.7038  39.7237  39.7237

          k =-0.1667 0.5000-0.1667 (   198 PWs)   bands (ev):

   -89.0950 -44.9704 -43.4044 -43.2069  12.9471  16.0453  17.2929  17.4515
    18.4799  18.5859  31.6573  37.9927  38.4291

          k = 0.6667-0.3333 0.6667 (   203 PWs)   bands (ev):

   -89.1130 -44.9703 -44.2080 -43.8266  14.7109  15.9129  17.0010  17.4643
    17.6212  19.9549  25.1884  35.6500  38.2404

          k = 0.5000-0.1667 0.5000 (   205 PWs)   bands (ev):

   -89.1303 -44.8222 -44.5343 -44.1705  14.4445  15.9017  16.5403  17.0451
    17.6160  19.0317  27.0561  34.0760  40.9931

          k = 0.3333 0.0000 0.3333 (   200 PWs)   bands (ev):

   -89.1144 -45.0448 -43.7930 -43.2316  12.0613  15.8630  17.1189  17.6059
    18.0876  18.3441  33.7068  35.0763  44.6621

          k = 0.0000 0.6667 0.0000 (   202 PWs)   bands (ev):

   -89.1195 -44.9393 -44.0104 -44.0104  13.8491  16.5625  17.1529  17.1529
    17.9683  17.9937  33.4237  34.8168  34.8168

          k = 0.8333-0.1667 0.8333 (   209 PWs)   bands (ev):

   -89.1577 -45.3075 -44.9752 -44.6463  14.3372  15.1951  16.5304  17.3297
    17.7051  20.3883  28.5997  30.0367  34.2395

          k = 0.6667-0.0000 0.6667 (   212 PWs)   bands (ev):

   -89.1643 -45.2309 -45.1642 -45.0286  14.8382  15.0645  15.7393  16.7869
    17.6155  22.6423  25.1130  28.7442  36.5305

          k = 0.0000-1.0000 0.0000 (   206 PWs)   bands (ev):

   -89.1295 -45.3718 -44.3521 -44.3521  14.1488  15.4832  17.7979  17.7979
    18.0337  20.3573  27.2276  32.8228  32.8228

          k = 0.6667-0.3333 1.0000 (   206 PWs)   bands (ev):

   -89.1389 -45.1194 -44.7555 -44.0850  14.5429  15.5942  16.2662  17.3371
    17.4623  19.3945  29.7529  31.3792  34.9031

          k = 0.5000-0.1667 0.8333 (   202 PWs)   bands (ev):

   -89.1090 -44.9306 -44.2282 -43.7935  15.3887  15.5275  16.5606  17.6120
    18.0925  23.0628  24.7811  31.2206  32.6689

          k =-0.3333-1.0000 0.0000 (   208 PWs)   bands (ev):

   -89.1539 -45.1255 -44.8981 -44.7828  14.8093  15.6678  16.2110  16.8664
    17.5689  23.2310  27.6218  28.2388  30.5043

     the Fermi energy is    18.3828 ev

!    total energy              =    -422.20822181 Ry
     Harris-Foulkes estimate   =    -422.20822181 Ry
     estimated scf accuracy    <          5.0E-10 Ry

     total all-electron energy =     -3034.666566 Ry

     The total energy is the sum of the following terms:

     one-electron contribution =    -177.64103737 Ry
     hartree contribution      =     100.82231570 Ry
     xc contribution           =     -33.62021818 Ry
     ewald contribution        =    -223.38275371 Ry
     one-center paw contrib.   =     -88.38578530 Ry
     smearing contrib. (-TS)   =      -0.00074296 Ry

     convergence has been achieved in   7 iterations

     Forces acting on atoms (cartesian axes, Ry/au):

     atom    1 type  1   force =     0.00000000    0.00000000    0.00000000

     Total force =     0.000000     Total SCF correction =     0.000000


     Computing stress (Cartesian axis) and pressure

          total   stress  (Ry/bohr**3)                   (kbar)     P=********
  -0.23896954   0.00000000   0.00000000     -35153.63      0.00      0.00
   0.00000000  -0.23896954  -0.00000000          0.00 -35153.63     -0.00
   0.00000000  -0.00000000  -0.23896954          0.00     -0.00 -35153.63


     Writing output data file Ni.save/

     init_run     :      0.23s CPU      0.25s WALL (       1 calls)
     electrons    :      1.24s CPU      1.38s WALL (       1 calls)
     forces       :      0.01s CPU      0.01s WALL (       1 calls)
     stress       :      0.03s CPU      0.03s WALL (       1 calls)

     Called by init_run:
     wfcinit      :      0.03s CPU      0.03s WALL (       1 calls)
     potinit      :      0.09s CPU      0.11s WALL (       1 calls)
     hinit0       :      0.09s CPU      0.09s WALL (       1 calls)

     Called by electrons:
     c_bands      :      0.50s CPU      0.54s WALL (       7 calls)
     sum_band     :      0.09s CPU      0.10s WALL (       7 calls)
     v_of_rho     :      0.01s CPU      0.01s WALL (       8 calls)
     newd         :      0.01s CPU      0.01s WALL (       8 calls)
     PAW_pot      :      0.71s CPU      0.80s WALL (       8 calls)
     mix_rho      :      0.00s CPU      0.00s WALL (       7 calls)

     Called by c_bands:
     init_us_2    :      0.01s CPU      0.01s WALL (     272 calls)
     cegterg      :      0.49s CPU      0.53s WALL (     112 calls)

     Called by sum_band:
     sum_band:bec :      0.00s CPU      0.00s WALL (     112 calls)
     addusdens    :      0.01s CPU      0.01s WALL (       7 calls)

     Called by *egterg:
     h_psi        :      0.33s CPU      0.36s WALL (     385 calls)
     s_psi        :      0.01s CPU      0.01s WALL (     385 calls)
     g_psi        :      0.00s CPU      0.00s WALL (     257 calls)
     cdiaghg      :      0.11s CPU      0.13s WALL (     369 calls)

     Called by h_psi:
     h_psi:pot    :      0.33s CPU      0.36s WALL (     385 calls)
     h_psi:calbec :      0.02s CPU      0.02s WALL (     385 calls)
     vloc_psi     :      0.30s CPU      0.33s WALL (     385 calls)
     add_vuspsi   :      0.01s CPU      0.01s WALL (     385 calls)

     General routines
     calbec       :      0.02s CPU      0.03s WALL (     577 calls)
     fft          :      0.01s CPU      0.01s WALL (     114 calls)
     ffts         :      0.00s CPU      0.00s WALL (       7 calls)
     fftw         :      0.34s CPU      0.36s WALL (    9078 calls)

     Parallel routines
     fft_scatt_xy :      0.03s CPU      0.03s WALL (    9199 calls)
     fft_scatt_yz :      0.12s CPU      0.13s WALL (    9199 calls)

     PWSCF        :     2.25s CPU         2.45s WALL


   This run was terminated on:  22:30:56  26Mar2024            

=------------------------------------------------------------------------------=
   JOB DONE.
=------------------------------------------------------------------------------=
