
     Program PWSCF v.6.3MaX starts on 26Mar2024 at 22:35:26 

     This program is part of the open-source Quantum ESPRESSO suite
     for quantum simulation of materials; please cite
         "P. Giannozzi et al., J. Phys.:Condens. Matter 21 395502 (2009);
         "P. Giannozzi et al., J. Phys.:Condens. Matter 29 465901 (2017);
          URL http://www.quantum-espresso.org", 
     in publications or presentations arising from this work. More details at
     http://www.quantum-espresso.org/quote

     Parallel version (MPI), running on     5 processors

     MPI processes distributed on     1 nodes
     R & G space division:  proc/nbgrp/npool/nimage =       5
     Waiting for input...
     Reading input from standard input

     Current dimensions of program PWSCF are:
     Max number of different atomic species (ntypx) = 10
     Max number of k-points (npk) =  40000
     Max angular momentum in pseudopotentials (lmaxx) =  3
               file Ni.pbe-spn-kjpaw_psl.1.0.0.UPF: wavefunction(s)  3P 3D renormalized

     Subspace diagonalization in iterative solution of the eigenvalue problem:
     a serial algorithm will be used


     Parallelization info
     --------------------
     sticks:   dense  smooth     PW     G-vecs:    dense   smooth      PW
     Min          49      49     17                  513      513     106
     Max          51      51     17                  513      513     107
     Sum         253     253     85                 2565     2565     531



     bravais-lattice index     =            2
     lattice parameter (alat)  =       6.6500  a.u.
     unit-cell volume          =      73.5199 (a.u.)^3
     number of atoms/cell      =            1
     number of atomic types    =            1
     number of electrons       =        18.00
     number of Kohn-Sham states=           13
     kinetic-energy cutoff     =      40.0000  Ry
     charge density cutoff     =     160.0000  Ry
     convergence threshold     =      1.0E-08
     mixing beta               =       0.7000
     number of iterations used =            8  plain     mixing
     Exchange-correlation      = SLA PW PBX PBC ( 1  4  3  4 0 0)

     celldm(1)=   6.650000  celldm(2)=   0.000000  celldm(3)=   0.000000
     celldm(4)=   0.000000  celldm(5)=   0.000000  celldm(6)=   0.000000

     crystal axes: (cart. coord. in units of alat)
               a(1) = (  -0.500000   0.000000   0.500000 )  
               a(2) = (   0.000000   0.500000   0.500000 )  
               a(3) = (  -0.500000   0.500000   0.000000 )  

     reciprocal axes: (cart. coord. in units 2 pi/alat)
               b(1) = ( -1.000000 -1.000000  1.000000 )  
               b(2) = (  1.000000  1.000000  1.000000 )  
               b(3) = ( -1.000000  1.000000 -1.000000 )  


     PseudoPot. # 1 for Ni read from file:
     /home/lorenzo/pseudos/Ni/Ni.pbe-spn-kjpaw_psl.1.0.0.UPF
     MD5 check sum: 6e86b733589c3ad8389697b807d86aa7
     Pseudo is Projector augmented-wave + core cor, Zval = 18.0
     Generated using "atomic" code by A. Dal Corso v.6.3
     Shape of augmentation charge: PSQ
     Using radial grid of 1195 points,  6 beta functions with: 
                l(1) =   0
                l(2) =   0
                l(3) =   1
                l(4) =   1
                l(5) =   2
                l(6) =   2
     Q(r) pseudized with 0 coefficients 


     atomic species   valence    mass     pseudopotential
        Ni            18.00    58.69340     Ni( 1.00)

     48 Sym. Ops., with inversion, found



   Cartesian axes

     site n.     atom                  positions (alat units)
         1           Ni  tau(   1) = (   0.0000000   0.0000000   0.0000000  )

     number of k points=    29  gaussian smearing, width (Ry)=  0.0100
                       cart. coord. in units 2pi/alat
        k(    1) = (   0.0000000   0.0000000   0.0000000), wk =   0.0039062
        k(    2) = (  -0.1250000   0.1250000  -0.1250000), wk =   0.0312500
        k(    3) = (  -0.2500000   0.2500000  -0.2500000), wk =   0.0312500
        k(    4) = (  -0.3750000   0.3750000  -0.3750000), wk =   0.0312500
        k(    5) = (   0.5000000  -0.5000000   0.5000000), wk =   0.0156250
        k(    6) = (   0.0000000   0.2500000   0.0000000), wk =   0.0234375
        k(    7) = (  -0.1250000   0.3750000  -0.1250000), wk =   0.0937500
        k(    8) = (  -0.2500000   0.5000000  -0.2500000), wk =   0.0937500
        k(    9) = (   0.6250000  -0.3750000   0.6250000), wk =   0.0937500
        k(   10) = (   0.5000000  -0.2500000   0.5000000), wk =   0.0937500
        k(   11) = (   0.3750000  -0.1250000   0.3750000), wk =   0.0937500
        k(   12) = (   0.2500000   0.0000000   0.2500000), wk =   0.0468750
        k(   13) = (   0.0000000   0.5000000   0.0000000), wk =   0.0234375
        k(   14) = (  -0.1250000   0.6250000  -0.1250000), wk =   0.0937500
        k(   15) = (   0.7500000  -0.2500000   0.7500000), wk =   0.0937500
        k(   16) = (   0.6250000  -0.1250000   0.6250000), wk =   0.0937500
        k(   17) = (   0.5000000   0.0000000   0.5000000), wk =   0.0468750
        k(   18) = (   0.0000000   0.7500000   0.0000000), wk =   0.0234375
        k(   19) = (   0.8750000  -0.1250000   0.8750000), wk =   0.0937500
        k(   20) = (   0.7500000   0.0000000   0.7500000), wk =   0.0468750
        k(   21) = (   0.0000000  -1.0000000   0.0000000), wk =   0.0117188
        k(   22) = (  -0.2500000   0.5000000   0.0000000), wk =   0.0937500
        k(   23) = (   0.6250000  -0.3750000   0.8750000), wk =   0.1875000
        k(   24) = (   0.5000000  -0.2500000   0.7500000), wk =   0.0937500
        k(   25) = (   0.7500000  -0.2500000   1.0000000), wk =   0.0937500
        k(   26) = (   0.6250000  -0.1250000   0.8750000), wk =   0.1875000
        k(   27) = (   0.5000000   0.0000000   0.7500000), wk =   0.0937500
        k(   28) = (  -0.2500000  -1.0000000   0.0000000), wk =   0.0468750
        k(   29) = (  -0.5000000  -1.0000000   0.0000000), wk =   0.0234375

     Dense  grid:     2565 G-vectors     FFT dimensions: (  20,  20,  20)

     Estimated max dynamical RAM per process >       3.36 MB

     Estimated total dynamical RAM >      16.79 MB

     Check: negative/imaginary core charge=   -0.000044    0.000000

     Initial potential from superposition of free atoms

     starting charge   17.99975, renormalised to   18.00000
     Starting wfcs are   10 randomized atomic wfcs +    3 random wfcs
     Checking if some PAW data can be deallocated... 

     total cpu time spent up to now is        1.1 secs

     Self-consistent Calculation

     iteration #  1     ecut=    40.00 Ry     beta= 0.70
     Davidson diagonalization with overlap
     ethr =  1.00E-02,  avg # of iterations =  4.5

     Threshold (ethr) on eigenvalues was too large:
     Diagonalizing with lowered threshold

     Davidson diagonalization with overlap
     ethr =  1.73E-04,  avg # of iterations =  1.2

     total cpu time spent up to now is        1.7 secs

     total energy              =    -428.63070723 Ry
     Harris-Foulkes estimate   =    -428.64612213 Ry
     estimated scf accuracy    <       0.03219762 Ry

     iteration #  2     ecut=    40.00 Ry     beta= 0.70
     Davidson diagonalization with overlap
     ethr =  1.79E-04,  avg # of iterations =  2.1

     total cpu time spent up to now is        2.0 secs

     total energy              =    -428.62253007 Ry
     Harris-Foulkes estimate   =    -428.65248156 Ry
     estimated scf accuracy    <       0.07449719 Ry

     iteration #  3     ecut=    40.00 Ry     beta= 0.70
     Davidson diagonalization with overlap
     ethr =  1.79E-04,  avg # of iterations =  2.0

     total cpu time spent up to now is        2.2 secs

     total energy              =    -428.63847526 Ry
     Harris-Foulkes estimate   =    -428.64050281 Ry
     estimated scf accuracy    <       0.00786254 Ry

     iteration #  4     ecut=    40.00 Ry     beta= 0.70
     Davidson diagonalization with overlap
     ethr =  4.37E-05,  avg # of iterations =  1.5

     total cpu time spent up to now is        2.5 secs

     total energy              =    -428.63936639 Ry
     Harris-Foulkes estimate   =    -428.63937802 Ry
     estimated scf accuracy    <       0.00008119 Ry

     iteration #  5     ecut=    40.00 Ry     beta= 0.70
     Davidson diagonalization with overlap
     ethr =  4.51E-07,  avg # of iterations =  2.2

     total cpu time spent up to now is        2.8 secs

     total energy              =    -428.63939689 Ry
     Harris-Foulkes estimate   =    -428.63939970 Ry
     estimated scf accuracy    <       0.00001138 Ry

     iteration #  6     ecut=    40.00 Ry     beta= 0.70
     Davidson diagonalization with overlap
     ethr =  6.32E-08,  avg # of iterations =  1.0

     total cpu time spent up to now is        3.1 secs

     total energy              =    -428.63939766 Ry
     Harris-Foulkes estimate   =    -428.63939783 Ry
     estimated scf accuracy    <       0.00000064 Ry

     iteration #  7     ecut=    40.00 Ry     beta= 0.70
     Davidson diagonalization with overlap
     ethr =  3.55E-09,  avg # of iterations =  2.0

     total cpu time spent up to now is        3.5 secs

     End of self-consistent calculation

          k = 0.0000 0.0000 0.0000 (   331 PWs)   bands (ev):

   -85.7659 -45.6034 -45.6034 -45.6034   8.9497  15.8039  15.8039  15.8039
    16.8387  16.8387  41.4625  45.3993  45.3993

          k =-0.1250 0.1250-0.1250 (   319 PWs)   bands (ev):

   -85.7571 -45.5177 -45.5177 -45.4007   9.5689  15.7789  15.9717  15.9717
    16.9010  16.9010  38.5623  42.5584  44.2470

          k =-0.2500 0.2500-0.2500 (   311 PWs)   bands (ev):

   -85.7427 -45.4333 -45.3901 -45.3901  11.2069  15.5248  16.1183  16.1183
    17.1522  17.1522  32.3640  41.5938  43.1255

          k =-0.3750 0.3750-0.3750 (   314 PWs)   bands (ev):

   -85.7302 -45.4970 -45.4030 -45.4030  12.9318  15.9570  15.9570  16.1158
    17.5852  17.5852  26.8662  40.4667  42.6063

          k = 0.5000-0.5000 0.5000 (   332 PWs)   bands (ev):

   -85.7301 -45.7327 -45.5810 -45.5810  13.3450  15.7741  15.7741  17.4900
    17.6222  17.6222  23.8759  39.9842  42.5114

          k = 0.0000 0.2500 0.0000 (   315 PWs)   bands (ev):

   -85.7540 -45.4450 -45.4450 -45.4026   9.7736  15.6003  16.1588  16.1588
    16.7229  17.0597  40.0992  41.4259  41.4259

          k =-0.1250 0.3750-0.1250 (   312 PWs)   bands (ev):

   -85.7435 -45.5066 -45.4131 -45.3235  11.0525  15.3348  16.1949  16.3544
    16.8618  17.2531  34.7687  39.5928  40.1182

          k =-0.2500 0.5000-0.2500 (   317 PWs)   bands (ev):

   -85.7324 -45.5415 -45.4704 -45.4217  12.8535  15.3153  15.8878  16.2193
    17.6207  17.6759  28.8821  38.7204  38.8385

          k = 0.6250-0.3750 0.6250 (   314 PWs)   bands (ev):

   -85.7234 -45.5143 -45.4524 -45.3631  13.7191  15.5485  16.1191  16.2158
    17.7310  19.3265  24.5531  37.1266  39.3886

          k = 0.5000-0.2500 0.5000 (   314 PWs)   bands (ev):

   -85.7253 -45.5293 -45.4030 -45.3961  13.5894  15.6768  15.9882  16.1164
    17.5217  18.8911  25.6885  36.1311  41.2680

          k = 0.3750-0.1250 0.3750 (   313 PWs)   bands (ev):

   -85.7356 -45.4851 -45.4444 -45.3667  12.2975  15.3634  15.9402  16.2803
    17.0229  17.7841  30.7673  36.1153  43.1020

          k = 0.2500 0.0000 0.2500 (   317 PWs)   bands (ev):

   -85.7496 -45.5100 -45.4768 -45.4314  10.5169  15.5321  16.1023  16.1703
    16.7026  17.1736  36.4810  37.4898  45.0098

          k = 0.0000 0.5000 0.0000 (   311 PWs)   bands (ev):

   -85.7374 -45.4241 -45.4241 -45.4202  11.8551  14.9512  16.3383  16.8446
    16.8446  17.3408  37.0578  37.0578  37.7906

          k =-0.1250 0.6250-0.1250 (   316 PWs)   bands (ev):

   -85.7288 -45.6114 -45.4761 -45.3743  13.1540  14.6943  16.1239  16.9314
    17.5812  17.8447  31.7205  34.9700  35.7638

          k = 0.7500-0.2500 0.7500 (   315 PWs)   bands (ev):

   -85.7204 -45.5154 -45.4656 -45.4270  14.0999  14.7711  15.8686  16.7711
    17.7721  20.3583  26.5129  32.4993  35.9755

          k = 0.6250-0.1250 0.6250 (   313 PWs)   bands (ev):

   -85.7185 -45.4505 -45.4370 -45.4175  14.4497  14.9527  15.6534  16.6292
    17.5656  21.5882  25.1039  30.9372  37.7148

          k = 0.5000 0.0000 0.5000 (   315 PWs)   bands (ev):

   -85.7261 -45.5378 -45.4902 -45.3578  13.8279  15.2342  15.4543  16.6099
    17.0262  19.1326  29.4072  30.9640  40.6945

          k = 0.0000 0.7500 0.0000 (   322 PWs)   bands (ev):

   -85.7248 -45.6315 -45.5437 -45.5437  13.3854  14.3026  17.4942  17.4942
    17.5365  17.7176  31.3195  33.8512  33.8512

          k = 0.8750-0.1250 0.8750 (   318 PWs)   bands (ev):

   -85.7175 -45.5469 -45.5194 -45.4787  13.7233  14.2522  16.9772  17.3953
    17.8556  20.5291  28.7002  30.0452  33.5411

          k = 0.7500 0.0000 0.7500 (   308 PWs)   bands (ev):

   -85.7127 -45.4379 -45.4378 -45.2628  14.2228  14.6106  16.2479  17.2351
    17.7310  23.6855  25.2938  28.1620  34.9564

          k = 0.0000-1.0000 0.0000 (   302 PWs)   bands (ev):

   -85.7102 -45.3830 -45.3830 -45.2051  13.5674  14.0830  17.7636  18.1680
    18.1680  20.2511  27.4866  32.6414  32.6414

          k =-0.2500 0.5000 0.0000 (   311 PWs)   bands (ev):

   -85.7335 -45.4917 -45.4137 -45.3414  12.4732  15.0486  15.9255  16.8471
    16.8806  17.8424  33.0839  33.9446  39.2355

          k = 0.6250-0.3750 0.8750 (   317 PWs)   bands (ev):

   -85.7250 -45.5630 -45.4730 -45.4281  13.9055  15.0832  15.5076  16.6274
    17.4132  19.2749  27.8350  33.2987  36.4372

          k = 0.5000-0.2500 0.7500 (   308 PWs)   bands (ev):

   -85.7179 -45.4389 -45.3661 -45.3404  14.3244  15.0790  15.8051  16.5307
    17.7148  21.4047  24.3498  33.7589  34.9066

          k = 0.7500-0.2500 1.0000 (   321 PWs)   bands (ev):

   -85.7224 -45.6035 -45.5390 -45.4890  13.8520  14.5292  16.0567  17.2720
    17.5040  19.5691  30.5709  31.1943  32.4470

          k = 0.6250-0.1250 0.8750 (   313 PWs)   bands (ev):

   -85.7152 -45.4955 -45.4705 -45.3547  14.3717  14.7318  15.7501  17.0673
    17.7820  22.7901  26.0633  29.7321  32.0042

          k = 0.5000 0.0000 0.7500 (   311 PWs)   bands (ev):

   -85.7162 -45.4466 -45.4371 -45.3611  14.6605  14.9552  15.2664  16.9029
    17.6269  22.0361  26.7360  29.2208  33.7439

          k =-0.2500-1.0000 0.0000 (   316 PWs)   bands (ev):

   -85.7148 -45.5019 -45.4990 -45.4537  13.8937  14.3422  16.5958  17.3860
    18.0204  22.2373  27.5217  29.5791  30.8962

          k =-0.5000-1.0000 0.0000 (   308 PWs)   bands (ev):

   -85.7122 -45.4021 -45.4021 -45.3491  14.4108  15.2716  15.2716  16.9639
    18.0542  25.6637  25.6637  27.8504  29.4703

     the Fermi energy is    17.7561 ev

!    total energy              =    -428.63939776 Ry
     Harris-Foulkes estimate   =    -428.63939777 Ry
     estimated scf accuracy    <          1.8E-09 Ry

     total all-electron energy =     -3041.071505 Ry

     The total energy is the sum of the following terms:

     one-electron contribution =    -184.27809560 Ry
     hartree contribution      =     104.28798203 Ry
     xc contribution           =     -34.30038848 Ry
     ewald contribution        =    -223.38275372 Ry
     one-center paw contrib.   =     -90.96330795 Ry
     smearing contrib. (-TS)   =      -0.00283403 Ry

     convergence has been achieved in   7 iterations

     Forces acting on atoms (cartesian axes, Ry/au):

     atom    1 type  1   force =     0.00000000    0.00000000    0.00000000

     Total force =     0.000000     Total SCF correction =     0.000000


     Computing stress (Cartesian axis) and pressure

          total   stress  (Ry/bohr**3)                   (kbar)     P=-6167.58
  -0.04192635  -0.00000000   0.00000000      -6167.58     -0.00      0.00
  -0.00000000  -0.04192635   0.00000000         -0.00  -6167.58      0.00
  -0.00000000  -0.00000000  -0.04192635         -0.00     -0.00  -6167.58


     Writing output data file Ni.save/

     init_run     :      0.26s CPU      0.28s WALL (       1 calls)
     electrons    :      2.11s CPU      2.32s WALL (       1 calls)
     forces       :      0.02s CPU      0.02s WALL (       1 calls)
     stress       :      0.05s CPU      0.05s WALL (       1 calls)

     Called by init_run:
     wfcinit      :      0.05s CPU      0.06s WALL (       1 calls)
     potinit      :      0.08s CPU      0.10s WALL (       1 calls)
     hinit0       :      0.10s CPU      0.10s WALL (       1 calls)

     Called by electrons:
     c_bands      :      1.24s CPU      1.33s WALL (       8 calls)
     sum_band     :      0.21s CPU      0.23s WALL (       8 calls)
     v_of_rho     :      0.01s CPU      0.01s WALL (       8 calls)
     newd         :      0.03s CPU      0.03s WALL (       8 calls)
     PAW_pot      :      0.71s CPU      0.81s WALL (       8 calls)
     mix_rho      :      0.00s CPU      0.00s WALL (       8 calls)

     Called by c_bands:
     init_us_2    :      0.02s CPU      0.03s WALL (     551 calls)
     cegterg      :      1.19s CPU      1.29s WALL (     232 calls)

     Called by sum_band:
     sum_band:bec :      0.00s CPU      0.00s WALL (     232 calls)
     addusdens    :      0.02s CPU      0.02s WALL (       8 calls)

     Called by *egterg:
     h_psi        :      0.84s CPU      0.90s WALL (     737 calls)
     s_psi        :      0.02s CPU      0.02s WALL (     737 calls)
     g_psi        :      0.00s CPU      0.00s WALL (     476 calls)
     cdiaghg      :      0.23s CPU      0.25s WALL (     679 calls)

     Called by h_psi:
     h_psi:pot    :      0.84s CPU      0.90s WALL (     737 calls)
     h_psi:calbec :      0.03s CPU      0.04s WALL (     737 calls)
     vloc_psi     :      0.78s CPU      0.83s WALL (     737 calls)
     add_vuspsi   :      0.02s CPU      0.02s WALL (     737 calls)

     General routines
     calbec       :      0.05s CPU      0.06s WALL (    1114 calls)
     fft          :      0.01s CPU      0.01s WALL (     115 calls)
     ffts         :      0.00s CPU      0.00s WALL (       8 calls)
     fftw         :      0.86s CPU      0.93s WALL (   17738 calls)

     Parallel routines
     fft_scatt_xy :      0.07s CPU      0.07s WALL (   17861 calls)
     fft_scatt_yz :      0.37s CPU      0.39s WALL (   17861 calls)

     PWSCF        :     3.34s CPU         3.66s WALL


   This run was terminated on:  22:35:30  26Mar2024            

=------------------------------------------------------------------------------=
   JOB DONE.
=------------------------------------------------------------------------------=
