
     Program PWSCF v.6.3MaX starts on 26Mar2024 at 22:52:17 

     This program is part of the open-source Quantum ESPRESSO suite
     for quantum simulation of materials; please cite
         "P. Giannozzi et al., J. Phys.:Condens. Matter 21 395502 (2009);
         "P. Giannozzi et al., J. Phys.:Condens. Matter 29 465901 (2017);
          URL http://www.quantum-espresso.org", 
     in publications or presentations arising from this work. More details at
     http://www.quantum-espresso.org/quote

     Parallel version (MPI), running on     5 processors

     MPI processes distributed on     1 nodes
     R & G space division:  proc/nbgrp/npool/nimage =       5
     Waiting for input...
     Reading input from standard input

     Current dimensions of program PWSCF are:
     Max number of different atomic species (ntypx) = 10
     Max number of k-points (npk) =  40000
     Max angular momentum in pseudopotentials (lmaxx) =  3

     Subspace diagonalization in iterative solution of the eigenvalue problem:
     a serial algorithm will be used


     Parallelization info
     --------------------
     sticks:   dense  smooth     PW     G-vecs:    dense   smooth      PW
     Min          90      90     27                 1284     1284     213
     Max          91      91     28                 1287     1287     214
     Sum         451     451    139                 6423     6423    1067



     bravais-lattice index     =            2
     lattice parameter (alat)  =       6.6500  a.u.
     unit-cell volume          =      73.5199 (a.u.)^3
     number of atoms/cell      =            1
     number of atomic types    =            1
     number of electrons       =        18.00
     number of Kohn-Sham states=           13
     kinetic-energy cutoff     =      75.0000  Ry
     charge density cutoff     =     300.0000  Ry
     convergence threshold     =      1.0E-08
     mixing beta               =       0.7000
     number of iterations used =            8  plain     mixing
     Exchange-correlation      = PBE ( 1  4  3  4 0 0)

     celldm(1)=   6.650000  celldm(2)=   0.000000  celldm(3)=   0.000000
     celldm(4)=   0.000000  celldm(5)=   0.000000  celldm(6)=   0.000000

     crystal axes: (cart. coord. in units of alat)
               a(1) = (  -0.500000   0.000000   0.500000 )  
               a(2) = (   0.000000   0.500000   0.500000 )  
               a(3) = (  -0.500000   0.500000   0.000000 )  

     reciprocal axes: (cart. coord. in units 2 pi/alat)
               b(1) = ( -1.000000 -1.000000  1.000000 )  
               b(2) = (  1.000000  1.000000  1.000000 )  
               b(3) = ( -1.000000  1.000000 -1.000000 )  


     PseudoPot. # 1 for Ni read from file:
     /home/lorenzo/pseudos/Ni/Ni.pbe-spn-rrkjus_psl.1.0.0.UPF
     MD5 check sum: 8b3fc9aac6dafe35f580d41bb18c3945
     Pseudo is Ultrasoft + core correction, Zval = 18.0
     Generated using "atomic" code by A. Dal Corso v.6.3
     Using radial grid of 1195 points,  6 beta functions with: 
                l(1) =   0
                l(2) =   0
                l(3) =   1
                l(4) =   1
                l(5) =   2
                l(6) =   2
     Q(r) pseudized with 0 coefficients 


     atomic species   valence    mass     pseudopotential
        Ni            18.00    58.69340     Ni( 1.00)

     48 Sym. Ops., with inversion, found



   Cartesian axes

     site n.     atom                  positions (alat units)
         1           Ni  tau(   1) = (   0.0000000   0.0000000   0.0000000  )

     number of k points=     4  gaussian smearing, width (Ry)=  0.0100
                       cart. coord. in units 2pi/alat
        k(    1) = (   0.0000000   0.0000000   0.0000000), wk =   0.0740741
        k(    2) = (  -0.3333333   0.3333333  -0.3333333), wk =   0.5925926
        k(    3) = (   0.0000000   0.6666667   0.0000000), wk =   0.4444444
        k(    4) = (   0.6666667  -0.0000000   0.6666667), wk =   0.8888889

     Dense  grid:     6423 G-vectors     FFT dimensions: (  25,  25,  25)

     Estimated max dynamical RAM per process >       6.37 MB

     Estimated total dynamical RAM >      31.86 MB

     Check: negative/imaginary core charge=   -0.000008    0.000000

     Initial potential from superposition of free atoms

     starting charge   17.99975, renormalised to   18.00000
     Starting wfcs are   10 randomized atomic wfcs +    3 random wfcs

     total cpu time spent up to now is        0.9 secs

     Self-consistent Calculation

     iteration #  1     ecut=    75.00 Ry     beta= 0.70
     Davidson diagonalization with overlap
     ethr =  1.00E-02,  avg # of iterations =  4.0

     Threshold (ethr) on eigenvalues was too large:
     Diagonalizing with lowered threshold

     Davidson diagonalization with overlap
     ethr =  1.40E-05,  avg # of iterations =  4.5

     total cpu time spent up to now is        1.0 secs

     total energy              =    -339.57485296 Ry
     Harris-Foulkes estimate   =    -339.57629158 Ry
     estimated scf accuracy    <       0.00238373 Ry

     iteration #  2     ecut=    75.00 Ry     beta= 0.70
     Davidson diagonalization with overlap
     ethr =  1.32E-05,  avg # of iterations =  3.0

     total cpu time spent up to now is        1.1 secs

     total energy              =    -339.57483192 Ry
     Harris-Foulkes estimate   =    -339.57755625 Ry
     estimated scf accuracy    <       0.00681522 Ry

     iteration #  3     ecut=    75.00 Ry     beta= 0.70
     Davidson diagonalization with overlap
     ethr =  1.32E-05,  avg # of iterations =  2.2

     total cpu time spent up to now is        1.1 secs

     total energy              =    -339.57607074 Ry
     Harris-Foulkes estimate   =    -339.57606112 Ry
     estimated scf accuracy    <       0.00002889 Ry

     iteration #  4     ecut=    75.00 Ry     beta= 0.70
     Davidson diagonalization with overlap
     ethr =  1.61E-07,  avg # of iterations =  2.5

     total cpu time spent up to now is        1.2 secs

     total energy              =    -339.57607685 Ry
     Harris-Foulkes estimate   =    -339.57607689 Ry
     estimated scf accuracy    <       0.00000016 Ry

     iteration #  5     ecut=    75.00 Ry     beta= 0.70
     Davidson diagonalization with overlap
     ethr =  8.75E-10,  avg # of iterations =  3.0

     total cpu time spent up to now is        1.3 secs

     total energy              =    -339.57607695 Ry
     Harris-Foulkes estimate   =    -339.57607695 Ry
     estimated scf accuracy    <       0.00000001 Ry

     iteration #  6     ecut=    75.00 Ry     beta= 0.70
     Davidson diagonalization with overlap
     ethr =  7.86E-11,  avg # of iterations =  2.2

     total cpu time spent up to now is        1.3 secs

     End of self-consistent calculation

          k = 0.0000 0.0000 0.0000 (   869 PWs)   bands (ev):

   -85.7370 -45.9791 -45.9791 -45.9791   8.7986  15.5786  15.5786  15.5786
    16.6429  16.6429  41.4975  45.4040  45.4040

          k =-0.3333 0.3333-0.3333 (   823 PWs)   bands (ev):

   -85.7117 -46.1396 -46.0009 -46.0009  12.2736  15.5216  15.6762  15.6762
    17.0280  17.0280  28.3657  40.8203  42.7368

          k = 0.0000 0.6667 0.0000 (   805 PWs)   bands (ev):

   -85.7033 -46.1313 -46.0376 -46.0376  12.9281  14.2057  16.6888  16.9505
    16.9505  17.1759  33.4297  34.7565  34.7565

          k = 0.6667-0.0000 0.6667 (   816 PWs)   bands (ev):

   -85.6951 -46.1238 -46.1226 -46.0312  14.2743  14.4489  15.3852  16.5365
    17.1230  22.6061  25.3453  28.3738  36.5974

     the Fermi energy is    17.1093 ev

!    total energy              =    -339.57607695 Ry
     Harris-Foulkes estimate   =    -339.57607695 Ry
     estimated scf accuracy    <          1.5E-09 Ry

     The total energy is the sum of the following terms:

     one-electron contribution =    -186.22244809 Ry
     hartree contribution      =     104.30712673 Ry
     xc contribution           =     -34.27155004 Ry
     ewald contribution        =    -223.38275369 Ry
     smearing contrib. (-TS)   =      -0.00645186 Ry

     convergence has been achieved in   6 iterations

     Forces acting on atoms (cartesian axes, Ry/au):

     atom    1 type  1   force =     0.00000000    0.00000000    0.00000000

     Total force =     0.000000     Total SCF correction =     0.000000


     Computing stress (Cartesian axis) and pressure

          total   stress  (Ry/bohr**3)                   (kbar)     P=   18.24
   0.00012396  -0.00000000   0.00000000         18.24     -0.00      0.00
  -0.00000000   0.00012396   0.00000000         -0.00     18.24      0.00
  -0.00000000  -0.00000000   0.00012396         -0.00     -0.00     18.24


     Writing output data file Ni.save/

     init_run     :      0.19s CPU      0.19s WALL (       1 calls)
     electrons    :      0.43s CPU      0.45s WALL (       1 calls)
     forces       :      0.02s CPU      0.02s WALL (       1 calls)
     stress       :      0.10s CPU      0.10s WALL (       1 calls)

     Called by init_run:
     wfcinit      :      0.01s CPU      0.01s WALL (       1 calls)
     potinit      :      0.01s CPU      0.01s WALL (       1 calls)
     hinit0       :      0.16s CPU      0.16s WALL (       1 calls)

     Called by electrons:
     c_bands      :      0.28s CPU      0.30s WALL (       7 calls)
     sum_band     :      0.09s CPU      0.09s WALL (       7 calls)
     v_of_rho     :      0.02s CPU      0.02s WALL (       7 calls)
     newd         :      0.04s CPU      0.04s WALL (       7 calls)
     mix_rho      :      0.00s CPU      0.00s WALL (       7 calls)

     Called by c_bands:
     init_us_2    :      0.01s CPU      0.01s WALL (      68 calls)
     cegterg      :      0.27s CPU      0.29s WALL (      28 calls)

     Called by sum_band:
     sum_band:bec :      0.00s CPU      0.00s WALL (      28 calls)
     addusdens    :      0.04s CPU      0.04s WALL (       7 calls)

     Called by *egterg:
     h_psi        :      0.19s CPU      0.20s WALL (     118 calls)
     s_psi        :      0.01s CPU      0.01s WALL (     118 calls)
     g_psi        :      0.00s CPU      0.00s WALL (      86 calls)
     cdiaghg      :      0.04s CPU      0.05s WALL (     110 calls)

     Called by h_psi:
     h_psi:pot    :      0.19s CPU      0.20s WALL (     118 calls)
     h_psi:calbec :      0.01s CPU      0.01s WALL (     118 calls)
     vloc_psi     :      0.17s CPU      0.18s WALL (     118 calls)
     add_vuspsi   :      0.01s CPU      0.01s WALL (     118 calls)

     General routines
     calbec       :      0.02s CPU      0.02s WALL (     166 calls)
     fft          :      0.01s CPU      0.02s WALL (     104 calls)
     ffts         :      0.00s CPU      0.00s WALL (       7 calls)
     fftw         :      0.19s CPU      0.20s WALL (    2400 calls)

     Parallel routines
     fft_scatt_xy :      0.02s CPU      0.02s WALL (    2511 calls)
     fft_scatt_yz :      0.05s CPU      0.05s WALL (    2511 calls)

     PWSCF        :     1.43s CPU         1.49s WALL


   This run was terminated on:  22:52:18  26Mar2024            

=------------------------------------------------------------------------------=
   JOB DONE.
=------------------------------------------------------------------------------=
