
     Program PWSCF v.6.3MaX starts on 26Mar2024 at 22:44:44 

     This program is part of the open-source Quantum ESPRESSO suite
     for quantum simulation of materials; please cite
         "P. Giannozzi et al., J. Phys.:Condens. Matter 21 395502 (2009);
         "P. Giannozzi et al., J. Phys.:Condens. Matter 29 465901 (2017);
          URL http://www.quantum-espresso.org", 
     in publications or presentations arising from this work. More details at
     http://www.quantum-espresso.org/quote

     Parallel version (MPI), running on     5 processors

     MPI processes distributed on     1 nodes
     R & G space division:  proc/nbgrp/npool/nimage =       5
     Waiting for input...
     Reading input from standard input

     Current dimensions of program PWSCF are:
     Max number of different atomic species (ntypx) = 10
     Max number of k-points (npk) =  40000
     Max angular momentum in pseudopotentials (lmaxx) =  3
               file Ni.pbe-spn-kjpaw_psl.1.0.0.UPF: wavefunction(s)  3P 3D renormalized

     Subspace diagonalization in iterative solution of the eigenvalue problem:
     a serial algorithm will be used


     Parallelization info
     --------------------
     sticks:   dense  smooth     PW     G-vecs:    dense   smooth      PW
     Min          73      73     24                  928      928     178
     Max          74      74     25                  930      930     181
     Sum         367     367    121                 4645     4645     893



     bravais-lattice index     =            2
     lattice parameter (alat)  =       6.6500  a.u.
     unit-cell volume          =      73.5199 (a.u.)^3
     number of atoms/cell      =            1
     number of atomic types    =            1
     number of electrons       =        18.00
     number of Kohn-Sham states=           13
     kinetic-energy cutoff     =      60.0000  Ry
     charge density cutoff     =     240.0000  Ry
     convergence threshold     =      1.0E-08
     mixing beta               =       0.7000
     number of iterations used =            8  plain     mixing
     Exchange-correlation      = SLA PW PBX PBC ( 1  4  3  4 0 0)

     celldm(1)=   6.650000  celldm(2)=   0.000000  celldm(3)=   0.000000
     celldm(4)=   0.000000  celldm(5)=   0.000000  celldm(6)=   0.000000

     crystal axes: (cart. coord. in units of alat)
               a(1) = (  -0.500000   0.000000   0.500000 )  
               a(2) = (   0.000000   0.500000   0.500000 )  
               a(3) = (  -0.500000   0.500000   0.000000 )  

     reciprocal axes: (cart. coord. in units 2 pi/alat)
               b(1) = ( -1.000000 -1.000000  1.000000 )  
               b(2) = (  1.000000  1.000000  1.000000 )  
               b(3) = ( -1.000000  1.000000 -1.000000 )  


     PseudoPot. # 1 for Ni read from file:
     /home/lorenzo/pseudos/Ni/Ni.pbe-spn-kjpaw_psl.1.0.0.UPF
     MD5 check sum: 6e86b733589c3ad8389697b807d86aa7
     Pseudo is Projector augmented-wave + core cor, Zval = 18.0
     Generated using "atomic" code by A. Dal Corso v.6.3
     Shape of augmentation charge: PSQ
     Using radial grid of 1195 points,  6 beta functions with: 
                l(1) =   0
                l(2) =   0
                l(3) =   1
                l(4) =   1
                l(5) =   2
                l(6) =   2
     Q(r) pseudized with 0 coefficients 


     atomic species   valence    mass     pseudopotential
        Ni            18.00    58.69340     Ni( 1.00)

     48 Sym. Ops., with inversion, found



   Cartesian axes

     site n.     atom                  positions (alat units)
         1           Ni  tau(   1) = (   0.0000000   0.0000000   0.0000000  )

     number of k points=    20  gaussian smearing, width (Ry)=  0.0100
                       cart. coord. in units 2pi/alat
        k(    1) = (   0.0000000   0.0000000   0.0000000), wk =   0.0058309
        k(    2) = (  -0.1428571   0.1428571  -0.1428571), wk =   0.0466472
        k(    3) = (  -0.2857143   0.2857143  -0.2857143), wk =   0.0466472
        k(    4) = (  -0.4285714   0.4285714  -0.4285714), wk =   0.0466472
        k(    5) = (   0.0000000   0.2857143   0.0000000), wk =   0.0349854
        k(    6) = (  -0.1428571   0.4285714  -0.1428571), wk =   0.1399417
        k(    7) = (  -0.2857143   0.5714286  -0.2857143), wk =   0.1399417
        k(    8) = (   0.5714286  -0.2857143   0.5714286), wk =   0.1399417
        k(    9) = (   0.4285714  -0.1428571   0.4285714), wk =   0.1399417
        k(   10) = (   0.2857143  -0.0000000   0.2857143), wk =   0.0699708
        k(   11) = (   0.0000000   0.5714286   0.0000000), wk =   0.0349854
        k(   12) = (  -0.1428571   0.7142857  -0.1428571), wk =   0.1399417
        k(   13) = (   0.7142857  -0.1428571   0.7142857), wk =   0.1399417
        k(   14) = (   0.5714286   0.0000000   0.5714286), wk =   0.0699708
        k(   15) = (   0.0000000   0.8571429   0.0000000), wk =   0.0349854
        k(   16) = (   0.8571429  -0.0000000   0.8571429), wk =   0.0699708
        k(   17) = (  -0.2857143   0.5714286   0.0000000), wk =   0.1399417
        k(   18) = (   0.5714286  -0.2857143   0.8571429), wk =   0.2798834
        k(   19) = (   0.7142857  -0.1428571   1.0000000), wk =   0.1399417
        k(   20) = (   0.5714286   0.0000000   0.8571429), wk =   0.1399417

     Dense  grid:     4645 G-vectors     FFT dimensions: (  24,  24,  24)

     Estimated max dynamical RAM per process >       5.26 MB

     Estimated total dynamical RAM >      26.32 MB

     Check: negative/imaginary core charge=   -0.000009    0.000000

     Initial potential from superposition of free atoms

     starting charge   17.99975, renormalised to   18.00000
     Starting wfcs are   10 randomized atomic wfcs +    3 random wfcs
     Checking if some PAW data can be deallocated... 

     total cpu time spent up to now is        1.0 secs

     Self-consistent Calculation

     iteration #  1     ecut=    60.00 Ry     beta= 0.70
     Davidson diagonalization with overlap
     ethr =  1.00E-02,  avg # of iterations =  3.7

     Threshold (ethr) on eigenvalues was too large:
     Diagonalizing with lowered threshold

     Davidson diagonalization with overlap
     ethr =  2.22E-05,  avg # of iterations =  2.8

     total cpu time spent up to now is        1.5 secs

     total energy              =    -429.14407056 Ry
     Harris-Foulkes estimate   =    -429.14645284 Ry
     estimated scf accuracy    <       0.00406641 Ry

     iteration #  2     ecut=    60.00 Ry     beta= 0.70
     Davidson diagonalization with overlap
     ethr =  2.26E-05,  avg # of iterations =  2.5

     total cpu time spent up to now is        1.8 secs

     total energy              =    -429.14327123 Ry
     Harris-Foulkes estimate   =    -429.14854557 Ry
     estimated scf accuracy    <       0.01437706 Ry

     iteration #  3     ecut=    60.00 Ry     beta= 0.70
     Davidson diagonalization with overlap
     ethr =  2.26E-05,  avg # of iterations =  2.1

     total cpu time spent up to now is        2.1 secs

     total energy              =    -429.14579048 Ry
     Harris-Foulkes estimate   =    -429.14582386 Ry
     estimated scf accuracy    <       0.00014956 Ry

     iteration #  4     ecut=    60.00 Ry     beta= 0.70
     Davidson diagonalization with overlap
     ethr =  8.31E-07,  avg # of iterations =  2.0

     total cpu time spent up to now is        2.4 secs

     total energy              =    -429.14581347 Ry
     Harris-Foulkes estimate   =    -429.14581332 Ry
     estimated scf accuracy    <       0.00000037 Ry

     iteration #  5     ecut=    60.00 Ry     beta= 0.70
     Davidson diagonalization with overlap
     ethr =  2.04E-09,  avg # of iterations =  3.1

     total cpu time spent up to now is        2.7 secs

     total energy              =    -429.14581384 Ry
     Harris-Foulkes estimate   =    -429.14581385 Ry
     estimated scf accuracy    <       0.00000004 Ry

     iteration #  6     ecut=    60.00 Ry     beta= 0.70
     Davidson diagonalization with overlap
     ethr =  2.46E-10,  avg # of iterations =  1.2

     total cpu time spent up to now is        2.9 secs

     End of self-consistent calculation

          k = 0.0000 0.0000 0.0000 (   561 PWs)   bands (ev):

   -85.2843 -45.5389 -45.5389 -45.5389   8.8375  15.9240  15.9240  15.9240
    17.0316  17.0316  41.4872  45.4412  45.4412

          k =-0.1429 0.1429-0.1429 (   570 PWs)   bands (ev):

   -85.2783 -45.5814 -45.5453 -45.5453   9.6205  15.7277  16.0729  16.0729
    16.9858  16.9858  37.7710  42.4174  44.1714

          k =-0.2857 0.2857-0.2857 (   577 PWs)   bands (ev):

   -85.2643 -45.6747 -45.5589 -45.5589  11.6585  15.5579  16.0930  16.0930
    17.2431  17.2431  30.6638  41.2562  43.0382

          k =-0.4286 0.4286-0.4286 (   583 PWs)   bands (ev):

   -85.2530 -45.7494 -45.5698 -45.5698  13.1854  15.9080  15.9080  16.8961
    17.7013  17.7013  24.9527  40.1542  42.6151

          k = 0.0000 0.2857 0.0000 (   568 PWs)   bands (ev):

   -85.2761 -45.5799 -45.5549 -45.5549   9.8772  15.5490  16.2228  16.2228
    16.7008  17.1654  39.9577  40.8755  40.8755

          k =-0.1429 0.4286-0.1429 (   574 PWs)   bands (ev):

   -85.2647 -45.6489 -45.5707 -45.5680  11.5075  15.2151  16.1097  16.4150
    17.0200  17.3937  33.4553  38.9172  39.5615

          k =-0.2857 0.5714-0.2857 (   581 PWs)   bands (ev):

   -85.2525 -45.7234 -45.5874 -45.5808  13.3720  15.3627  15.8196  16.2723
    17.7611  18.4352  26.9715  37.5470  38.5053

          k = 0.5714-0.2857 0.5714 (   582 PWs)   bands (ev):

   -85.2487 -45.7452 -45.6012 -45.5777  13.7472  15.5055  16.1493  16.1599
    17.6764  19.8813  24.1200  35.7589  39.9006

          k = 0.4286-0.1429 0.4286 (   579 PWs)   bands (ev):

   -85.2563 -45.6999 -45.5965 -45.5635  12.9187  15.3883  15.8168  16.2793
    17.0875  18.2769  29.0028  35.2095  42.3123

          k = 0.2857-0.0000 0.2857 (   576 PWs)   bands (ev):

   -85.2695 -45.6268 -45.5721 -45.5492  10.8464  15.4391  16.1228  16.3443
    16.6877  17.3838  35.5572  36.3351  45.5119

          k = 0.0000 0.5714 0.0000 (   568 PWs)   bands (ev):

   -85.2571 -45.6684 -45.5899 -45.5899  12.4084  14.7528  16.4364  17.0150
    17.0150  17.4720  36.0788  36.0788  36.0976

          k =-0.1429 0.7143-0.1429 (   583 PWs)   bands (ev):

   -85.2479 -45.7122 -45.6154 -45.6022  13.5829  14.5336  16.2768  17.0769
    17.7987  18.7962  30.3049  32.7141  34.9972

          k = 0.7143-0.1429 0.7143 (   568 PWs)   bands (ev):

   -85.2425 -45.7174 -45.6534 -45.5982  14.3196  14.6679  15.8837  16.8761
    17.7270  22.4372  24.8678  30.2161  36.0235

          k = 0.5714 0.0000 0.5714 (   576 PWs)   bands (ev):

   -85.2466 -45.7009 -45.6566 -45.5811  14.3608  15.1438  15.3262  16.6736
    17.2333  20.4617  27.7085  29.6430  38.9202

          k = 0.0000 0.8571 0.0000 (   592 PWs)   bands (ev):

   -85.2427 -45.7385 -45.6181 -45.6181  13.4630  14.1557  17.7243  17.8258
    17.8258  19.1404  28.9091  33.1112  33.1112

          k = 0.8571-0.0000 0.8571 (   574 PWs)   bands (ev):

   -85.2399 -45.7357 -45.6397 -45.6160  13.7394  14.2391  17.0232  17.5391
    17.8755  21.7722  27.3579  29.1251  33.5004

          k =-0.2857 0.5714 0.0000 (   580 PWs)   bands (ev):

   -85.2542 -45.6885 -45.6105 -45.5780  13.1414  14.9353  15.7141  16.9471
    17.0245  18.3755  31.8028  32.6147  37.3163

          k = 0.5714-0.2857 0.8571 (   574 PWs)   bands (ev):

   -85.2454 -45.7180 -45.6376 -45.5925  14.3122  14.9584  15.4908  16.7102
    17.6175  20.8054  26.0532  32.4421  34.3633

          k = 0.7143-0.1429 1.0000 (   579 PWs)   bands (ev):

   -85.2418 -45.7210 -45.6413 -45.6164  13.9963  14.4956  16.1761  17.3384
    17.8234  21.3810  29.3778  29.4432  30.7451

          k = 0.5714 0.0000 0.8571 (   579 PWs)   bands (ev):

   -85.2408 -45.6939 -45.6803 -45.6126  14.4423  14.8292  15.5316  16.9776
    17.8204  24.6347  25.0771  28.3000  31.6145

     the Fermi energy is    17.8075 ev

!    total energy              =    -429.14581384 Ry
     Harris-Foulkes estimate   =    -429.14581385 Ry
     estimated scf accuracy    <          2.2E-09 Ry

     total all-electron energy =     -3041.577921 Ry

     The total energy is the sum of the following terms:

     one-electron contribution =    -185.14742334 Ry
     hartree contribution      =     104.80003888 Ry
     xc contribution           =     -34.32369527 Ry
     ewald contribution        =    -223.38275372 Ry
     one-center paw contrib.   =     -91.08934570 Ry
     smearing contrib. (-TS)   =      -0.00263469 Ry

     convergence has been achieved in   6 iterations

     Forces acting on atoms (cartesian axes, Ry/au):

     atom    1 type  1   force =     0.00000000    0.00000000    0.00000000

     Total force =     0.000000     Total SCF correction =     0.000000


     Computing stress (Cartesian axis) and pressure

          total   stress  (Ry/bohr**3)                   (kbar)     P=  -36.29
  -0.00024669   0.00000000   0.00000000        -36.29      0.00      0.00
  -0.00000000  -0.00024669  -0.00000000         -0.00    -36.29     -0.00
   0.00000000   0.00000000  -0.00024669          0.00      0.00    -36.29


     Writing output data file Ni.save/

     init_run     :      0.29s CPU      0.31s WALL (       1 calls)
     electrons    :      1.73s CPU      1.89s WALL (       1 calls)
     forces       :      0.02s CPU      0.02s WALL (       1 calls)
     stress       :      0.07s CPU      0.07s WALL (       1 calls)

     Called by init_run:
     wfcinit      :      0.05s CPU      0.05s WALL (       1 calls)
     potinit      :      0.09s CPU      0.10s WALL (       1 calls)
     hinit0       :      0.13s CPU      0.13s WALL (       1 calls)

     Called by electrons:
     c_bands      :      0.98s CPU      1.05s WALL (       7 calls)
     sum_band     :      0.19s CPU      0.20s WALL (       7 calls)
     v_of_rho     :      0.02s CPU      0.02s WALL (       7 calls)
     newd         :      0.03s CPU      0.03s WALL (       7 calls)
     PAW_pot      :      0.59s CPU      0.68s WALL (       7 calls)
     mix_rho      :      0.00s CPU      0.00s WALL (       7 calls)

     Called by c_bands:
     init_us_2    :      0.02s CPU      0.03s WALL (     340 calls)
     cegterg      :      0.94s CPU      1.01s WALL (     140 calls)

     Called by sum_band:
     sum_band:bec :      0.00s CPU      0.00s WALL (     140 calls)
     addusdens    :      0.03s CPU      0.03s WALL (       7 calls)

     Called by *egterg:
     h_psi        :      0.67s CPU      0.72s WALL (     509 calls)
     s_psi        :      0.02s CPU      0.02s WALL (     509 calls)
     g_psi        :      0.00s CPU      0.00s WALL (     349 calls)
     cdiaghg      :      0.16s CPU      0.17s WALL (     469 calls)

     Called by h_psi:
     h_psi:pot    :      0.66s CPU      0.71s WALL (     509 calls)
     h_psi:calbec :      0.03s CPU      0.03s WALL (     509 calls)
     vloc_psi     :      0.61s CPU      0.65s WALL (     509 calls)
     add_vuspsi   :      0.02s CPU      0.02s WALL (     509 calls)

     General routines
     calbec       :      0.05s CPU      0.05s WALL (     749 calls)
     fft          :      0.01s CPU      0.01s WALL (     104 calls)
     ffts         :      0.00s CPU      0.00s WALL (       7 calls)
     fftw         :      0.68s CPU      0.73s WALL (   11266 calls)

     Parallel routines
     fft_scatt_xy :      0.06s CPU      0.07s WALL (   11377 calls)
     fft_scatt_yz :      0.20s CPU      0.21s WALL (   11377 calls)

     PWSCF        :     2.83s CPU         3.06s WALL


   This run was terminated on:  22:44:47  26Mar2024            

=------------------------------------------------------------------------------=
   JOB DONE.
=------------------------------------------------------------------------------=
