
     Program PWSCF v.6.3MaX starts on 26Mar2024 at 22:39:10 

     This program is part of the open-source Quantum ESPRESSO suite
     for quantum simulation of materials; please cite
         "P. Giannozzi et al., J. Phys.:Condens. Matter 21 395502 (2009);
         "P. Giannozzi et al., J. Phys.:Condens. Matter 29 465901 (2017);
          URL http://www.quantum-espresso.org", 
     in publications or presentations arising from this work. More details at
     http://www.quantum-espresso.org/quote

     Parallel version (MPI), running on     5 processors

     MPI processes distributed on     1 nodes
     R & G space division:  proc/nbgrp/npool/nimage =       5
     Waiting for input...
     Reading input from standard input

     Current dimensions of program PWSCF are:
     Max number of different atomic species (ntypx) = 10
     Max number of k-points (npk) =  40000
     Max angular momentum in pseudopotentials (lmaxx) =  3

     Subspace diagonalization in iterative solution of the eigenvalue problem:
     a serial algorithm will be used


     Parallelization info
     --------------------
     sticks:   dense  smooth     PW     G-vecs:    dense   smooth      PW
     Min          62      62     18                  705      705     121
     Max          63      63     19                  706      706     123
     Sum         313     313     91                 3527     3527     609



     bravais-lattice index     =            2
     lattice parameter (alat)  =       6.6500  a.u.
     unit-cell volume          =      73.5199 (a.u.)^3
     number of atoms/cell      =            1
     number of atomic types    =            1
     number of electrons       =        18.00
     number of Kohn-Sham states=           13
     kinetic-energy cutoff     =      50.0000  Ry
     charge density cutoff     =     200.0000  Ry
     convergence threshold     =      1.0E-08
     mixing beta               =       0.7000
     number of iterations used =            8  plain     mixing
     Exchange-correlation      = PBESOL ( 1  4 10  8 0 0)

     celldm(1)=   6.650000  celldm(2)=   0.000000  celldm(3)=   0.000000
     celldm(4)=   0.000000  celldm(5)=   0.000000  celldm(6)=   0.000000

     crystal axes: (cart. coord. in units of alat)
               a(1) = (  -0.500000   0.000000   0.500000 )  
               a(2) = (   0.000000   0.500000   0.500000 )  
               a(3) = (  -0.500000   0.500000   0.000000 )  

     reciprocal axes: (cart. coord. in units 2 pi/alat)
               b(1) = ( -1.000000 -1.000000  1.000000 )  
               b(2) = (  1.000000  1.000000  1.000000 )  
               b(3) = ( -1.000000  1.000000 -1.000000 )  


     PseudoPot. # 1 for Ni read from file:
     /home/lorenzo/pseudos/Ni/Ni.pbesol-spn-rrkjus_psl.1.0.0.UPF
     MD5 check sum: 6fc0a587bf949a08f2faed986b854013
     Pseudo is Ultrasoft + core correction, Zval = 18.0
     Generated using "atomic" code by A. Dal Corso v.6.3
     Using radial grid of 1195 points,  6 beta functions with: 
                l(1) =   0
                l(2) =   0
                l(3) =   1
                l(4) =   1
                l(5) =   2
                l(6) =   2
     Q(r) pseudized with 0 coefficients 


     atomic species   valence    mass     pseudopotential
        Ni            18.00    58.69340     Ni( 1.00)

     48 Sym. Ops., with inversion, found



   Cartesian axes

     site n.     atom                  positions (alat units)
         1           Ni  tau(   1) = (   0.0000000   0.0000000   0.0000000  )

     number of k points=     4  gaussian smearing, width (Ry)=  0.0100
                       cart. coord. in units 2pi/alat
        k(    1) = (   0.0000000   0.0000000   0.0000000), wk =   0.0740741
        k(    2) = (  -0.3333333   0.3333333  -0.3333333), wk =   0.5925926
        k(    3) = (   0.0000000   0.6666667   0.0000000), wk =   0.4444444
        k(    4) = (   0.6666667  -0.0000000   0.6666667), wk =   0.8888889

     Dense  grid:     3527 G-vectors     FFT dimensions: (  24,  24,  24)

     Estimated max dynamical RAM per process >       3.97 MB

     Estimated total dynamical RAM >      19.84 MB

     Check: negative/imaginary core charge=   -0.000020    0.000000

     Initial potential from superposition of free atoms

     starting charge   17.99977, renormalised to   18.00000
     Starting wfcs are   10 randomized atomic wfcs +    3 random wfcs

     total cpu time spent up to now is        0.8 secs

     Self-consistent Calculation

     iteration #  1     ecut=    50.00 Ry     beta= 0.70
     Davidson diagonalization with overlap
     ethr =  1.00E-02,  avg # of iterations =  5.0

     Threshold (ethr) on eigenvalues was too large:
     Diagonalizing with lowered threshold

     Davidson diagonalization with overlap
     ethr =  3.50E-05,  avg # of iterations =  2.8

     total cpu time spent up to now is        0.9 secs

     total energy              =    -339.32615011 Ry
     Harris-Foulkes estimate   =    -339.33027112 Ry
     estimated scf accuracy    <       0.00595516 Ry

     iteration #  2     ecut=    50.00 Ry     beta= 0.70
     Davidson diagonalization with overlap
     ethr =  3.31E-05,  avg # of iterations =  3.0

     total cpu time spent up to now is        1.0 secs

     total energy              =    -339.32572564 Ry
     Harris-Foulkes estimate   =    -339.33343700 Ry
     estimated scf accuracy    <       0.02000070 Ry

     iteration #  3     ecut=    50.00 Ry     beta= 0.70
     Davidson diagonalization with overlap
     ethr =  3.31E-05,  avg # of iterations =  2.2

     total cpu time spent up to now is        1.0 secs

     total energy              =    -339.32936725 Ry
     Harris-Foulkes estimate   =    -339.32935639 Ry
     estimated scf accuracy    <       0.00005557 Ry

     iteration #  4     ecut=    50.00 Ry     beta= 0.70
     Davidson diagonalization with overlap
     ethr =  3.09E-07,  avg # of iterations =  2.8

     total cpu time spent up to now is        1.1 secs

     total energy              =    -339.32938378 Ry
     Harris-Foulkes estimate   =    -339.32938374 Ry
     estimated scf accuracy    <       0.00000039 Ry

     iteration #  5     ecut=    50.00 Ry     beta= 0.70
     Davidson diagonalization with overlap
     ethr =  2.17E-09,  avg # of iterations =  2.0

     total cpu time spent up to now is        1.1 secs

     total energy              =    -339.32938394 Ry
     Harris-Foulkes estimate   =    -339.32938394 Ry
     estimated scf accuracy    <       0.00000001 Ry

     iteration #  6     ecut=    50.00 Ry     beta= 0.70
     Davidson diagonalization with overlap
     ethr =  6.68E-11,  avg # of iterations =  2.0

     total cpu time spent up to now is        1.1 secs

     End of self-consistent calculation

          k = 0.0000 0.0000 0.0000 (   459 PWs)   bands (ev):

   -85.6099 -45.9597 -45.9597 -45.9597   8.6345  15.4033  15.4033  15.4033
    16.4747  16.4747  41.2991  45.1703  45.1703

          k =-0.3333 0.3333-0.3333 (   437 PWs)   bands (ev):

   -85.5841 -46.1185 -45.9662 -45.9662  12.1115  15.3428  15.5111  15.5111
    16.8565  16.8565  28.1926  40.6271  42.4899

          k = 0.0000 0.6667 0.0000 (   444 PWs)   bands (ev):

   -85.5757 -46.1104 -46.0258 -46.0258  12.7478  14.0237  16.5147  16.7753
    16.7753  17.0021  33.2352  34.5175  34.5175

          k = 0.6667-0.0000 0.6667 (   443 PWs)   bands (ev):

   -85.5672 -46.1108 -46.1036 -46.0132  14.0928  14.2648  15.2018  16.3647
    16.9550  22.4214  25.1310  28.2410  36.3570

     the Fermi energy is    16.9383 ev

!    total energy              =    -339.32938394 Ry
     Harris-Foulkes estimate   =    -339.32938394 Ry
     estimated scf accuracy    <          1.9E-10 Ry

     The total energy is the sum of the following terms:

     one-electron contribution =    -186.12521626 Ry
     hartree contribution      =     104.05796922 Ry
     xc contribution           =     -33.87298218 Ry
     ewald contribution        =    -223.38275374 Ry
     smearing contrib. (-TS)   =      -0.00640098 Ry

     convergence has been achieved in   6 iterations

     Forces acting on atoms (cartesian axes, Ry/au):

     atom    1 type  1   force =     0.00000000    0.00000000    0.00000000

     Total force =     0.000000     Total SCF correction =     0.000000


     Computing stress (Cartesian axis) and pressure

          total   stress  (Ry/bohr**3)                   (kbar)     P= -740.44
  -0.00503339  -0.00000000  -0.00000000       -740.44     -0.00     -0.00
  -0.00000000  -0.00503339   0.00000000         -0.00   -740.44      0.00
  -0.00000000   0.00000000  -0.00503339         -0.00      0.00   -740.44


     Writing output data file Ni.save/

     init_run     :      0.14s CPU      0.14s WALL (       1 calls)
     electrons    :      0.27s CPU      0.30s WALL (       1 calls)
     forces       :      0.01s CPU      0.01s WALL (       1 calls)
     stress       :      0.04s CPU      0.04s WALL (       1 calls)

     Called by init_run:
     wfcinit      :      0.01s CPU      0.01s WALL (       1 calls)
     potinit      :      0.00s CPU      0.01s WALL (       1 calls)
     hinit0       :      0.12s CPU      0.12s WALL (       1 calls)

     Called by electrons:
     c_bands      :      0.18s CPU      0.20s WALL (       7 calls)
     sum_band     :      0.05s CPU      0.06s WALL (       7 calls)
     v_of_rho     :      0.02s CPU      0.02s WALL (       7 calls)
     newd         :      0.02s CPU      0.03s WALL (       7 calls)
     mix_rho      :      0.00s CPU      0.00s WALL (       7 calls)

     Called by c_bands:
     init_us_2    :      0.00s CPU      0.01s WALL (      68 calls)
     cegterg      :      0.17s CPU      0.19s WALL (      28 calls)

     Called by sum_band:
     sum_band:bec :      0.00s CPU      0.00s WALL (      28 calls)
     addusdens    :      0.02s CPU      0.02s WALL (       7 calls)

     Called by *egterg:
     h_psi        :      0.12s CPU      0.13s WALL (     111 calls)
     s_psi        :      0.00s CPU      0.00s WALL (     111 calls)
     g_psi        :      0.00s CPU      0.00s WALL (      79 calls)
     cdiaghg      :      0.03s CPU      0.04s WALL (     103 calls)

     Called by h_psi:
     h_psi:pot    :      0.12s CPU      0.13s WALL (     111 calls)
     h_psi:calbec :      0.01s CPU      0.01s WALL (     111 calls)
     vloc_psi     :      0.11s CPU      0.12s WALL (     111 calls)
     add_vuspsi   :      0.00s CPU      0.00s WALL (     111 calls)

     General routines
     calbec       :      0.01s CPU      0.01s WALL (     159 calls)
     fft          :      0.01s CPU      0.01s WALL (     104 calls)
     ffts         :      0.00s CPU      0.00s WALL (       7 calls)
     fftw         :      0.12s CPU      0.13s WALL (    2298 calls)

     Parallel routines
     fft_scatt_xy :      0.01s CPU      0.01s WALL (    2409 calls)
     fft_scatt_yz :      0.04s CPU      0.04s WALL (    2409 calls)

     PWSCF        :     1.16s CPU         1.23s WALL


   This run was terminated on:  22:39:11  26Mar2024            

=------------------------------------------------------------------------------=
   JOB DONE.
=------------------------------------------------------------------------------=
