
     Program PWSCF v.6.3MaX starts on 26Mar2024 at 22:35:17 

     This program is part of the open-source Quantum ESPRESSO suite
     for quantum simulation of materials; please cite
         "P. Giannozzi et al., J. Phys.:Condens. Matter 21 395502 (2009);
         "P. Giannozzi et al., J. Phys.:Condens. Matter 29 465901 (2017);
          URL http://www.quantum-espresso.org", 
     in publications or presentations arising from this work. More details at
     http://www.quantum-espresso.org/quote

     Parallel version (MPI), running on     5 processors

     MPI processes distributed on     1 nodes
     R & G space division:  proc/nbgrp/npool/nimage =       5
     Waiting for input...
     Reading input from standard input

     Current dimensions of program PWSCF are:
     Max number of different atomic species (ntypx) = 10
     Max number of k-points (npk) =  40000
     Max angular momentum in pseudopotentials (lmaxx) =  3

     Subspace diagonalization in iterative solution of the eigenvalue problem:
     a serial algorithm will be used


     Parallelization info
     --------------------
     sticks:   dense  smooth     PW     G-vecs:    dense   smooth      PW
     Min          49      49     17                  513      513     106
     Max          51      51     17                  513      513     107
     Sum         253     253     85                 2565     2565     531



     bravais-lattice index     =            2
     lattice parameter (alat)  =       6.6500  a.u.
     unit-cell volume          =      73.5199 (a.u.)^3
     number of atoms/cell      =            1
     number of atomic types    =            1
     number of electrons       =        18.00
     number of Kohn-Sham states=           13
     kinetic-energy cutoff     =      40.0000  Ry
     charge density cutoff     =     160.0000  Ry
     convergence threshold     =      1.0E-08
     mixing beta               =       0.7000
     number of iterations used =            8  plain     mixing
     Exchange-correlation      = PBE ( 1  4  3  4 0 0)

     celldm(1)=   6.650000  celldm(2)=   0.000000  celldm(3)=   0.000000
     celldm(4)=   0.000000  celldm(5)=   0.000000  celldm(6)=   0.000000

     crystal axes: (cart. coord. in units of alat)
               a(1) = (  -0.500000   0.000000   0.500000 )  
               a(2) = (   0.000000   0.500000   0.500000 )  
               a(3) = (  -0.500000   0.500000   0.000000 )  

     reciprocal axes: (cart. coord. in units 2 pi/alat)
               b(1) = ( -1.000000 -1.000000  1.000000 )  
               b(2) = (  1.000000  1.000000  1.000000 )  
               b(3) = ( -1.000000  1.000000 -1.000000 )  


     PseudoPot. # 1 for Ni read from file:
     /home/lorenzo/pseudos/Ni/Ni.pbe-spn-rrkjus_psl.1.0.0.UPF
     MD5 check sum: 8b3fc9aac6dafe35f580d41bb18c3945
     Pseudo is Ultrasoft + core correction, Zval = 18.0
     Generated using "atomic" code by A. Dal Corso v.6.3
     Using radial grid of 1195 points,  6 beta functions with: 
                l(1) =   0
                l(2) =   0
                l(3) =   1
                l(4) =   1
                l(5) =   2
                l(6) =   2
     Q(r) pseudized with 0 coefficients 


     atomic species   valence    mass     pseudopotential
        Ni            18.00    58.69340     Ni( 1.00)

     48 Sym. Ops., with inversion, found



   Cartesian axes

     site n.     atom                  positions (alat units)
         1           Ni  tau(   1) = (   0.0000000   0.0000000   0.0000000  )

     number of k points=    20  gaussian smearing, width (Ry)=  0.0100
                       cart. coord. in units 2pi/alat
        k(    1) = (   0.0000000   0.0000000   0.0000000), wk =   0.0058309
        k(    2) = (  -0.1428571   0.1428571  -0.1428571), wk =   0.0466472
        k(    3) = (  -0.2857143   0.2857143  -0.2857143), wk =   0.0466472
        k(    4) = (  -0.4285714   0.4285714  -0.4285714), wk =   0.0466472
        k(    5) = (   0.0000000   0.2857143   0.0000000), wk =   0.0349854
        k(    6) = (  -0.1428571   0.4285714  -0.1428571), wk =   0.1399417
        k(    7) = (  -0.2857143   0.5714286  -0.2857143), wk =   0.1399417
        k(    8) = (   0.5714286  -0.2857143   0.5714286), wk =   0.1399417
        k(    9) = (   0.4285714  -0.1428571   0.4285714), wk =   0.1399417
        k(   10) = (   0.2857143  -0.0000000   0.2857143), wk =   0.0699708
        k(   11) = (   0.0000000   0.5714286   0.0000000), wk =   0.0349854
        k(   12) = (  -0.1428571   0.7142857  -0.1428571), wk =   0.1399417
        k(   13) = (   0.7142857  -0.1428571   0.7142857), wk =   0.1399417
        k(   14) = (   0.5714286   0.0000000   0.5714286), wk =   0.0699708
        k(   15) = (   0.0000000   0.8571429   0.0000000), wk =   0.0349854
        k(   16) = (   0.8571429  -0.0000000   0.8571429), wk =   0.0699708
        k(   17) = (  -0.2857143   0.5714286   0.0000000), wk =   0.1399417
        k(   18) = (   0.5714286  -0.2857143   0.8571429), wk =   0.2798834
        k(   19) = (   0.7142857  -0.1428571   1.0000000), wk =   0.1399417
        k(   20) = (   0.5714286   0.0000000   0.8571429), wk =   0.1399417

     Dense  grid:     2565 G-vectors     FFT dimensions: (  20,  20,  20)

     Estimated max dynamical RAM per process >       3.25 MB

     Estimated total dynamical RAM >      16.23 MB

     Check: negative/imaginary core charge=   -0.000044    0.000000

     Initial potential from superposition of free atoms

     starting charge   17.99975, renormalised to   18.00000
     Starting wfcs are   10 randomized atomic wfcs +    3 random wfcs

     total cpu time spent up to now is        1.0 secs

     Self-consistent Calculation

     iteration #  1     ecut=    40.00 Ry     beta= 0.70
     Davidson diagonalization with overlap
     ethr =  1.00E-02,  avg # of iterations =  4.7

     Threshold (ethr) on eigenvalues was too large:
     Diagonalizing with lowered threshold

     Davidson diagonalization with overlap
     ethr =  1.63E-04,  avg # of iterations =  1.4

     total cpu time spent up to now is        1.3 secs

     total energy              =    -339.07818336 Ry
     Harris-Foulkes estimate   =    -339.09350260 Ry
     estimated scf accuracy    <       0.03058410 Ry

     iteration #  2     ecut=    40.00 Ry     beta= 0.70
     Davidson diagonalization with overlap
     ethr =  1.70E-04,  avg # of iterations =  2.0

     total cpu time spent up to now is        1.4 secs

     total energy              =    -339.07303558 Ry
     Harris-Foulkes estimate   =    -339.09507926 Ry
     estimated scf accuracy    <       0.05059304 Ry

     iteration #  3     ecut=    40.00 Ry     beta= 0.70
     Davidson diagonalization with overlap
     ethr =  1.70E-04,  avg # of iterations =  2.0

     total cpu time spent up to now is        1.6 secs

     total energy              =    -339.08492295 Ry
     Harris-Foulkes estimate   =    -339.08689069 Ry
     estimated scf accuracy    <       0.00672374 Ry

     iteration #  4     ecut=    40.00 Ry     beta= 0.70
     Davidson diagonalization with overlap
     ethr =  3.74E-05,  avg # of iterations =  2.0

     total cpu time spent up to now is        1.7 secs

     total energy              =    -339.08584433 Ry
     Harris-Foulkes estimate   =    -339.08583726 Ry
     estimated scf accuracy    <       0.00002473 Ry

     iteration #  5     ecut=    40.00 Ry     beta= 0.70
     Davidson diagonalization with overlap
     ethr =  1.37E-07,  avg # of iterations =  2.5

     total cpu time spent up to now is        1.8 secs

     total energy              =    -339.08585626 Ry
     Harris-Foulkes estimate   =    -339.08585698 Ry
     estimated scf accuracy    <       0.00000224 Ry

     iteration #  6     ecut=    40.00 Ry     beta= 0.70
     Davidson diagonalization with overlap
     ethr =  1.24E-08,  avg # of iterations =  1.6

     total cpu time spent up to now is        2.0 secs

     End of self-consistent calculation

          k = 0.0000 0.0000 0.0000 (   331 PWs)   bands (ev):

   -85.6538 -45.5078 -45.5078 -45.5078   8.9506  15.8367  15.8367  15.8367
    16.8772  16.8772  41.4603  45.3937  45.3937

          k =-0.1429 0.1429-0.1429 (   320 PWs)   bands (ev):

   -85.6441 -45.4219 -45.4219 -45.3495   9.7457  15.7352  16.0297  16.0297
    16.9400  16.9400  37.6682  42.4229  44.0299

          k =-0.2857 0.2857-0.2857 (   305 PWs)   bands (ev):

   -85.6243 -45.2464 -45.2464 -45.2107  11.7770  15.6085  16.1317  16.1317
    17.4107  17.4107  30.6928  41.2474  42.9022

          k =-0.4286 0.4286-0.4286 (   317 PWs)   bands (ev):

   -85.6153 -45.4303 -45.3465 -45.3465  13.3067  15.9286  15.9286  16.8873
    17.6822  17.6822  25.0886  40.1437  42.5264

          k = 0.0000 0.2857 0.0000 (   315 PWs)   bands (ev):

   -85.6400 -45.3517 -45.3517 -45.3099  10.0080  15.5514  16.2612  16.2612
    16.6955  17.1275  39.8169  40.7442  40.7442

          k =-0.1429 0.4286-0.1429 (   315 PWs)   bands (ev):

   -85.6281 -45.4128 -45.3688 -45.2855  11.6057  15.2200  16.1442  16.4105
    17.0498  17.4071  33.3989  38.7910  39.4471

          k =-0.2857 0.5714-0.2857 (   319 PWs)   bands (ev):

   -85.6163 -45.4970 -45.3932 -45.3397  13.4437  15.3949  15.8204  16.2763
    17.7452  18.3904  27.0196  37.4307  38.3805

          k = 0.5714-0.2857 0.5714 (   316 PWs)   bands (ev):

   -85.6109 -45.4125 -45.3515 -45.3500  13.8630  15.5341  16.1499  16.1916
    17.6574  19.8371  24.2847  35.6882  39.7756

          k = 0.4286-0.1429 0.4286 (   311 PWs)   bands (ev):

   -85.6178 -45.3972 -45.3048 -45.2389  13.0149  15.4337  15.8291  16.3602
    17.2253  18.2562  29.0222  35.1531  42.3130

          k = 0.2857-0.0000 0.2857 (   317 PWs)   bands (ev):

   -85.6341 -45.4199 -45.3764 -45.3411  10.9546  15.4748  16.1082  16.2981
    16.6919  17.3642  35.3934  36.3573  45.4759

          k = 0.0000 0.5714 0.0000 (   311 PWs)   bands (ev):

   -85.6202 -45.3417 -45.3334 -45.3334  12.4929  14.7742  16.4370  17.1122
    17.1122  17.4660  35.9661  35.9875  35.9875

          k =-0.1429 0.7143-0.1429 (   313 PWs)   bands (ev):

   -85.6101 -45.4616 -45.3540 -45.2613  13.6416  14.5620  16.3652  17.1376
    17.8055  18.7973  30.2606  32.7050  34.9100

          k = 0.7143-0.1429 0.7143 (   309 PWs)   bands (ev):

   -85.6031 -45.3070 -45.3069 -45.2796  14.3875  14.7655  15.9255  16.9552
    17.8262  22.4176  24.9700  30.2942  35.9255

          k = 0.5714 0.0000 0.5714 (   319 PWs)   bands (ev):

   -85.6098 -45.4642 -45.4070 -45.3387  14.4319  15.1168  15.3474  16.6945
    17.2496  20.4628  27.6005  29.7625  38.7850

          k = 0.0000 0.8571 0.0000 (   322 PWs)   bands (ev):

   -85.6076 -45.5345 -45.4456 -45.4456  13.5028  14.1651  17.6534  17.7948
    17.7948  19.0861  28.9318  33.0402  33.0402

          k = 0.8571-0.0000 0.8571 (   314 PWs)   bands (ev):

   -85.6021 -45.4056 -45.4033 -45.3062  13.8383  14.2601  17.0779  17.4952
    17.9342  21.7160  27.4546  29.1915  33.4207

          k =-0.2857 0.5714 0.0000 (   314 PWs)   bands (ev):

   -85.6171 -45.4593 -45.3208 -45.3051  13.2203  14.9615  15.7202  16.9776
    17.1418  18.3293  31.6706  32.6521  37.2863

          k = 0.5714-0.2857 0.8571 (   313 PWs)   bands (ev):

   -85.6071 -45.3674 -45.3481 -45.3117  14.3928  14.9998  15.5224  16.7505
    17.6627  20.8463  26.1014  32.3823  34.4163

          k = 0.7143-0.1429 1.0000 (   311 PWs)   bands (ev):

   -85.6026 -45.3917 -45.3325 -45.2540  14.0674  14.5478  16.2691  17.3708
    17.8892  21.4199  29.3142  29.3366  30.9768

          k = 0.5714 0.0000 0.8571 (   317 PWs)   bands (ev):

   -85.6033 -45.4279 -45.4144 -45.3284  14.4511  14.8779  15.5832  16.9912
    17.8426  24.6140  24.9981  28.4051  31.6651

     the Fermi energy is    17.8336 ev

!    total energy              =    -339.08585659 Ry
     Harris-Foulkes estimate   =    -339.08585659 Ry
     estimated scf accuracy    <          5.8E-09 Ry

     The total energy is the sum of the following terms:

     one-electron contribution =    -185.77963758 Ry
     hartree contribution      =     104.39178365 Ry
     xc contribution           =     -34.31286442 Ry
     ewald contribution        =    -223.38275372 Ry
     smearing contrib. (-TS)   =      -0.00238451 Ry

     convergence has been achieved in   6 iterations

     Forces acting on atoms (cartesian axes, Ry/au):

     atom    1 type  1   force =     0.00000000    0.00000000    0.00000000

     Total force =     0.000000     Total SCF correction =     0.000000


     Computing stress (Cartesian axis) and pressure

          total   stress  (Ry/bohr**3)                   (kbar)     P=-6211.20
  -0.04222291   0.00000000   0.00000000      -6211.20      0.00      0.00
   0.00000000  -0.04222291  -0.00000000          0.00  -6211.20     -0.00
   0.00000000  -0.00000000  -0.04222291          0.00     -0.00  -6211.20


     Writing output data file Ni.save/

     init_run     :      0.15s CPU      0.16s WALL (       1 calls)
     electrons    :      0.93s CPU      1.01s WALL (       1 calls)
     forces       :      0.02s CPU      0.02s WALL (       1 calls)
     stress       :      0.04s CPU      0.04s WALL (       1 calls)

     Called by init_run:
     wfcinit      :      0.04s CPU      0.04s WALL (       1 calls)
     potinit      :      0.00s CPU      0.00s WALL (       1 calls)
     hinit0       :      0.10s CPU      0.10s WALL (       1 calls)

     Called by electrons:
     c_bands      :      0.77s CPU      0.84s WALL (       7 calls)
     sum_band     :      0.14s CPU      0.15s WALL (       7 calls)
     v_of_rho     :      0.01s CPU      0.01s WALL (       7 calls)
     newd         :      0.02s CPU      0.02s WALL (       7 calls)
     mix_rho      :      0.00s CPU      0.00s WALL (       7 calls)

     Called by c_bands:
     init_us_2    :      0.02s CPU      0.02s WALL (     340 calls)
     cegterg      :      0.74s CPU      0.81s WALL (     140 calls)

     Called by sum_band:
     sum_band:bec :      0.00s CPU      0.00s WALL (     140 calls)
     addusdens    :      0.03s CPU      0.03s WALL (       7 calls)

     Called by *egterg:
     h_psi        :      0.51s CPU      0.56s WALL (     483 calls)
     s_psi        :      0.01s CPU      0.01s WALL (     483 calls)
     g_psi        :      0.00s CPU      0.00s WALL (     323 calls)
     cdiaghg      :      0.15s CPU      0.17s WALL (     443 calls)

     Called by h_psi:
     h_psi:pot    :      0.51s CPU      0.56s WALL (     483 calls)
     h_psi:calbec :      0.02s CPU      0.03s WALL (     483 calls)
     vloc_psi     :      0.47s CPU      0.51s WALL (     483 calls)
     add_vuspsi   :      0.01s CPU      0.02s WALL (     483 calls)

     General routines
     calbec       :      0.04s CPU      0.04s WALL (     723 calls)
     fft          :      0.01s CPU      0.01s WALL (     104 calls)
     ffts         :      0.00s CPU      0.00s WALL (       7 calls)
     fftw         :      0.52s CPU      0.57s WALL (   11044 calls)

     Parallel routines
     fft_scatt_xy :      0.04s CPU      0.05s WALL (   11155 calls)
     fft_scatt_yz :      0.20s CPU      0.22s WALL (   11155 calls)

     PWSCF        :     1.96s CPU         2.10s WALL


   This run was terminated on:  22:35:19  26Mar2024            

=------------------------------------------------------------------------------=
   JOB DONE.
=------------------------------------------------------------------------------=
