
     Program PWSCF v.6.3MaX starts on 26Mar2024 at 22:28:32 

     This program is part of the open-source Quantum ESPRESSO suite
     for quantum simulation of materials; please cite
         "P. Giannozzi et al., J. Phys.:Condens. Matter 21 395502 (2009);
         "P. Giannozzi et al., J. Phys.:Condens. Matter 29 465901 (2017);
          URL http://www.quantum-espresso.org", 
     in publications or presentations arising from this work. More details at
     http://www.quantum-espresso.org/quote

     Parallel version (MPI), running on     5 processors

     MPI processes distributed on     1 nodes
     R & G space division:  proc/nbgrp/npool/nimage =       5
     Waiting for input...
     Reading input from standard input

     Current dimensions of program PWSCF are:
     Max number of different atomic species (ntypx) = 10
     Max number of k-points (npk) =  40000
     Max angular momentum in pseudopotentials (lmaxx) =  3
               file Ni.pbe-spn-kjpaw_psl.1.0.0.UPF: wavefunction(s)  3P 3D renormalized

     Subspace diagonalization in iterative solution of the eigenvalue problem:
     a serial algorithm will be used


     Parallelization info
     --------------------
     sticks:   dense  smooth     PW     G-vecs:    dense   smooth      PW
     Min          30      30     11                  248      248      51
     Max          31      31     11                  251      251      52
     Sum         151     151     55                 1243     1243     259



     bravais-lattice index     =            2
     lattice parameter (alat)  =       6.6500  a.u.
     unit-cell volume          =      73.5199 (a.u.)^3
     number of atoms/cell      =            1
     number of atomic types    =            1
     number of electrons       =        18.00
     number of Kohn-Sham states=           13
     kinetic-energy cutoff     =      25.0000  Ry
     charge density cutoff     =     100.0000  Ry
     convergence threshold     =      1.0E-08
     mixing beta               =       0.7000
     number of iterations used =            8  plain     mixing
     Exchange-correlation      = SLA PW PBX PBC ( 1  4  3  4 0 0)

     celldm(1)=   6.650000  celldm(2)=   0.000000  celldm(3)=   0.000000
     celldm(4)=   0.000000  celldm(5)=   0.000000  celldm(6)=   0.000000

     crystal axes: (cart. coord. in units of alat)
               a(1) = (  -0.500000   0.000000   0.500000 )  
               a(2) = (   0.000000   0.500000   0.500000 )  
               a(3) = (  -0.500000   0.500000   0.000000 )  

     reciprocal axes: (cart. coord. in units 2 pi/alat)
               b(1) = ( -1.000000 -1.000000  1.000000 )  
               b(2) = (  1.000000  1.000000  1.000000 )  
               b(3) = ( -1.000000  1.000000 -1.000000 )  


     PseudoPot. # 1 for Ni read from file:
     /home/lorenzo/pseudos/Ni/Ni.pbe-spn-kjpaw_psl.1.0.0.UPF
     MD5 check sum: 6e86b733589c3ad8389697b807d86aa7
     Pseudo is Projector augmented-wave + core cor, Zval = 18.0
     Generated using "atomic" code by A. Dal Corso v.6.3
     Shape of augmentation charge: PSQ
     Using radial grid of 1195 points,  6 beta functions with: 
                l(1) =   0
                l(2) =   0
                l(3) =   1
                l(4) =   1
                l(5) =   2
                l(6) =   2
     Q(r) pseudized with 0 coefficients 


     atomic species   valence    mass     pseudopotential
        Ni            18.00    58.69340     Ni( 1.00)

     48 Sym. Ops., with inversion, found



   Cartesian axes

     site n.     atom                  positions (alat units)
         1           Ni  tau(   1) = (   0.0000000   0.0000000   0.0000000  )

     number of k points=     4  gaussian smearing, width (Ry)=  0.0100
                       cart. coord. in units 2pi/alat
        k(    1) = (   0.0000000   0.0000000   0.0000000), wk =   0.0740741
        k(    2) = (  -0.3333333   0.3333333  -0.3333333), wk =   0.5925926
        k(    3) = (   0.0000000   0.6666667   0.0000000), wk =   0.4444444
        k(    4) = (   0.6666667  -0.0000000   0.6666667), wk =   0.8888889

     Dense  grid:     1243 G-vectors     FFT dimensions: (  15,  15,  15)

     Estimated max dynamical RAM per process >       1.81 MB

     Estimated total dynamical RAM >       9.05 MB

     Check: negative/imaginary core charge=   -0.000244    0.000000

     Initial potential from superposition of free atoms
     Check: negative starting charge=   -0.002907

     starting charge   17.99975, renormalised to   18.00000

     negative rho (up, down):  2.907E-03 0.000E+00
     Starting wfcs are   10 randomized atomic wfcs +    3 random wfcs
     Checking if some PAW data can be deallocated... 

     total cpu time spent up to now is        0.9 secs

     Self-consistent Calculation

     iteration #  1     ecut=    25.00 Ry     beta= 0.70
     Davidson diagonalization with overlap
     ethr =  1.00E-02,  avg # of iterations =  4.5

     total cpu time spent up to now is        1.1 secs

     total energy              =    -414.75326738 Ry
     Harris-Foulkes estimate   =    -420.10804528 Ry
     estimated scf accuracy    <       6.33921306 Ry

     iteration #  2     ecut=    25.00 Ry     beta= 0.70
     Davidson diagonalization with overlap
     ethr =  1.00E-02,  avg # of iterations =  2.0

     negative rho (up, down):  3.460E-04 0.000E+00

     total cpu time spent up to now is        1.2 secs

     total energy              =    -416.87151310 Ry
     Harris-Foulkes estimate   =    -421.42860777 Ry
     estimated scf accuracy    <       9.55479890 Ry

     iteration #  3     ecut=    25.00 Ry     beta= 0.70
     Davidson diagonalization with overlap
     ethr =  1.00E-02,  avg # of iterations =  2.0

     negative rho (up, down):  5.968E-04 0.000E+00

     total cpu time spent up to now is        1.3 secs

     total energy              =    -418.08720192 Ry
     Harris-Foulkes estimate   =    -418.14052219 Ry
     estimated scf accuracy    <       0.08873796 Ry

     iteration #  4     ecut=    25.00 Ry     beta= 0.70
     Davidson diagonalization with overlap
     ethr =  4.93E-04,  avg # of iterations =  2.0

     negative rho (up, down):  2.660E-04 0.000E+00

     total cpu time spent up to now is        1.4 secs

     total energy              =    -418.10079412 Ry
     Harris-Foulkes estimate   =    -418.11891110 Ry
     estimated scf accuracy    <       0.03805585 Ry

     iteration #  5     ecut=    25.00 Ry     beta= 0.70
     Davidson diagonalization with overlap
     ethr =  2.11E-04,  avg # of iterations =  2.0

     negative rho (up, down):  1.683E-04 0.000E+00

     total cpu time spent up to now is        1.5 secs

     total energy              =    -418.10849621 Ry
     Harris-Foulkes estimate   =    -418.10853556 Ry
     estimated scf accuracy    <       0.00025251 Ry

     iteration #  6     ecut=    25.00 Ry     beta= 0.70
     Davidson diagonalization with overlap
     ethr =  1.40E-06,  avg # of iterations =  2.0

     negative rho (up, down):  1.242E-04 0.000E+00

     total cpu time spent up to now is        1.7 secs

     total energy              =    -418.10853795 Ry
     Harris-Foulkes estimate   =    -418.10853488 Ry
     estimated scf accuracy    <       0.00003274 Ry

     iteration #  7     ecut=    25.00 Ry     beta= 0.70
     Davidson diagonalization with overlap
     ethr =  1.82E-07,  avg # of iterations =  1.0

     negative rho (up, down):  1.164E-04 0.000E+00

     total cpu time spent up to now is        1.8 secs

     total energy              =    -418.10852375 Ry
     Harris-Foulkes estimate   =    -418.10854027 Ry
     estimated scf accuracy    <       0.00003939 Ry

     iteration #  8     ecut=    25.00 Ry     beta= 0.70
     Davidson diagonalization with overlap
     ethr =  1.82E-07,  avg # of iterations =  2.0

     negative rho (up, down):  1.187E-04 0.000E+00

     total cpu time spent up to now is        1.9 secs

     total energy              =    -418.10852991 Ry
     Harris-Foulkes estimate   =    -418.10852997 Ry
     estimated scf accuracy    <       0.00000019 Ry

     iteration #  9     ecut=    25.00 Ry     beta= 0.70
     Davidson diagonalization with overlap
     ethr =  1.03E-09,  avg # of iterations =  2.0

     negative rho (up, down):  1.192E-04 0.000E+00

     total cpu time spent up to now is        2.0 secs

     total energy              =    -418.10852993 Ry
     Harris-Foulkes estimate   =    -418.10852993 Ry
     estimated scf accuracy    <       0.00000001 Ry

     iteration # 10     ecut=    25.00 Ry     beta= 0.70
     Davidson diagonalization with overlap
     ethr =  6.88E-11,  avg # of iterations =  1.5

     negative rho (up, down):  1.195E-04 0.000E+00

     total cpu time spent up to now is        2.2 secs

     End of self-consistent calculation

          k = 0.0000 0.0000 0.0000 (   169 PWs)   bands (ev):

   -98.3703 -48.1251 -48.1251 -48.1251   9.8791  14.0830  14.0830  15.3561
    15.3561  15.3561  42.5494  46.1479  46.1479

          k =-0.3333 0.3333-0.3333 (   153 PWs)   bands (ev):

   -97.9683 -44.9867 -44.9867 -43.1351  13.9335  17.6745  17.6745  18.4641
    19.9419  19.9419  30.6010  41.8847  43.3727

          k = 0.0000 0.6667 0.0000 (   153 PWs)   bands (ev):

   -97.9020 -44.5034 -44.5034 -43.1553  15.0908  16.8614  19.2845  19.3010
    20.0835  20.0835  35.0538  35.9262  35.9262

          k = 0.6667-0.0000 0.6667 (   164 PWs)   bands (ev):

   -98.0939 -46.6478 -46.4991 -45.9125  14.7036  15.2686  16.2302  16.4819
    17.4214  23.0848  26.3695  29.1777  37.4748

     the Fermi energy is    19.9895 ev

!    total energy              =    -418.10852993 Ry
     Harris-Foulkes estimate   =    -418.10852993 Ry
     estimated scf accuracy    <          2.4E-09 Ry

     total all-electron energy =     -3030.540637 Ry

     The total energy is the sum of the following terms:

     one-electron contribution =    -164.17642701 Ry
     hartree contribution      =      93.21226195 Ry
     xc contribution           =     -33.21365050 Ry
     ewald contribution        =    -223.38275373 Ry
     one-center paw contrib.   =     -90.54344558 Ry
     smearing contrib. (-TS)   =      -0.00451506 Ry

     convergence has been achieved in  10 iterations

     negative rho (up, down):  1.195E-04 0.000E+00

     Forces acting on atoms (cartesian axes, Ry/au):

     atom    1 type  1   force =     0.00000000    0.00000000    0.00000000

     Total force =     0.000000     Total SCF correction =     0.000000


     Computing stress (Cartesian axis) and pressure


     negative rho (up, down):  1.195E-04 0.000E+00
          total   stress  (Ry/bohr**3)                   (kbar)     P=********
  -0.51431732  -0.00000000  -0.00000000     -75658.68     -0.00     -0.00
  -0.00000000  -0.51431732   0.00000000         -0.00 -75658.68      0.00
  -0.00000000   0.00000000  -0.51431732         -0.00      0.00 -75658.68


     Writing output data file Ni.save/

     init_run     :      0.19s CPU      0.22s WALL (       1 calls)
     electrons    :      1.05s CPU      1.23s WALL (       1 calls)
     forces       :      0.01s CPU      0.01s WALL (       1 calls)
     stress       :      0.02s CPU      0.02s WALL (       1 calls)

     Called by init_run:
     wfcinit      :      0.01s CPU      0.01s WALL (       1 calls)
     potinit      :      0.09s CPU      0.11s WALL (       1 calls)
     hinit0       :      0.08s CPU      0.08s WALL (       1 calls)

     Called by electrons:
     c_bands      :      0.13s CPU      0.15s WALL (      10 calls)
     sum_band     :      0.03s CPU      0.04s WALL (      10 calls)
     v_of_rho     :      0.01s CPU      0.01s WALL (      11 calls)
     newd         :      0.01s CPU      0.01s WALL (      11 calls)
     PAW_pot      :      0.95s CPU      1.12s WALL (      11 calls)
     mix_rho      :      0.00s CPU      0.00s WALL (      10 calls)

     Called by c_bands:
     init_us_2    :      0.00s CPU      0.00s WALL (      92 calls)
     cegterg      :      0.13s CPU      0.14s WALL (      40 calls)

     Called by sum_band:
     sum_band:bec :      0.00s CPU      0.00s WALL (      40 calls)
     addusdens    :      0.01s CPU      0.01s WALL (      10 calls)

     Called by *egterg:
     h_psi        :      0.07s CPU      0.08s WALL (     128 calls)
     s_psi        :      0.00s CPU      0.00s WALL (     128 calls)
     g_psi        :      0.00s CPU      0.00s WALL (      84 calls)
     cdiaghg      :      0.04s CPU      0.04s WALL (     124 calls)

     Called by h_psi:
     h_psi:pot    :      0.07s CPU      0.08s WALL (     128 calls)
     h_psi:calbec :      0.00s CPU      0.00s WALL (     128 calls)
     vloc_psi     :      0.07s CPU      0.07s WALL (     128 calls)
     add_vuspsi   :      0.00s CPU      0.00s WALL (     128 calls)

     General routines
     calbec       :      0.01s CPU      0.01s WALL (     188 calls)
     fft          :      0.01s CPU      0.01s WALL (     147 calls)
     ffts         :      0.00s CPU      0.00s WALL (      10 calls)
     fftw         :      0.07s CPU      0.08s WALL (    3086 calls)

     Parallel routines
     fft_scatt_xy :      0.01s CPU      0.01s WALL (    3243 calls)
     fft_scatt_yz :      0.03s CPU      0.04s WALL (    3243 calls)

     PWSCF        :     2.00s CPU         2.24s WALL


   This run was terminated on:  22:28:34  26Mar2024            

=------------------------------------------------------------------------------=
   JOB DONE.
=------------------------------------------------------------------------------=
