
     Program PWSCF v.6.3MaX starts on 26Mar2024 at 23: 5:48 

     This program is part of the open-source Quantum ESPRESSO suite
     for quantum simulation of materials; please cite
         "P. Giannozzi et al., J. Phys.:Condens. Matter 21 395502 (2009);
         "P. Giannozzi et al., J. Phys.:Condens. Matter 29 465901 (2017);
          URL http://www.quantum-espresso.org", 
     in publications or presentations arising from this work. More details at
     http://www.quantum-espresso.org/quote

     Parallel version (MPI), running on     5 processors

     MPI processes distributed on     1 nodes
     R & G space division:  proc/nbgrp/npool/nimage =       5
     Waiting for input...
     Reading input from standard input

     Current dimensions of program PWSCF are:
     Max number of different atomic species (ntypx) = 10
     Max number of k-points (npk) =  40000
     Max angular momentum in pseudopotentials (lmaxx) =  3
               file Ni.pbesol-spn-kjpaw_psl.1.0.0.UPF: wavefunction(s)  3P 3D renormalized

     Subspace diagonalization in iterative solution of the eigenvalue problem:
     a serial algorithm will be used


     Parallelization info
     --------------------
     sticks:   dense  smooth     PW     G-vecs:    dense   smooth      PW
     Min         116     116     37                 1850     1850     327
     Max         117     117     38                 1853     1853     329
     Sum         583     583    187                 9257     9257    1639



     bravais-lattice index     =            2
     lattice parameter (alat)  =       6.6500  a.u.
     unit-cell volume          =      73.5199 (a.u.)^3
     number of atoms/cell      =            1
     number of atomic types    =            1
     number of electrons       =        18.00
     number of Kohn-Sham states=           13
     kinetic-energy cutoff     =      95.0000  Ry
     charge density cutoff     =     380.0000  Ry
     convergence threshold     =      1.0E-08
     mixing beta               =       0.7000
     number of iterations used =            8  plain     mixing
     Exchange-correlation      = SLA PW PSX PSC ( 1  4 10  8 0 0)

     celldm(1)=   6.650000  celldm(2)=   0.000000  celldm(3)=   0.000000
     celldm(4)=   0.000000  celldm(5)=   0.000000  celldm(6)=   0.000000

     crystal axes: (cart. coord. in units of alat)
               a(1) = (  -0.500000   0.000000   0.500000 )  
               a(2) = (   0.000000   0.500000   0.500000 )  
               a(3) = (  -0.500000   0.500000   0.000000 )  

     reciprocal axes: (cart. coord. in units 2 pi/alat)
               b(1) = ( -1.000000 -1.000000  1.000000 )  
               b(2) = (  1.000000  1.000000  1.000000 )  
               b(3) = ( -1.000000  1.000000 -1.000000 )  


     PseudoPot. # 1 for Ni read from file:
     /home/lorenzo/pseudos/Ni/Ni.pbesol-spn-kjpaw_psl.1.0.0.UPF
     MD5 check sum: ef06ee83099c2673f0516457bd731f51
     Pseudo is Projector augmented-wave + core cor, Zval = 18.0
     Generated using "atomic" code by A. Dal Corso v.6.3
     Shape of augmentation charge: PSQ
     Using radial grid of 1195 points,  6 beta functions with: 
                l(1) =   0
                l(2) =   0
                l(3) =   1
                l(4) =   1
                l(5) =   2
                l(6) =   2
     Q(r) pseudized with 0 coefficients 


     atomic species   valence    mass     pseudopotential
        Ni            18.00    58.69340     Ni( 1.00)

     48 Sym. Ops., with inversion, found



   Cartesian axes

     site n.     atom                  positions (alat units)
         1           Ni  tau(   1) = (   0.0000000   0.0000000   0.0000000  )

     number of k points=    16  gaussian smearing, width (Ry)=  0.0100
                       cart. coord. in units 2pi/alat
        k(    1) = (   0.0000000   0.0000000   0.0000000), wk =   0.0092593
        k(    2) = (  -0.1666667   0.1666667  -0.1666667), wk =   0.0740741
        k(    3) = (  -0.3333333   0.3333333  -0.3333333), wk =   0.0740741
        k(    4) = (   0.5000000  -0.5000000   0.5000000), wk =   0.0370370
        k(    5) = (   0.0000000   0.3333333   0.0000000), wk =   0.0555556
        k(    6) = (  -0.1666667   0.5000000  -0.1666667), wk =   0.2222222
        k(    7) = (   0.6666667  -0.3333333   0.6666667), wk =   0.2222222
        k(    8) = (   0.5000000  -0.1666667   0.5000000), wk =   0.2222222
        k(    9) = (   0.3333333   0.0000000   0.3333333), wk =   0.1111111
        k(   10) = (   0.0000000   0.6666667   0.0000000), wk =   0.0555556
        k(   11) = (   0.8333333  -0.1666667   0.8333333), wk =   0.2222222
        k(   12) = (   0.6666667  -0.0000000   0.6666667), wk =   0.1111111
        k(   13) = (   0.0000000  -1.0000000   0.0000000), wk =   0.0277778
        k(   14) = (   0.6666667  -0.3333333   1.0000000), wk =   0.2222222
        k(   15) = (   0.5000000  -0.1666667   0.8333333), wk =   0.2222222
        k(   16) = (  -0.3333333  -1.0000000   0.0000000), wk =   0.1111111

     Dense  grid:     9257 G-vectors     FFT dimensions: (  30,  30,  30)

     Estimated max dynamical RAM per process >       9.31 MB

     Estimated total dynamical RAM >      46.56 MB

     Check: negative/imaginary core charge=   -0.000003    0.000000

     Initial potential from superposition of free atoms

     starting charge   17.99977, renormalised to   18.00000
     Starting wfcs are   10 randomized atomic wfcs +    3 random wfcs
     Checking if some PAW data can be deallocated... 

     total cpu time spent up to now is        1.7 secs

     Self-consistent Calculation

     iteration #  1     ecut=    95.00 Ry     beta= 0.70
     Davidson diagonalization with overlap
     ethr =  1.00E-02,  avg # of iterations =  3.6

     Threshold (ethr) on eigenvalues was too large:
     Diagonalizing with lowered threshold

     Davidson diagonalization with overlap
     ethr =  8.63E-06,  avg # of iterations =  3.4

     total cpu time spent up to now is        2.4 secs

     total energy              =    -426.57971688 Ry
     Harris-Foulkes estimate   =    -426.58021527 Ry
     estimated scf accuracy    <       0.00146877 Ry

     iteration #  2     ecut=    95.00 Ry     beta= 0.70
     Davidson diagonalization with overlap
     ethr =  8.16E-06,  avg # of iterations =  1.0

     total cpu time spent up to now is        2.7 secs

     total energy              =    -426.57961142 Ry
     Harris-Foulkes estimate   =    -426.57986895 Ry
     estimated scf accuracy    <       0.00039439 Ry

     iteration #  3     ecut=    95.00 Ry     beta= 0.70
     Davidson diagonalization with overlap
     ethr =  2.19E-06,  avg # of iterations =  2.5

     total cpu time spent up to now is        3.1 secs

     total energy              =    -426.57957191 Ry
     Harris-Foulkes estimate   =    -426.58003556 Ry
     estimated scf accuracy    <       0.00146283 Ry

     iteration #  4     ecut=    95.00 Ry     beta= 0.70
     Davidson diagonalization with overlap
     ethr =  2.19E-06,  avg # of iterations =  2.1

     total cpu time spent up to now is        3.5 secs

     total energy              =    -426.57979911 Ry
     Harris-Foulkes estimate   =    -426.57980067 Ry
     estimated scf accuracy    <       0.00000439 Ry

     iteration #  5     ecut=    95.00 Ry     beta= 0.70
     Davidson diagonalization with overlap
     ethr =  2.44E-08,  avg # of iterations =  2.8

     total cpu time spent up to now is        3.8 secs

     total energy              =    -426.57980059 Ry
     Harris-Foulkes estimate   =    -426.57980066 Ry
     estimated scf accuracy    <       0.00000026 Ry

     iteration #  6     ecut=    95.00 Ry     beta= 0.70
     Davidson diagonalization with overlap
     ethr =  1.43E-09,  avg # of iterations =  1.9

     total cpu time spent up to now is        4.2 secs

     total energy              =    -426.57980060 Ry
     Harris-Foulkes estimate   =    -426.57980061 Ry
     estimated scf accuracy    <       0.00000002 Ry

     iteration #  7     ecut=    95.00 Ry     beta= 0.70
     Davidson diagonalization with overlap
     ethr =  1.05E-10,  avg # of iterations =  2.1

     total cpu time spent up to now is        4.6 secs

     total energy              =    -426.57980060 Ry
     Harris-Foulkes estimate   =    -426.57980061 Ry
     estimated scf accuracy    <       0.00000001 Ry

     iteration #  8     ecut=    95.00 Ry     beta= 0.70
     Davidson diagonalization with overlap
     ethr =  6.27E-11,  avg # of iterations =  1.0

     total cpu time spent up to now is        4.9 secs

     End of self-consistent calculation

          k = 0.0000 0.0000 0.0000 (  1139 PWs)   bands (ev):

   -85.2551 -45.6605 -45.6605 -45.6605   8.5988  15.6452  15.6452  15.6452
    16.7691  16.7691  41.2816  45.1950  45.1950

          k =-0.1667 0.1667-0.1667 (  1167 PWs)   bands (ev):

   -85.2466 -45.7169 -45.6691 -45.6691   9.6569  15.3968  15.8270  15.8270
    16.7268  16.7268  36.3186  42.0460  43.6691

          k =-0.3333 0.3333-0.3333 (  1149 PWs)   bands (ev):

   -85.2294 -45.8282 -45.6850 -45.6850  12.1247  15.4908  15.7572  15.7572
    17.1431  17.1431  28.2510  40.6089  42.5567

          k = 0.5000-0.5000 0.5000 (  1158 PWs)   bands (ev):

   -85.2208 -45.8839 -45.6931 -45.6931  13.0496  15.6084  15.6084  17.3248
    17.5030  17.5030  23.5337  39.7905  42.3092

          k = 0.0000 0.3333 0.0000 (  1154 PWs)   bands (ev):

   -85.2437 -45.7150 -45.6817 -45.6817   9.9992  15.1526  16.0479  16.0479
    16.3429  16.9471  39.4043  39.7381  39.7381

          k =-0.1667 0.5000-0.1667 (  1151 PWs)   bands (ev):

   -85.2294 -45.7967 -45.7007 -45.7001  12.0457  14.8005  15.7065  16.2235
    17.1165  17.2737  31.4384  37.7204  38.1799

          k = 0.6667-0.3333 0.6667 (  1153 PWs)   bands (ev):

   -85.2180 -45.8613 -45.7255 -45.7059  13.5543  15.0502  15.6566  16.0328
    17.5286  19.5286  24.6261  35.3707  38.0174

          k = 0.5000-0.1667 0.5000 (  1144 PWs)   bands (ev):

   -85.2208 -45.8434 -45.7326 -45.6930  13.3736  15.2535  15.3807  16.0239
    17.0350  18.8370  26.5945  33.8908  40.8295

          k = 0.3333 0.0000 0.3333 (  1147 PWs)   bands (ev):

   -85.2351 -45.7701 -45.7054 -45.6746  11.2597  15.0627  15.7792  16.1994
    16.3597  17.3618  33.8929  34.6508  44.2489

          k = 0.0000 0.6667 0.0000 (  1150 PWs)   bands (ev):

   -85.2209 -45.8203 -45.7235 -45.7235  12.8289  14.2325  16.6566  17.0420
    17.0420  17.3119  33.3045  34.5674  34.5674

          k = 0.8333-0.1667 0.8333 (  1149 PWs)   bands (ev):

   -85.2123 -45.8491 -45.7575 -45.7314  13.5867  14.1249  16.2710  16.9955
    17.5877  20.2929  28.3680  29.6475  34.0353

          k = 0.6667-0.0000 0.6667 (  1141 PWs)   bands (ev):

   -85.2123 -45.8119 -45.8108 -45.7162  14.2880  14.4506  15.4051  16.6511
    17.2228  22.5282  25.2347  28.2593  36.4190

          k = 0.0000-1.0000 0.0000 (  1162 PWs)   bands (ev):

   -85.2095 -45.8718 -45.7445 -45.7445  13.2197  13.8012  17.4989  17.6807
    17.6807  20.0637  27.0073  32.4440  32.4440

          k = 0.6667-0.3333 1.0000 (  1151 PWs)   bands (ev):

   -85.2180 -45.8271 -45.7527 -45.7122  13.6810  14.5735  15.2536  16.7921
    17.0429  19.1399  29.8007  30.8944  34.5443

          k = 0.5000-0.1667 0.8333 (  1152 PWs)   bands (ev):

   -85.2123 -45.8347 -45.7794 -45.7250  14.4332  14.4415  15.1819  16.5492
    17.4476  22.7174  24.3373  31.2093  31.8905

          k =-0.3333-1.0000 0.0000 (  1142 PWs)   bands (ev):

   -85.2095 -45.8400 -45.7761 -45.7453  13.8522  14.2945  15.8239  16.9450
    17.6815  23.1183  27.3822  28.0783  29.6763

     the Fermi energy is    17.4910 ev

!    total energy              =    -426.57980061 Ry
     Harris-Foulkes estimate   =    -426.57980060 Ry
     estimated scf accuracy    <          2.3E-10 Ry

     total all-electron energy =     -3039.038145 Ry

     The total energy is the sum of the following terms:

     one-electron contribution =    -184.89082435 Ry
     hartree contribution      =     104.46055131 Ry
     xc contribution           =     -33.91541178 Ry
     ewald contribution        =    -223.38275369 Ry
     one-center paw contrib.   =     -88.84925022 Ry
     smearing contrib. (-TS)   =      -0.00211188 Ry

     convergence has been achieved in   8 iterations

     Forces acting on atoms (cartesian axes, Ry/au):

     atom    1 type  1   force =     0.00000000    0.00000000    0.00000000

     Total force =     0.000000     Total SCF correction =     0.000000


     Computing stress (Cartesian axis) and pressure

          total   stress  (Ry/bohr**3)                   (kbar)     P= -128.87
  -0.00087602  -0.00000000  -0.00000000       -128.87     -0.00     -0.00
  -0.00000000  -0.00087602   0.00000000         -0.00   -128.87      0.00
  -0.00000000   0.00000000  -0.00087602         -0.00      0.00   -128.87


     Writing output data file Ni.save/

     init_run     :      0.40s CPU      0.42s WALL (       1 calls)
     electrons    :      3.01s CPU      3.21s WALL (       1 calls)
     forces       :      0.04s CPU      0.04s WALL (       1 calls)
     stress       :      0.14s CPU      0.14s WALL (       1 calls)

     Called by init_run:
     wfcinit      :      0.09s CPU      0.09s WALL (       1 calls)
     potinit      :      0.11s CPU      0.12s WALL (       1 calls)
     hinit0       :      0.17s CPU      0.17s WALL (       1 calls)

     Called by electrons:
     c_bands      :      1.76s CPU      1.83s WALL (       9 calls)
     sum_band     :      0.41s CPU      0.43s WALL (       9 calls)
     v_of_rho     :      0.04s CPU      0.05s WALL (       9 calls)
     newd         :      0.08s CPU      0.09s WALL (       9 calls)
     PAW_pot      :      0.81s CPU      0.93s WALL (       9 calls)
     mix_rho      :      0.01s CPU      0.01s WALL (       9 calls)

     Called by c_bands:
     init_us_2    :      0.05s CPU      0.05s WALL (     336 calls)
     cegterg      :      1.70s CPU      1.77s WALL (     144 calls)

     Called by sum_band:
     sum_band:bec :      0.00s CPU      0.00s WALL (     144 calls)
     addusdens    :      0.08s CPU      0.08s WALL (       9 calls)

     Called by *egterg:
     h_psi        :      1.33s CPU      1.39s WALL (     488 calls)
     s_psi        :      0.04s CPU      0.04s WALL (     488 calls)
     g_psi        :      0.00s CPU      0.00s WALL (     328 calls)
     cdiaghg      :      0.16s CPU      0.16s WALL (     456 calls)

     Called by h_psi:
     h_psi:pot    :      1.33s CPU      1.38s WALL (     488 calls)
     h_psi:calbec :      0.07s CPU      0.07s WALL (     488 calls)
     vloc_psi     :      1.21s CPU      1.26s WALL (     488 calls)
     add_vuspsi   :      0.04s CPU      0.04s WALL (     488 calls)

     General routines
     calbec       :      0.11s CPU      0.11s WALL (     712 calls)
     fft          :      0.03s CPU      0.03s WALL (     126 calls)
     ffts         :      0.00s CPU      0.00s WALL (       9 calls)
     fftw         :      1.38s CPU      1.43s WALL (   11284 calls)

     Parallel routines
     fft_scatt_xy :      0.12s CPU      0.12s WALL (   11419 calls)
     fft_scatt_yz :      0.38s CPU      0.39s WALL (   11419 calls)

     PWSCF        :     4.87s CPU         5.16s WALL


   This run was terminated on:  23: 5:54  26Mar2024            

=------------------------------------------------------------------------------=
   JOB DONE.
=------------------------------------------------------------------------------=
