
     Program PWSCF v.6.3MaX starts on 26Mar2024 at 22:37:16 

     This program is part of the open-source Quantum ESPRESSO suite
     for quantum simulation of materials; please cite
         "P. Giannozzi et al., J. Phys.:Condens. Matter 21 395502 (2009);
         "P. Giannozzi et al., J. Phys.:Condens. Matter 29 465901 (2017);
          URL http://www.quantum-espresso.org", 
     in publications or presentations arising from this work. More details at
     http://www.quantum-espresso.org/quote

     Parallel version (MPI), running on     5 processors

     MPI processes distributed on     1 nodes
     R & G space division:  proc/nbgrp/npool/nimage =       5
     Waiting for input...
     Reading input from standard input

     Current dimensions of program PWSCF are:
     Max number of different atomic species (ntypx) = 10
     Max number of k-points (npk) =  40000
     Max angular momentum in pseudopotentials (lmaxx) =  3

     Subspace diagonalization in iterative solution of the eigenvalue problem:
     a serial algorithm will be used


     Parallelization info
     --------------------
     sticks:   dense  smooth     PW     G-vecs:    dense   smooth      PW
     Min          53      53     18                  595      595     121
     Max          56      56     19                  595      595     123
     Sum         271     271     91                 2975     2975     609



     bravais-lattice index     =            2
     lattice parameter (alat)  =       6.6500  a.u.
     unit-cell volume          =      73.5199 (a.u.)^3
     number of atoms/cell      =            1
     number of atomic types    =            1
     number of electrons       =        18.00
     number of Kohn-Sham states=           13
     kinetic-energy cutoff     =      45.0000  Ry
     charge density cutoff     =     180.0000  Ry
     convergence threshold     =      1.0E-08
     mixing beta               =       0.7000
     number of iterations used =            8  plain     mixing
     Exchange-correlation      = PBESOL ( 1  4 10  8 0 0)

     celldm(1)=   6.650000  celldm(2)=   0.000000  celldm(3)=   0.000000
     celldm(4)=   0.000000  celldm(5)=   0.000000  celldm(6)=   0.000000

     crystal axes: (cart. coord. in units of alat)
               a(1) = (  -0.500000   0.000000   0.500000 )  
               a(2) = (   0.000000   0.500000   0.500000 )  
               a(3) = (  -0.500000   0.500000   0.000000 )  

     reciprocal axes: (cart. coord. in units 2 pi/alat)
               b(1) = ( -1.000000 -1.000000  1.000000 )  
               b(2) = (  1.000000  1.000000  1.000000 )  
               b(3) = ( -1.000000  1.000000 -1.000000 )  


     PseudoPot. # 1 for Ni read from file:
     /home/lorenzo/pseudos/Ni/Ni.pbesol-spn-rrkjus_psl.1.0.0.UPF
     MD5 check sum: 6fc0a587bf949a08f2faed986b854013
     Pseudo is Ultrasoft + core correction, Zval = 18.0
     Generated using "atomic" code by A. Dal Corso v.6.3
     Using radial grid of 1195 points,  6 beta functions with: 
                l(1) =   0
                l(2) =   0
                l(3) =   1
                l(4) =   1
                l(5) =   2
                l(6) =   2
     Q(r) pseudized with 0 coefficients 


     atomic species   valence    mass     pseudopotential
        Ni            18.00    58.69340     Ni( 1.00)

     48 Sym. Ops., with inversion, found



   Cartesian axes

     site n.     atom                  positions (alat units)
         1           Ni  tau(   1) = (   0.0000000   0.0000000   0.0000000  )

     number of k points=    16  gaussian smearing, width (Ry)=  0.0100
                       cart. coord. in units 2pi/alat
        k(    1) = (   0.0000000   0.0000000   0.0000000), wk =   0.0092593
        k(    2) = (  -0.1666667   0.1666667  -0.1666667), wk =   0.0740741
        k(    3) = (  -0.3333333   0.3333333  -0.3333333), wk =   0.0740741
        k(    4) = (   0.5000000  -0.5000000   0.5000000), wk =   0.0370370
        k(    5) = (   0.0000000   0.3333333   0.0000000), wk =   0.0555556
        k(    6) = (  -0.1666667   0.5000000  -0.1666667), wk =   0.2222222
        k(    7) = (   0.6666667  -0.3333333   0.6666667), wk =   0.2222222
        k(    8) = (   0.5000000  -0.1666667   0.5000000), wk =   0.2222222
        k(    9) = (   0.3333333   0.0000000   0.3333333), wk =   0.1111111
        k(   10) = (   0.0000000   0.6666667   0.0000000), wk =   0.0555556
        k(   11) = (   0.8333333  -0.1666667   0.8333333), wk =   0.2222222
        k(   12) = (   0.6666667  -0.0000000   0.6666667), wk =   0.1111111
        k(   13) = (   0.0000000  -1.0000000   0.0000000), wk =   0.0277778
        k(   14) = (   0.6666667  -0.3333333   1.0000000), wk =   0.2222222
        k(   15) = (   0.5000000  -0.1666667   0.8333333), wk =   0.2222222
        k(   16) = (  -0.3333333  -1.0000000   0.0000000), wk =   0.1111111

     Dense  grid:     2975 G-vectors     FFT dimensions: (  24,  24,  24)

     Estimated max dynamical RAM per process >       3.68 MB

     Estimated total dynamical RAM >      18.42 MB

     Check: negative/imaginary core charge=   -0.000034    0.000000

     Initial potential from superposition of free atoms

     starting charge   17.99977, renormalised to   18.00000
     Starting wfcs are   10 randomized atomic wfcs +    3 random wfcs

     total cpu time spent up to now is        0.9 secs

     Self-consistent Calculation

     iteration #  1     ecut=    45.00 Ry     beta= 0.70
     Davidson diagonalization with overlap
     ethr =  1.00E-02,  avg # of iterations =  4.3

     Threshold (ethr) on eigenvalues was too large:
     Diagonalizing with lowered threshold

     Davidson diagonalization with overlap
     ethr =  3.69E-05,  avg # of iterations =  2.5

     total cpu time spent up to now is        1.1 secs

     total energy              =    -339.23472719 Ry
     Harris-Foulkes estimate   =    -339.23777379 Ry
     estimated scf accuracy    <       0.00691254 Ry

     iteration #  2     ecut=    45.00 Ry     beta= 0.70
     Davidson diagonalization with overlap
     ethr =  3.84E-05,  avg # of iterations =  2.0

     total cpu time spent up to now is        1.3 secs

     total energy              =    -339.23275910 Ry
     Harris-Foulkes estimate   =    -339.23807479 Ry
     estimated scf accuracy    <       0.01291899 Ry

     iteration #  3     ecut=    45.00 Ry     beta= 0.70
     Davidson diagonalization with overlap
     ethr =  3.84E-05,  avg # of iterations =  2.0

     total cpu time spent up to now is        1.4 secs

     total energy              =    -339.23590337 Ry
     Harris-Foulkes estimate   =    -339.23659448 Ry
     estimated scf accuracy    <       0.00259224 Ry

     iteration #  4     ecut=    45.00 Ry     beta= 0.70
     Davidson diagonalization with overlap
     ethr =  1.44E-05,  avg # of iterations =  1.4

     total cpu time spent up to now is        1.5 secs

     total energy              =    -339.23613739 Ry
     Harris-Foulkes estimate   =    -339.23617098 Ry
     estimated scf accuracy    <       0.00008630 Ry

     iteration #  5     ecut=    45.00 Ry     beta= 0.70
     Davidson diagonalization with overlap
     ethr =  4.79E-07,  avg # of iterations =  2.1

     total cpu time spent up to now is        1.6 secs

     total energy              =    -339.23616645 Ry
     Harris-Foulkes estimate   =    -339.23617251 Ry
     estimated scf accuracy    <       0.00002578 Ry

     iteration #  6     ecut=    45.00 Ry     beta= 0.70
     Davidson diagonalization with overlap
     ethr =  1.43E-07,  avg # of iterations =  1.0

     total cpu time spent up to now is        1.7 secs

     total energy              =    -339.23616715 Ry
     Harris-Foulkes estimate   =    -339.23616815 Ry
     estimated scf accuracy    <       0.00000276 Ry

     iteration #  7     ecut=    45.00 Ry     beta= 0.70
     Davidson diagonalization with overlap
     ethr =  1.53E-08,  avg # of iterations =  1.9

     total cpu time spent up to now is        1.8 secs

     total energy              =    -339.23616767 Ry
     Harris-Foulkes estimate   =    -339.23616770 Ry
     estimated scf accuracy    <       0.00000008 Ry

     iteration #  8     ecut=    45.00 Ry     beta= 0.70
     Davidson diagonalization with overlap
     ethr =  4.26E-10,  avg # of iterations =  2.2

     total cpu time spent up to now is        1.9 secs

     End of self-consistent calculation

          k = 0.0000 0.0000 0.0000 (   339 PWs)   bands (ev):

   -85.3263 -45.3957 -45.3957 -45.3957   8.7413  15.7391  15.7391  15.7391
    16.8936  16.8936  41.2715  45.1862  45.1862

          k =-0.1667 0.1667-0.1667 (   362 PWs)   bands (ev):

   -85.3183 -45.5852 -45.4876 -45.4876   9.7681  15.4644  15.8908  15.8908
    16.7470  16.7470  36.3032  42.0606  43.6237

          k =-0.3333 0.3333-0.3333 (   359 PWs)   bands (ev):

   -85.3008 -45.6676 -45.4849 -45.4849  12.2347  15.5509  15.8323  15.8323
    17.1710  17.1710  28.3104  40.6086  42.5162

          k = 0.5000-0.5000 0.5000 (   368 PWs)   bands (ev):

   -85.2923 -45.8031 -45.5030 -45.5030  13.1496  15.6805  15.6805  17.3019
    17.5132  17.5132  23.6142  39.7849  42.2887

          k = 0.0000 0.3333 0.0000 (   355 PWs)   bands (ev):

   -85.3152 -45.5812 -45.4512 -45.4512  10.1171  15.2618  16.0906  16.0906
    16.3930  17.0306  39.3565  39.6971  39.6971

          k =-0.1667 0.5000-0.1667 (   375 PWs)   bands (ev):

   -85.3012 -45.6793 -45.5855 -45.5541  12.1224  14.8483  15.7406  16.2480
    17.1259  17.2810  31.4467  37.6824  38.1348

          k = 0.6667-0.3333 0.6667 (   381 PWs)   bands (ev):

   -85.2898 -45.7936 -45.6140 -45.5802  13.6145  15.0629  15.6818  16.0540
    17.5135  19.5078  24.6847  35.3575  37.9784

          k = 0.5000-0.1667 0.5000 (   373 PWs)   bands (ev):

   -85.2924 -45.7435 -45.5855 -45.5363  13.4453  15.2821  15.4475  16.0413
    17.0457  18.8471  26.6320  33.9055  40.7830

          k = 0.3333 0.0000 0.3333 (   371 PWs)   bands (ev):

   -85.3069 -45.6619 -45.5588 -45.5226  11.3492  15.1076  15.8478  16.2196
    16.3716  17.3662  33.8416  34.7067  44.2487

          k = 0.0000 0.6667 0.0000 (   379 PWs)   bands (ev):

   -85.2926 -45.7517 -45.5805 -45.5805  12.8947  14.3049  16.6642  17.0447
    17.0447  17.3247  33.2795  34.5372  34.5372

          k = 0.8333-0.1667 0.8333 (   376 PWs)   bands (ev):

   -85.2840 -45.7500 -45.6337 -45.5742  13.6449  14.1771  16.2718  17.0271
    17.5925  20.2975  28.3533  29.7229  34.0074

          k = 0.6667-0.0000 0.6667 (   383 PWs)   bands (ev):

   -85.2841 -45.7404 -45.7216 -45.5941  14.3440  14.4668  15.4012  16.6418
    17.2229  22.5341  25.1877  28.3722  36.3811

          k = 0.0000-1.0000 0.0000 (   388 PWs)   bands (ev):

   -85.2815 -45.8033 -45.6541 -45.6541  13.2715  13.8504  17.4791  17.6469
    17.6469  20.0360  27.0845  32.4197  32.4197

          k = 0.6667-0.3333 1.0000 (   376 PWs)   bands (ev):

   -85.2896 -45.7161 -45.6221 -45.5723  13.7243  14.6129  15.3125  16.8095
    17.0527  19.1534  29.7554  30.9584  34.5868

          k = 0.5000-0.1667 0.8333 (   384 PWs)   bands (ev):

   -85.2842 -45.7531 -45.6907 -45.6221  14.4629  14.4716  15.1988  16.5375
    17.4287  22.6807  24.3920  31.1644  32.0113

          k =-0.3333-1.0000 0.0000 (   374 PWs)   bands (ev):

   -85.2811 -45.7335 -45.6344 -45.5994  13.9088  14.3629  15.8288  16.9483
    17.6890  23.0826  27.4219  28.0463  29.8447

     the Fermi energy is    17.4831 ev

!    total energy              =    -339.23616768 Ry
     Harris-Foulkes estimate   =    -339.23616769 Ry
     estimated scf accuracy    <          9.6E-09 Ry

     The total energy is the sum of the following terms:

     one-electron contribution =    -186.29818662 Ry
     hartree contribution      =     104.36242110 Ry
     xc contribution           =     -33.91555588 Ry
     ewald contribution        =    -223.38275378 Ry
     smearing contrib. (-TS)   =      -0.00209250 Ry

     convergence has been achieved in   8 iterations

     Forces acting on atoms (cartesian axes, Ry/au):

     atom    1 type  1   force =     0.00000000    0.00000000    0.00000000

     Total force =     0.000000     Total SCF correction =     0.000000


     Computing stress (Cartesian axis) and pressure

          total   stress  (Ry/bohr**3)                   (kbar)     P=-2468.80
  -0.01678253  -0.00000000  -0.00000000      -2468.80     -0.00     -0.00
  -0.00000000  -0.01678253  -0.00000000         -0.00  -2468.80     -0.00
  -0.00000000  -0.00000000  -0.01678253         -0.00     -0.00  -2468.80


     Writing output data file Ni.save/

     init_run     :      0.16s CPU      0.16s WALL (       1 calls)
     electrons    :      1.01s CPU      1.09s WALL (       1 calls)
     forces       :      0.02s CPU      0.02s WALL (       1 calls)
     stress       :      0.06s CPU      0.06s WALL (       1 calls)

     Called by init_run:
     wfcinit      :      0.03s CPU      0.04s WALL (       1 calls)
     potinit      :      0.01s CPU      0.01s WALL (       1 calls)
     hinit0       :      0.11s CPU      0.11s WALL (       1 calls)

     Called by electrons:
     c_bands      :      0.79s CPU      0.86s WALL (       9 calls)
     sum_band     :      0.17s CPU      0.18s WALL (       9 calls)
     v_of_rho     :      0.03s CPU      0.03s WALL (       9 calls)
     newd         :      0.02s CPU      0.02s WALL (       9 calls)
     mix_rho      :      0.00s CPU      0.00s WALL (       9 calls)

     Called by c_bands:
     init_us_2    :      0.02s CPU      0.02s WALL (     336 calls)
     cegterg      :      0.77s CPU      0.83s WALL (     144 calls)

     Called by sum_band:
     sum_band:bec :      0.00s CPU      0.00s WALL (     144 calls)
     addusdens    :      0.02s CPU      0.03s WALL (       9 calls)

     Called by *egterg:
     h_psi        :      0.56s CPU      0.61s WALL (     473 calls)
     s_psi        :      0.01s CPU      0.02s WALL (     473 calls)
     g_psi        :      0.00s CPU      0.00s WALL (     313 calls)
     cdiaghg      :      0.13s CPU      0.14s WALL (     441 calls)

     Called by h_psi:
     h_psi:pot    :      0.56s CPU      0.61s WALL (     473 calls)
     h_psi:calbec :      0.02s CPU      0.02s WALL (     473 calls)
     vloc_psi     :      0.52s CPU      0.56s WALL (     473 calls)
     add_vuspsi   :      0.02s CPU      0.02s WALL (     473 calls)

     General routines
     calbec       :      0.04s CPU      0.04s WALL (     697 calls)
     fft          :      0.02s CPU      0.02s WALL (     126 calls)
     ffts         :      0.00s CPU      0.00s WALL (       9 calls)
     fftw         :      0.58s CPU      0.63s WALL (   11008 calls)

     Parallel routines
     fft_scatt_xy :      0.06s CPU      0.06s WALL (   11143 calls)
     fft_scatt_yz :      0.15s CPU      0.16s WALL (   11143 calls)

     PWSCF        :     1.94s CPU         2.06s WALL


   This run was terminated on:  22:37:18  26Mar2024            

=------------------------------------------------------------------------------=
   JOB DONE.
=------------------------------------------------------------------------------=
