
     Program PWSCF v.6.3MaX starts on 26Mar2024 at 22:41: 6 

     This program is part of the open-source Quantum ESPRESSO suite
     for quantum simulation of materials; please cite
         "P. Giannozzi et al., J. Phys.:Condens. Matter 21 395502 (2009);
         "P. Giannozzi et al., J. Phys.:Condens. Matter 29 465901 (2017);
          URL http://www.quantum-espresso.org", 
     in publications or presentations arising from this work. More details at
     http://www.quantum-espresso.org/quote

     Parallel version (MPI), running on     5 processors

     MPI processes distributed on     1 nodes
     R & G space division:  proc/nbgrp/npool/nimage =       5
     Waiting for input...
     Reading input from standard input

     Current dimensions of program PWSCF are:
     Max number of different atomic species (ntypx) = 10
     Max number of k-points (npk) =  40000
     Max angular momentum in pseudopotentials (lmaxx) =  3

     Subspace diagonalization in iterative solution of the eigenvalue problem:
     a serial algorithm will be used


     Parallelization info
     --------------------
     sticks:   dense  smooth     PW     G-vecs:    dense   smooth      PW
     Min          67      67     24                  803      803     164
     Max          68      68     25                  803      803     165
     Sum         337     337    121                 4015     4015     821



     bravais-lattice index     =            2
     lattice parameter (alat)  =       6.6500  a.u.
     unit-cell volume          =      73.5199 (a.u.)^3
     number of atoms/cell      =            1
     number of atomic types    =            1
     number of electrons       =        18.00
     number of Kohn-Sham states=           13
     kinetic-energy cutoff     =      55.0000  Ry
     charge density cutoff     =     220.0000  Ry
     convergence threshold     =      1.0E-08
     mixing beta               =       0.7000
     number of iterations used =            8  plain     mixing
     Exchange-correlation      = PBE ( 1  4  3  4 0 0)

     celldm(1)=   6.650000  celldm(2)=   0.000000  celldm(3)=   0.000000
     celldm(4)=   0.000000  celldm(5)=   0.000000  celldm(6)=   0.000000

     crystal axes: (cart. coord. in units of alat)
               a(1) = (  -0.500000   0.000000   0.500000 )  
               a(2) = (   0.000000   0.500000   0.500000 )  
               a(3) = (  -0.500000   0.500000   0.000000 )  

     reciprocal axes: (cart. coord. in units 2 pi/alat)
               b(1) = ( -1.000000 -1.000000  1.000000 )  
               b(2) = (  1.000000  1.000000  1.000000 )  
               b(3) = ( -1.000000  1.000000 -1.000000 )  


     PseudoPot. # 1 for Ni read from file:
     /home/lorenzo/pseudos/Ni/Ni.pbe-spn-rrkjus_psl.1.0.0.UPF
     MD5 check sum: 8b3fc9aac6dafe35f580d41bb18c3945
     Pseudo is Ultrasoft + core correction, Zval = 18.0
     Generated using "atomic" code by A. Dal Corso v.6.3
     Using radial grid of 1195 points,  6 beta functions with: 
                l(1) =   0
                l(2) =   0
                l(3) =   1
                l(4) =   1
                l(5) =   2
                l(6) =   2
     Q(r) pseudized with 0 coefficients 


     atomic species   valence    mass     pseudopotential
        Ni            18.00    58.69340     Ni( 1.00)

     48 Sym. Ops., with inversion, found



   Cartesian axes

     site n.     atom                  positions (alat units)
         1           Ni  tau(   1) = (   0.0000000   0.0000000   0.0000000  )

     number of k points=    56  gaussian smearing, width (Ry)=  0.0100
                       cart. coord. in units 2pi/alat
        k(    1) = (   0.0000000   0.0000000   0.0000000), wk =   0.0015026
        k(    2) = (  -0.0909091   0.0909091  -0.0909091), wk =   0.0120210
        k(    3) = (  -0.1818182   0.1818182  -0.1818182), wk =   0.0120210
        k(    4) = (  -0.2727273   0.2727273  -0.2727273), wk =   0.0120210
        k(    5) = (  -0.3636364   0.3636364  -0.3636364), wk =   0.0120210
        k(    6) = (  -0.4545455   0.4545455  -0.4545455), wk =   0.0120210
        k(    7) = (   0.0000000   0.1818182   0.0000000), wk =   0.0090158
        k(    8) = (  -0.0909091   0.2727273  -0.0909091), wk =   0.0360631
        k(    9) = (  -0.1818182   0.3636364  -0.1818182), wk =   0.0360631
        k(   10) = (  -0.2727273   0.4545455  -0.2727273), wk =   0.0360631
        k(   11) = (  -0.3636364   0.5454545  -0.3636364), wk =   0.0360631
        k(   12) = (   0.5454545  -0.3636364   0.5454545), wk =   0.0360631
        k(   13) = (   0.4545455  -0.2727273   0.4545455), wk =   0.0360631
        k(   14) = (   0.3636364  -0.1818182   0.3636364), wk =   0.0360631
        k(   15) = (   0.2727273  -0.0909091   0.2727273), wk =   0.0360631
        k(   16) = (   0.1818182  -0.0000000   0.1818182), wk =   0.0180316
        k(   17) = (   0.0000000   0.3636364   0.0000000), wk =   0.0090158
        k(   18) = (  -0.0909091   0.4545455  -0.0909091), wk =   0.0360631
        k(   19) = (  -0.1818182   0.5454545  -0.1818182), wk =   0.0360631
        k(   20) = (  -0.2727273   0.6363636  -0.2727273), wk =   0.0360631
        k(   21) = (   0.6363636  -0.2727273   0.6363636), wk =   0.0360631
        k(   22) = (   0.5454545  -0.1818182   0.5454545), wk =   0.0360631
        k(   23) = (   0.4545455  -0.0909091   0.4545455), wk =   0.0360631
        k(   24) = (   0.3636364   0.0000000   0.3636364), wk =   0.0180316
        k(   25) = (   0.0000000   0.5454545   0.0000000), wk =   0.0090158
        k(   26) = (  -0.0909091   0.6363636  -0.0909091), wk =   0.0360631
        k(   27) = (  -0.1818182   0.7272727  -0.1818182), wk =   0.0360631
        k(   28) = (   0.7272727  -0.1818182   0.7272727), wk =   0.0360631
        k(   29) = (   0.6363636  -0.0909091   0.6363636), wk =   0.0360631
        k(   30) = (   0.5454545   0.0000000   0.5454545), wk =   0.0180316
        k(   31) = (   0.0000000   0.7272727   0.0000000), wk =   0.0090158
        k(   32) = (  -0.0909091   0.8181818  -0.0909091), wk =   0.0360631
        k(   33) = (   0.8181818  -0.0909091   0.8181818), wk =   0.0360631
        k(   34) = (   0.7272727   0.0000000   0.7272727), wk =   0.0180316
        k(   35) = (   0.0000000   0.9090909   0.0000000), wk =   0.0090158
        k(   36) = (   0.9090909  -0.0000000   0.9090909), wk =   0.0180316
        k(   37) = (  -0.1818182   0.3636364   0.0000000), wk =   0.0360631
        k(   38) = (  -0.2727273   0.4545455  -0.0909091), wk =   0.0721262
        k(   39) = (  -0.3636364   0.5454545  -0.1818182), wk =   0.0721262
        k(   40) = (   0.5454545  -0.3636364   0.7272727), wk =   0.0721262
        k(   41) = (  -0.1818182   0.5454545   0.0000000), wk =   0.0360631
        k(   42) = (  -0.2727273   0.6363636  -0.0909091), wk =   0.0721262
        k(   43) = (   0.6363636  -0.2727273   0.8181818), wk =   0.0721262
        k(   44) = (   0.5454545  -0.1818182   0.7272727), wk =   0.0721262
        k(   45) = (   0.4545455  -0.0909091   0.6363636), wk =   0.0721262
        k(   46) = (   0.3636364   0.0000000   0.5454545), wk =   0.0360631
        k(   47) = (  -0.1818182   0.7272727   0.0000000), wk =   0.0360631
        k(   48) = (   0.7272727  -0.1818182   0.9090909), wk =   0.0721262
        k(   49) = (   0.6363636  -0.0909091   0.8181818), wk =   0.0721262
        k(   50) = (   0.5454545   0.0000000   0.7272727), wk =   0.0360631
        k(   51) = (   0.8181818  -0.0909091   1.0000000), wk =   0.0360631
        k(   52) = (   0.7272727   0.0000000   0.9090909), wk =   0.0360631
        k(   53) = (   0.6363636  -0.2727273   1.0000000), wk =   0.0360631
        k(   54) = (   0.5454545  -0.1818182   0.9090909), wk =   0.0721262
        k(   55) = (   0.6363636  -0.0909091   1.0000000), wk =   0.0360631
        k(   56) = (   0.5454545   0.0000000   0.9090909), wk =   0.0360631

     Dense  grid:     4015 G-vectors     FFT dimensions: (  24,  24,  24)

     Estimated max dynamical RAM per process >       5.42 MB

     Estimated total dynamical RAM >      27.12 MB

     Check: negative/imaginary core charge=   -0.000009    0.000000

     Initial potential from superposition of free atoms

     starting charge   17.99975, renormalised to   18.00000
     Starting wfcs are   10 randomized atomic wfcs +    3 random wfcs

     total cpu time spent up to now is        1.1 secs

     Self-consistent Calculation

     iteration #  1     ecut=    55.00 Ry     beta= 0.70
     Davidson diagonalization with overlap
     ethr =  1.00E-02,  avg # of iterations =  3.6

     Threshold (ethr) on eigenvalues was too large:
     Diagonalizing with lowered threshold

     Davidson diagonalization with overlap
     ethr =  1.71E-05,  avg # of iterations =  2.6

     total cpu time spent up to now is        2.2 secs

     total energy              =    -339.58615650 Ry
     Harris-Foulkes estimate   =    -339.58769840 Ry
     estimated scf accuracy    <       0.00311748 Ry

     iteration #  2     ecut=    55.00 Ry     beta= 0.70
     Davidson diagonalization with overlap
     ethr =  1.73E-05,  avg # of iterations =  2.1

     total cpu time spent up to now is        2.8 secs

     total energy              =    -339.58548332 Ry
     Harris-Foulkes estimate   =    -339.58892612 Ry
     estimated scf accuracy    <       0.00917072 Ry

     iteration #  3     ecut=    55.00 Ry     beta= 0.70
     Davidson diagonalization with overlap
     ethr =  1.73E-05,  avg # of iterations =  2.1

     total cpu time spent up to now is        3.3 secs

     total energy              =    -339.58719890 Ry
     Harris-Foulkes estimate   =    -339.58726621 Ry
     estimated scf accuracy    <       0.00025272 Ry

     iteration #  4     ecut=    55.00 Ry     beta= 0.70
     Davidson diagonalization with overlap
     ethr =  1.40E-06,  avg # of iterations =  1.4

     total cpu time spent up to now is        3.7 secs

     total energy              =    -339.58723514 Ry
     Harris-Foulkes estimate   =    -339.58723487 Ry
     estimated scf accuracy    <       0.00000036 Ry

     iteration #  5     ecut=    55.00 Ry     beta= 0.70
     Davidson diagonalization with overlap
     ethr =  1.99E-09,  avg # of iterations =  3.5

     total cpu time spent up to now is        4.5 secs

     total energy              =    -339.58723596 Ry
     Harris-Foulkes estimate   =    -339.58723600 Ry
     estimated scf accuracy    <       0.00000009 Ry

     iteration #  6     ecut=    55.00 Ry     beta= 0.70
     Davidson diagonalization with overlap
     ethr =  5.22E-10,  avg # of iterations =  1.0

     total cpu time spent up to now is        4.9 secs

     End of self-consistent calculation

          k = 0.0000 0.0000 0.0000 (   531 PWs)   bands (ev):

   -85.3135 -45.5698 -45.5698 -45.5698   8.8418  15.8934  15.8934  15.8934
    17.0001  17.0001  41.4906  45.4398  45.4398

          k =-0.0909 0.0909-0.0909 (   531 PWs)   bands (ev):

   -85.3109 -45.5866 -45.5720 -45.5720   9.1647  15.8067  15.9639  15.9639
    16.9718  16.9718  40.1379  42.9482  44.7350

          k =-0.1818 0.1818-0.1818 (   516 PWs)   bands (ev):

   -85.3032 -45.6264 -45.5763 -45.5763  10.0971  15.6127  16.0908  16.0908
    16.9701  16.9701  35.7897  42.1600  43.7786

          k =-0.2727 0.2727-0.2727 (   510 PWs)   bands (ev):

   -85.2936 -45.6885 -45.5831 -45.5831  11.4610  15.5176  16.0789  16.0789
    17.1683  17.1683  31.2754  41.3863  43.0990

          k =-0.3636 0.3636-0.3636 (   510 PWs)   bands (ev):

   -85.2849 -45.7458 -45.5907 -45.5907  12.7328  15.9553  15.9553  16.0010
    17.4891  17.4891  27.2404  40.5652  42.7215

          k =-0.4545 0.4545-0.4545 (   495 PWs)   bands (ev):

   -85.2793 -45.7727 -45.5924 -45.5924  13.2553  15.8622  15.8622  17.2486
    17.7146  17.7146  24.3131  40.0637  42.5871

          k = 0.0000 0.1818 0.0000 (   532 PWs)   bands (ev):

   -85.3100 -45.5864 -45.5760 -45.5760   9.2712  15.7343  16.0160  16.0160
    16.8563  17.0562  40.6912  42.8195  42.8195

          k =-0.0909 0.2727-0.0909 (   515 PWs)   bands (ev):

   -85.3038 -45.6139 -45.5812 -45.5782  10.0014  15.5439  16.1483  16.1616
    16.7543  17.1153  37.5353  41.2024  41.3479

          k =-0.1818 0.3636-0.1818 (   511 PWs)   bands (ev):

   -85.2950 -45.6684 -45.5900 -45.5846  11.2311  15.3669  16.0947  16.2187
    16.9676  17.2822  32.9493  40.3768  40.4496

          k =-0.2727 0.4545-0.2727 (   506 PWs)   bands (ev):

   -85.2859 -45.7265 -45.5949 -45.5946  12.5967  15.4780  15.9054  16.1298
    17.5275  17.5552  28.6959  39.6484  39.9507

          k =-0.3636 0.5455-0.3636 (   507 PWs)   bands (ev):

   -85.2796 -45.7656 -45.6031 -45.5994  13.3554  15.7114  16.0154  16.2186
    17.7405  18.4121  25.2045  38.8181  40.1494

          k = 0.5455-0.3636 0.5455 (   504 PWs)   bands (ev):

   -85.2778 -45.7742 -45.6082 -45.5974  13.4843  15.6973  15.9670  16.5668
    17.7026  19.0166  23.9264  38.0893  41.0563

          k = 0.4545-0.2727 0.4545 (   511 PWs)   bands (ev):

   -85.2814 -45.7564 -45.6095 -45.5917  13.2027  15.7947  15.9966  16.0197
    17.4327  18.2672  26.2449  37.7059  41.5959

          k = 0.3636-0.1818 0.3636 (   508 PWs)   bands (ev):

   -85.2888 -45.7083 -45.6022 -45.5826  12.1764  15.4311  15.9738  16.1506
    17.0444  17.6790  30.0641  37.7924  42.7929

          k = 0.2727-0.0909 0.2727 (   513 PWs)   bands (ev):

   -85.2982 -45.6498 -45.5917 -45.5766  10.7806  15.4548  16.1034  16.2228
    16.7690  17.2751  34.4621  38.3452  44.2383

          k = 0.1818-0.0000 0.1818 (   519 PWs)   bands (ev):

   -85.3063 -45.6032 -45.5808 -45.5722   9.6937  15.6598  16.0721  16.0735
    16.8301  17.0636  38.6429  39.8027  44.3355

          k = 0.0000 0.3636 0.0000 (   516 PWs)   bands (ev):

   -85.2999 -45.6242 -45.5912 -45.5912  10.4973  15.3197  16.3708  16.3708
    16.5169  17.2082  39.4318  39.4453  39.4453

          k =-0.0909 0.4545-0.0909 (   511 PWs)   bands (ev):

   -85.2926 -45.6647 -45.5994 -45.5991  11.5043  15.0856  16.1702  16.5373
    16.8735  17.3532  35.0176  38.1254  39.0411

          k =-0.1818 0.5455-0.1818 (   505 PWs)   bands (ev):

   -85.2843 -45.7105 -45.6116 -45.6059  12.7614  14.9720  15.8710  16.5150
    17.6027  17.6832  30.6222  37.4325  37.4566

          k =-0.2727 0.6364-0.2727 (   510 PWs)   bands (ev):

   -85.2778 -45.7471 -45.6286 -45.6111  13.6746  15.1024  15.7600  16.4002
    17.7726  19.0306  26.7196  35.7535  37.5198

          k = 0.6364-0.2727 0.6364 (   513 PWs)   bands (ev):

   -85.2750 -45.7613 -45.6408 -45.6106  13.9541  15.2218  15.9192  16.3073
    17.7127  20.6111  24.1158  34.4142  38.3645

          k = 0.5455-0.1818 0.5455 (   508 PWs)   bands (ev):

   -85.2766 -45.7506 -45.6436 -45.6016  13.8874  15.3720  15.7168  16.2963
    17.4148  19.8089  25.6567  33.5985  39.9546

          k = 0.4545-0.0909 0.4545 (   510 PWs)   bands (ev):

   -85.2824 -45.7220 -45.6358 -45.5915  13.2234  15.2598  15.6725  16.3840
    16.9799  18.5745  29.2990  33.3797  42.1599

          k = 0.3636 0.0000 0.3636 (   509 PWs)   bands (ev):

   -85.2904 -45.6828 -45.6168 -45.5809  11.9430  15.2573  15.9505  16.5391
    16.5602  17.7976  33.2504  34.0552  43.8544

          k = 0.0000 0.5455 0.0000 (   504 PWs)   bands (ev):

   -85.2870 -45.6829 -45.6104 -45.6104  12.1869  14.8007  16.3670  16.9008
    16.9008  17.4113  36.4496  36.4496  36.7699

          k =-0.0909 0.6364-0.0909 (   505 PWs)   bands (ev):

   -85.2804 -45.7159 -45.6242 -45.6199  13.0455  14.6033  16.2873  17.0223
    17.6117  17.6784  32.8468  34.6236  35.4665

          k =-0.1818 0.7273-0.1818 (   500 PWs)   bands (ev):

   -85.2744 -45.7376 -45.6449 -45.6227  13.7650  14.5712  16.0739  16.9332
    17.7991  19.3247  28.8508  32.5827  35.2915

          k = 0.7273-0.1818 0.7273 (   507 PWs)   bands (ev):

   -85.2715 -45.7432 -45.6705 -45.6244  14.2168  14.6695  15.8755  16.8055
    17.7472  21.6531  25.3783  31.0028  35.9768

          k = 0.6364-0.0909 0.6364 (   511 PWs)   bands (ev):

   -85.2721 -45.7343 -45.6869 -45.6154  14.4573  14.8541  15.5868  16.7007
    17.4656  21.9045  25.2917  29.9984  37.4581

          k = 0.5455 0.0000 0.5455 (   502 PWs)   bands (ev):

   -85.2759 -45.7223 -45.6716 -45.6016  14.1836  15.2466  15.2469  16.6010
    17.1208  19.9418  28.3372  30.0590  39.5796

          k = 0.0000 0.7273 0.0000 (   500 PWs)   bands (ev):

   -85.2754 -45.7355 -45.6309 -45.6309  13.2992  14.3449  17.4755  17.4755
    17.4768  17.6005  31.9492  34.1472  34.1472

          k =-0.0909 0.8182-0.0909 (   494 PWs)   bands (ev):

   -85.2709 -45.7507 -45.6442 -45.6344  13.5585  14.2487  17.0974  17.4584
    17.8135  19.3744  29.8361  31.4273  33.6687

          k = 0.8182-0.0909 0.8182 (   496 PWs)   bands (ev):

   -85.2685 -45.7493 -45.6684 -45.6342  13.8830  14.3375  16.5820  17.3165
    17.8082  21.7748  27.6561  28.5877  34.1234

          k = 0.7273 0.0000 0.7273 (   504 PWs)   bands (ev):

   -85.2690 -45.7301 -45.7001 -45.6261  14.2925  14.5382  15.9907  17.0798
    17.6176  24.1764  24.5640  28.0843  35.4470

          k = 0.0000 0.9091 0.0000 (   496 PWs)   bands (ev):

   -85.2684 -45.7668 -45.6420 -45.6420  13.4559  14.0832  17.7153  17.8723
    17.8723  19.7623  28.0022  32.8624  32.8624

          k = 0.9091-0.0000 0.9091 (   500 PWs)   bands (ev):

   -85.2676 -45.7661 -45.6528 -45.6443  13.5661  14.1185  17.4490  17.6351
    17.8932  20.9921  27.3188  30.8343  33.0234

          k =-0.1818 0.3636 0.0000 (   511 PWs)   bands (ev):

   -85.2972 -45.6449 -45.5969 -45.5820  10.8812  15.3259  16.1413  16.3860
    16.6839  17.3086  36.1027  36.8352  42.7837

          k =-0.2727 0.4545-0.0909 (   511 PWs)   bands (ev):

   -85.2888 -45.6928 -45.6136 -45.5892  12.1616  15.1708  15.9111  16.4423
    16.9479  17.7532  31.8816  35.8056  40.7540

          k =-0.3636 0.5455-0.1818 (   513 PWs)   bands (ev):

   -85.2811 -45.7383 -45.6256 -45.5989  13.3366  15.3089  15.6911  16.3189
    17.4021  18.5323  27.7865  35.6006  38.8438

          k = 0.5455-0.3636 0.7273 (   501 PWs)   bands (ev):

   -85.2762 -45.7598 -45.6292 -45.6022  13.7915  15.3932  15.9485  16.2210
    17.6634  19.8433  24.6010  35.8794  37.4462

          k =-0.1818 0.5455 0.0000 (   511 PWs)   bands (ev):

   -85.2857 -45.6956 -45.6199 -45.6061  12.5077  14.8690  15.9698  16.9014
    17.0041  17.7385  33.8226  34.3602  37.5848

          k =-0.2727 0.6364-0.0909 (   513 PWs)   bands (ev):

   -85.2787 -45.7277 -45.6398 -45.6147  13.5469  14.7999  15.7060  16.8379
    17.4511  18.7136  29.8310  33.7171  35.4552

          k = 0.6364-0.2727 0.8182 (   502 PWs)   bands (ev):

   -85.2736 -45.7434 -45.6537 -45.6178  14.1559  14.8749  15.6230  16.6822
    17.6890  20.5017  26.1200  33.3203  34.3628

          k = 0.5455-0.1818 0.7273 (   505 PWs)   bands (ev):

   -85.2725 -45.7474 -45.6637 -45.6158  14.3543  14.9185  15.6314  16.5821
    17.6306  21.8138  24.3925  32.2100  35.1526

          k = 0.4545-0.0909 0.6364 (   504 PWs)   bands (ev):

   -85.2753 -45.7329 -45.6617 -45.6078  14.1729  15.1084  15.3501  16.6311
    17.3407  20.0348  27.2887  31.5689  36.6412

          k = 0.3636 0.0000 0.5455 (   510 PWs)   bands (ev):

   -85.2815 -45.7150 -45.6423 -45.5987  13.3329  15.0481  15.5810  16.7191
    16.9409  18.6308  30.8636  31.8971  38.5925

          k =-0.1818 0.7273 0.0000 (   503 PWs)   bands (ev):

   -85.2748 -45.7350 -45.6400 -45.6291  13.5667  14.4609  16.3277  17.4340
    17.4730  18.8193  31.9846  31.9862  32.9494

          k = 0.7273-0.1818 0.9091 (   502 PWs)   bands (ev):

   -85.2707 -45.7419 -45.6632 -45.6348  13.9850  14.4984  16.0919  17.2104
    17.7531  20.8277  28.3984  30.4138  32.5325

          k = 0.6364-0.0909 0.8182 (   503 PWs)   bands (ev):

   -85.2693 -45.7325 -45.6904 -45.6303  14.3606  14.6308  15.7637  16.9827
    17.7212  23.4104  25.1189  29.1270  33.3286

          k = 0.5455 0.0000 0.7273 (   511 PWs)   bands (ev):

   -85.2712 -45.7221 -45.7005 -45.6218  14.6529  14.7795  15.3591  16.8302
    17.4969  22.1267  26.3638  28.9042  34.7557

          k = 0.8182-0.0909 1.0000 (   496 PWs)   bands (ev):

   -85.2683 -45.7576 -45.6535 -45.6428  13.6810  14.2244  16.9604  17.5473
    17.8721  20.9566  28.1585  30.9146  31.6259

          k = 0.7273 0.0000 0.9091 (   495 PWs)   bands (ev):

   -85.2676 -45.7462 -45.6731 -45.6400  13.9596  14.3943  16.4017  17.3033
    17.8701  22.7816  27.3342  28.1659  32.0090

          k = 0.6364-0.2727 1.0000 (   503 PWs)   bands (ev):

   -85.2731 -45.7296 -45.6677 -45.6233  14.2078  14.8074  15.4242  17.0462
    17.4712  20.3189  29.0264  30.3860  33.3046

          k = 0.5455-0.1818 0.9091 (   503 PWs)   bands (ev):

   -85.2700 -45.7284 -45.6862 -45.6321  14.5177  14.8628  15.3234  16.8868
    17.7037  22.6029  25.9091  30.3881  31.7078

          k = 0.6364-0.0909 1.0000 (   499 PWs)   bands (ev):

   -85.2682 -45.7337 -45.6804 -45.6449  14.1899  14.6560  15.8072  17.1123
    17.8715  22.9794  27.9728  28.6231  29.8886

          k = 0.5455 0.0000 0.9091 (   507 PWs)   bands (ev):

   -85.2682 -45.7168 -45.7045 -45.6457  14.3871  14.9390  15.3885  16.9355
    17.8695  25.2019  25.2442  28.2730  30.2206

     the Fermi energy is    17.7488 ev

!    total energy              =    -339.58723596 Ry
     Harris-Foulkes estimate   =    -339.58723597 Ry
     estimated scf accuracy    <          7.8E-09 Ry

     The total energy is the sum of the following terms:

     one-electron contribution =    -186.63795305 Ry
     hartree contribution      =     104.75686664 Ry
     xc contribution           =     -34.32060915 Ry
     ewald contribution        =    -223.38275374 Ry
     smearing contrib. (-TS)   =      -0.00278666 Ry

     convergence has been achieved in   6 iterations

     Forces acting on atoms (cartesian axes, Ry/au):

     atom    1 type  1   force =     0.00000000    0.00000000    0.00000000

     Total force =     0.000000     Total SCF correction =     0.000000


     Computing stress (Cartesian axis) and pressure

          total   stress  (Ry/bohr**3)                   (kbar)     P= -182.92
  -0.00124347  -0.00000000  -0.00000000       -182.92     -0.00     -0.00
  -0.00000000  -0.00124347   0.00000000         -0.00   -182.92      0.00
  -0.00000000   0.00000000  -0.00124347         -0.00      0.00   -182.92


     Writing output data file Ni.save/

     init_run     :      0.30s CPU      0.32s WALL (       1 calls)
     electrons    :      3.65s CPU      3.87s WALL (       1 calls)
     forces       :      0.04s CPU      0.04s WALL (       1 calls)
     stress       :      0.12s CPU      0.13s WALL (       1 calls)

     Called by init_run:
     wfcinit      :      0.15s CPU      0.16s WALL (       1 calls)
     potinit      :      0.01s CPU      0.01s WALL (       1 calls)
     hinit0       :      0.14s CPU      0.14s WALL (       1 calls)

     Called by electrons:
     c_bands      :      3.07s CPU      3.25s WALL (       7 calls)
     sum_band     :      0.53s CPU      0.56s WALL (       7 calls)
     v_of_rho     :      0.02s CPU      0.02s WALL (       7 calls)
     newd         :      0.04s CPU      0.04s WALL (       7 calls)
     mix_rho      :      0.00s CPU      0.00s WALL (       7 calls)

     Called by c_bands:
     init_us_2    :      0.06s CPU      0.07s WALL (     952 calls)
     cegterg      :      2.96s CPU      3.14s WALL (     392 calls)

     Called by sum_band:
     sum_band:bec :      0.00s CPU      0.00s WALL (     392 calls)
     addusdens    :      0.03s CPU      0.03s WALL (       7 calls)

     Called by *egterg:
     h_psi        :      2.13s CPU      2.28s WALL (    1363 calls)
     s_psi        :      0.06s CPU      0.06s WALL (    1363 calls)
     g_psi        :      0.01s CPU      0.01s WALL (     915 calls)
     cdiaghg      :      0.49s CPU      0.51s WALL (    1251 calls)

     Called by h_psi:
     h_psi:pot    :      2.12s CPU      2.27s WALL (    1363 calls)
     h_psi:calbec :      0.10s CPU      0.11s WALL (    1363 calls)
     vloc_psi     :      1.95s CPU      2.09s WALL (    1363 calls)
     add_vuspsi   :      0.06s CPU      0.06s WALL (    1363 calls)

     General routines
     calbec       :      0.17s CPU      0.18s WALL (    2035 calls)
     fft          :      0.02s CPU      0.02s WALL (     104 calls)
     ffts         :      0.00s CPU      0.00s WALL (       7 calls)
     fftw         :      2.20s CPU      2.35s WALL (   31620 calls)

     Parallel routines
     fft_scatt_xy :      0.19s CPU      0.20s WALL (   31731 calls)
     fft_scatt_yz :      0.80s CPU      0.84s WALL (   31731 calls)

     PWSCF        :     4.90s CPU         5.22s WALL


   This run was terminated on:  22:41:12  26Mar2024            

=------------------------------------------------------------------------------=
   JOB DONE.
=------------------------------------------------------------------------------=
