
     Program PWSCF v.6.3MaX starts on 26Mar2024 at 22:29: 8 

     This program is part of the open-source Quantum ESPRESSO suite
     for quantum simulation of materials; please cite
         "P. Giannozzi et al., J. Phys.:Condens. Matter 21 395502 (2009);
         "P. Giannozzi et al., J. Phys.:Condens. Matter 29 465901 (2017);
          URL http://www.quantum-espresso.org", 
     in publications or presentations arising from this work. More details at
     http://www.quantum-espresso.org/quote

     Parallel version (MPI), running on     5 processors

     MPI processes distributed on     1 nodes
     R & G space division:  proc/nbgrp/npool/nimage =       5
     Waiting for input...
     Reading input from standard input

     Current dimensions of program PWSCF are:
     Max number of different atomic species (ntypx) = 10
     Max number of k-points (npk) =  40000
     Max angular momentum in pseudopotentials (lmaxx) =  3

     Subspace diagonalization in iterative solution of the eigenvalue problem:
     a serial algorithm will be used


     Parallelization info
     --------------------
     sticks:   dense  smooth     PW     G-vecs:    dense   smooth      PW
     Min          30      30     11                  248      248      56
     Max          31      31     11                  251      251      58
     Sum         151     151     55                 1243     1243     283



     bravais-lattice index     =            2
     lattice parameter (alat)  =       6.6500  a.u.
     unit-cell volume          =      73.5199 (a.u.)^3
     number of atoms/cell      =            1
     number of atomic types    =            1
     number of electrons       =        18.00
     number of Kohn-Sham states=           13
     kinetic-energy cutoff     =      25.0000  Ry
     charge density cutoff     =     100.0000  Ry
     convergence threshold     =      1.0E-08
     mixing beta               =       0.7000
     number of iterations used =            8  plain     mixing
     Exchange-correlation      = PBESOL ( 1  4 10  8 0 0)

     celldm(1)=   6.650000  celldm(2)=   0.000000  celldm(3)=   0.000000
     celldm(4)=   0.000000  celldm(5)=   0.000000  celldm(6)=   0.000000

     crystal axes: (cart. coord. in units of alat)
               a(1) = (  -0.500000   0.000000   0.500000 )  
               a(2) = (   0.000000   0.500000   0.500000 )  
               a(3) = (  -0.500000   0.500000   0.000000 )  

     reciprocal axes: (cart. coord. in units 2 pi/alat)
               b(1) = ( -1.000000 -1.000000  1.000000 )  
               b(2) = (  1.000000  1.000000  1.000000 )  
               b(3) = ( -1.000000  1.000000 -1.000000 )  


     PseudoPot. # 1 for Ni read from file:
     /home/lorenzo/pseudos/Ni/Ni.pbesol-spn-rrkjus_psl.1.0.0.UPF
     MD5 check sum: 6fc0a587bf949a08f2faed986b854013
     Pseudo is Ultrasoft + core correction, Zval = 18.0
     Generated using "atomic" code by A. Dal Corso v.6.3
     Using radial grid of 1195 points,  6 beta functions with: 
                l(1) =   0
                l(2) =   0
                l(3) =   1
                l(4) =   1
                l(5) =   2
                l(6) =   2
     Q(r) pseudized with 0 coefficients 


     atomic species   valence    mass     pseudopotential
        Ni            18.00    58.69340     Ni( 1.00)

     48 Sym. Ops., with inversion, found



   Cartesian axes

     site n.     atom                  positions (alat units)
         1           Ni  tau(   1) = (   0.0000000   0.0000000   0.0000000  )

     number of k points=    20  gaussian smearing, width (Ry)=  0.0100
                       cart. coord. in units 2pi/alat
        k(    1) = (   0.0000000   0.0000000   0.0000000), wk =   0.0058309
        k(    2) = (  -0.1428571   0.1428571  -0.1428571), wk =   0.0466472
        k(    3) = (  -0.2857143   0.2857143  -0.2857143), wk =   0.0466472
        k(    4) = (  -0.4285714   0.4285714  -0.4285714), wk =   0.0466472
        k(    5) = (   0.0000000   0.2857143   0.0000000), wk =   0.0349854
        k(    6) = (  -0.1428571   0.4285714  -0.1428571), wk =   0.1399417
        k(    7) = (  -0.2857143   0.5714286  -0.2857143), wk =   0.1399417
        k(    8) = (   0.5714286  -0.2857143   0.5714286), wk =   0.1399417
        k(    9) = (   0.4285714  -0.1428571   0.4285714), wk =   0.1399417
        k(   10) = (   0.2857143  -0.0000000   0.2857143), wk =   0.0699708
        k(   11) = (   0.0000000   0.5714286   0.0000000), wk =   0.0349854
        k(   12) = (  -0.1428571   0.7142857  -0.1428571), wk =   0.1399417
        k(   13) = (   0.7142857  -0.1428571   0.7142857), wk =   0.1399417
        k(   14) = (   0.5714286   0.0000000   0.5714286), wk =   0.0699708
        k(   15) = (   0.0000000   0.8571429   0.0000000), wk =   0.0349854
        k(   16) = (   0.8571429  -0.0000000   0.8571429), wk =   0.0699708
        k(   17) = (  -0.2857143   0.5714286   0.0000000), wk =   0.1399417
        k(   18) = (   0.5714286  -0.2857143   0.8571429), wk =   0.2798834
        k(   19) = (   0.7142857  -0.1428571   1.0000000), wk =   0.1399417
        k(   20) = (   0.5714286   0.0000000   0.8571429), wk =   0.1399417

     Dense  grid:     1243 G-vectors     FFT dimensions: (  15,  15,  15)

     Estimated max dynamical RAM per process >       1.91 MB

     Estimated total dynamical RAM >       9.54 MB

     Check: negative/imaginary core charge=   -0.000245    0.000000

     Initial potential from superposition of free atoms
     Check: negative starting charge=   -0.002896

     starting charge   17.99977, renormalised to   18.00000

     negative rho (up, down):  2.896E-03 0.000E+00
     Starting wfcs are   10 randomized atomic wfcs +    3 random wfcs

     total cpu time spent up to now is        0.9 secs

     Self-consistent Calculation

     iteration #  1     ecut=    25.00 Ry     beta= 0.70
     Davidson diagonalization with overlap
     ethr =  1.00E-02,  avg # of iterations =  3.8

     total cpu time spent up to now is        1.0 secs

     total energy              =    -324.36797635 Ry
     Harris-Foulkes estimate   =    -329.87987098 Ry
     estimated scf accuracy    <       6.92120474 Ry

     iteration #  2     ecut=    25.00 Ry     beta= 0.70
     Davidson diagonalization with overlap
     ethr =  1.00E-02,  avg # of iterations =  2.0

     total cpu time spent up to now is        1.1 secs

     total energy              =    -326.49841864 Ry
     Harris-Foulkes estimate   =    -330.88046014 Ry
     estimated scf accuracy    <       9.29364255 Ry

     iteration #  3     ecut=    25.00 Ry     beta= 0.70
     Davidson diagonalization with overlap
     ethr =  1.00E-02,  avg # of iterations =  2.0

     negative rho (up, down):  3.459E-04 0.000E+00

     total cpu time spent up to now is        1.2 secs

     total energy              =    -327.66209510 Ry
     Harris-Foulkes estimate   =    -327.72398071 Ry
     estimated scf accuracy    <       0.10256888 Ry

     iteration #  4     ecut=    25.00 Ry     beta= 0.70
     Davidson diagonalization with overlap
     ethr =  5.70E-04,  avg # of iterations =  2.0

     total cpu time spent up to now is        1.3 secs

     total energy              =    -327.67911202 Ry
     Harris-Foulkes estimate   =    -327.71244089 Ry
     estimated scf accuracy    <       0.11260773 Ry

     iteration #  5     ecut=    25.00 Ry     beta= 0.70
     Davidson diagonalization with overlap
     ethr =  5.70E-04,  avg # of iterations =  1.1

     total cpu time spent up to now is        1.4 secs

     total energy              =    -327.68804860 Ry
     Harris-Foulkes estimate   =    -327.68934901 Ry
     estimated scf accuracy    <       0.00487667 Ry

     iteration #  6     ecut=    25.00 Ry     beta= 0.70
     Davidson diagonalization with overlap
     ethr =  2.71E-05,  avg # of iterations =  1.0

     total cpu time spent up to now is        1.4 secs

     total energy              =    -327.68804066 Ry
     Harris-Foulkes estimate   =    -327.68830314 Ry
     estimated scf accuracy    <       0.00083260 Ry

     iteration #  7     ecut=    25.00 Ry     beta= 0.70
     Davidson diagonalization with overlap
     ethr =  4.63E-06,  avg # of iterations =  1.8

     total cpu time spent up to now is        1.5 secs

     total energy              =    -327.68810645 Ry
     Harris-Foulkes estimate   =    -327.68811589 Ry
     estimated scf accuracy    <       0.00005560 Ry

     iteration #  8     ecut=    25.00 Ry     beta= 0.70
     Davidson diagonalization with overlap
     ethr =  3.09E-07,  avg # of iterations =  1.0

     total cpu time spent up to now is        1.5 secs

     total energy              =    -327.68810098 Ry
     Harris-Foulkes estimate   =    -327.68810783 Ry
     estimated scf accuracy    <       0.00002138 Ry

     iteration #  9     ecut=    25.00 Ry     beta= 0.70
     Davidson diagonalization with overlap
     ethr =  1.19E-07,  avg # of iterations =  1.1

     total cpu time spent up to now is        1.6 secs

     total energy              =    -327.68810264 Ry
     Harris-Foulkes estimate   =    -327.68810303 Ry
     estimated scf accuracy    <       0.00000118 Ry

     iteration # 10     ecut=    25.00 Ry     beta= 0.70
     Davidson diagonalization with overlap
     ethr =  6.57E-09,  avg # of iterations =  1.1

     total cpu time spent up to now is        1.7 secs

     total energy              =    -327.68810274 Ry
     Harris-Foulkes estimate   =    -327.68810277 Ry
     estimated scf accuracy    <       0.00000005 Ry

     iteration # 11     ecut=    25.00 Ry     beta= 0.70
     Davidson diagonalization with overlap
     ethr =  2.95E-10,  avg # of iterations =  1.8

     total cpu time spent up to now is        1.8 secs

     End of self-consistent calculation

          k = 0.0000 0.0000 0.0000 (   169 PWs)   bands (ev):

   -98.2535 -48.2641 -48.2641 -48.2641   9.9093  13.3047  13.3047  14.6222
    14.6222  14.6222  42.5955  46.0676  46.4261

          k =-0.1429 0.1429-0.1429 (   159 PWs)   bands (ev):

   -97.9985 -46.4868 -46.4868 -44.8540  10.7520  15.3540  15.3540  16.2713
    17.6903  17.6903  38.0245  43.4767  44.1185

          k =-0.2857 0.2857-0.2857 (   153 PWs)   bands (ev):

   -97.8589 -45.1143 -45.1143 -43.3293  12.9602  16.8740  16.8740  18.2243
    18.9979  18.9979  32.0150  42.2764  43.2202

          k =-0.4286 0.4286-0.4286 (   162 PWs)   bands (ev):

   -98.0031 -47.7016 -45.6960 -45.6960  12.8807  16.5496  16.5496  16.8705
    16.8705  17.2909  24.0364  41.1885  43.1687

          k = 0.0000 0.2857 0.0000 (   161 PWs)   bands (ev):

   -98.0416 -47.1632 -47.1632 -44.8865  10.9210  13.5848  15.7977  16.5423
    17.0228  17.0228  39.8910  41.1157  41.1157

          k =-0.1429 0.4286-0.1429 (   156 PWs)   bands (ev):

   -97.9068 -45.8111 -45.0707 -44.4823  12.6663  16.3482  16.4858  17.5666
    17.8855  18.3863  34.1337  39.4355  39.6971

          k =-0.2857 0.5714-0.2857 (   154 PWs)   bands (ev):

   -97.8317 -45.2934 -44.5189 -43.8092  14.7530  16.0194  17.6929  17.9362
    18.6526  20.1041  28.7183  37.8939  39.4497

          k = 0.5714-0.2857 0.5714 (   158 PWs)   bands (ev):

   -97.8960 -46.7808 -44.7661 -44.6359  13.3961  16.7062  17.1650  17.4756
    18.7485  19.9780  23.9781  36.4597  40.4706

          k = 0.4286-0.1429 0.4286 (   152 PWs)   bands (ev):

   -97.7997 -44.9677 -44.8589 -42.5756  14.4174  16.4355  17.5461  18.0458
    18.9542  21.0081  30.7566  35.9403  43.3899

          k = 0.2857-0.0000 0.2857 (   158 PWs)   bands (ev):

   -97.9712 -46.1264 -45.9091 -45.0011  11.9292  15.6484  16.0533  16.7334
    16.8462  18.4900  35.8762  37.0571  46.3045

          k = 0.0000 0.5714 0.0000 (   153 PWs)   bands (ev):

   -97.8056 -44.7129 -44.7129 -43.3744  13.8451  16.3191  18.3729  18.8880
    18.9113  18.9113  36.7997  36.7997  36.8490

          k =-0.1429 0.7143-0.1429 (   160 PWs)   bands (ev):

   -97.9179 -46.2414 -45.8224 -45.1203  13.6437  15.2290  16.1401  17.8323
    17.9755  18.9699  31.5146  32.9533  35.6403

          k = 0.7143-0.1429 0.7143 (   154 PWs)   bands (ev):

   -97.7783 -45.1147 -44.0629 -43.6612  15.2844  16.5619  17.9518  18.4382
    19.1313  23.1954  26.1485  31.4922  37.3448

          k = 0.5714 0.0000 0.5714 (   158 PWs)   bands (ev):

   -97.8808 -45.8987 -45.4149 -44.5579  13.2966  15.9884  17.3815  17.8086
    18.1646  19.5714  30.0908  30.3691  39.9765

          k = 0.0000 0.8571 0.0000 (   154 PWs)   bands (ev):

   -97.7596 -45.6385 -43.5251 -43.5251  14.0507  17.7076  19.4661  19.5359
    19.7480  19.7480  28.6518  33.9962  33.9962

          k = 0.8571-0.0000 0.8571 (   154 PWs)   bands (ev):

   -97.7489 -44.9922 -44.1109 -43.4562  16.1608  16.8149  17.1398  18.8369
    20.4731  22.2792  28.5207  30.1810  34.2792

          k =-0.2857 0.5714 0.0000 (   156 PWs)   bands (ev):

   -97.8665 -45.7937 -45.1798 -43.8826  14.0821  16.3082  16.7911  17.4529
    18.0901  19.4170  32.7334  33.4726  38.0868

          k = 0.5714-0.2857 0.8571 (   152 PWs)   bands (ev):

   -97.7464 -44.9278 -44.0362 -42.7115  15.1548  17.4702  18.0313  18.5216
    19.9089  21.2877  28.1066  33.5296  35.9605

          k = 0.7143-0.1429 1.0000 (   158 PWs)   bands (ev):

   -97.8591 -46.0292 -44.9072 -44.6842  15.0361  16.0739  16.3120  17.6888
    18.3582  21.6923  29.9822  30.2693  32.0943

          k = 0.5714 0.0000 0.8571 (   155 PWs)   bands (ev):

   -97.7984 -44.7739 -44.5465 -44.2042  16.1645  16.5076  16.5681  17.9671
    18.3770  26.0133  26.6553  29.3420  32.8736

     the Fermi energy is    19.1119 ev

!    total energy              =    -327.68810275 Ry
     Harris-Foulkes estimate   =    -327.68810275 Ry
     estimated scf accuracy    <          4.4E-10 Ry

     The total energy is the sum of the following terms:

     one-electron contribution =    -163.56777394 Ry
     hartree contribution      =      91.90742325 Ry
     xc contribution           =     -32.64420961 Ry
     ewald contribution        =    -223.38275373 Ry
     smearing contrib. (-TS)   =      -0.00078873 Ry

     convergence has been achieved in  11 iterations

     Forces acting on atoms (cartesian axes, Ry/au):

     atom    1 type  1   force =     0.00000000    0.00000000    0.00000000

     Total force =     0.000000     Total SCF correction =     0.000000


     Computing stress (Cartesian axis) and pressure

          total   stress  (Ry/bohr**3)                   (kbar)     P=********
  -0.52968027   0.00000000   0.00000000     -77918.64      0.00      0.00
   0.00000000  -0.52968027   0.00000000          0.00 -77918.64      0.00
   0.00000000   0.00000000  -0.52968027          0.00      0.00 -77918.64


     Writing output data file Ni.save/

     init_run     :      0.15s CPU      0.15s WALL (       1 calls)
     electrons    :      0.76s CPU      0.87s WALL (       1 calls)
     forces       :      0.02s CPU      0.02s WALL (       1 calls)
     stress       :      0.05s CPU      0.05s WALL (       1 calls)

     Called by init_run:
     wfcinit      :      0.03s CPU      0.03s WALL (       1 calls)
     potinit      :      0.00s CPU      0.00s WALL (       1 calls)
     hinit0       :      0.11s CPU      0.11s WALL (       1 calls)

     Called by electrons:
     c_bands      :      0.63s CPU      0.72s WALL (      11 calls)
     sum_band     :      0.10s CPU      0.12s WALL (      11 calls)
     v_of_rho     :      0.01s CPU      0.01s WALL (      12 calls)
     newd         :      0.01s CPU      0.01s WALL (      12 calls)
     mix_rho      :      0.00s CPU      0.00s WALL (      11 calls)

     Called by c_bands:
     init_us_2    :      0.01s CPU      0.01s WALL (     500 calls)
     cegterg      :      0.61s CPU      0.69s WALL (     220 calls)

     Called by sum_band:
     sum_band:bec :      0.00s CPU      0.00s WALL (     220 calls)
     addusdens    :      0.01s CPU      0.01s WALL (      11 calls)

     Called by *egterg:
     h_psi        :      0.37s CPU      0.42s WALL (     614 calls)
     s_psi        :      0.01s CPU      0.01s WALL (     614 calls)
     g_psi        :      0.00s CPU      0.00s WALL (     374 calls)
     cdiaghg      :      0.17s CPU      0.19s WALL (     594 calls)

     Called by h_psi:
     h_psi:pot    :      0.37s CPU      0.42s WALL (     614 calls)
     h_psi:calbec :      0.02s CPU      0.02s WALL (     614 calls)
     vloc_psi     :      0.33s CPU      0.38s WALL (     614 calls)
     add_vuspsi   :      0.01s CPU      0.01s WALL (     614 calls)

     General routines
     calbec       :      0.03s CPU      0.03s WALL (     934 calls)
     fft          :      0.01s CPU      0.01s WALL (     158 calls)
     ffts         :      0.00s CPU      0.00s WALL (      11 calls)
     fftw         :      0.37s CPU      0.42s WALL (   16374 calls)

     Parallel routines
     fft_scatt_xy :      0.04s CPU      0.05s WALL (   16543 calls)
     fft_scatt_yz :      0.16s CPU      0.18s WALL (   16543 calls)

     PWSCF        :     1.74s CPU         1.94s WALL


   This run was terminated on:  22:29:10  26Mar2024            

=------------------------------------------------------------------------------=
   JOB DONE.
=------------------------------------------------------------------------------=
