
     Program PWSCF v.6.3MaX starts on 26Mar2024 at 22:57: 4 

     This program is part of the open-source Quantum ESPRESSO suite
     for quantum simulation of materials; please cite
         "P. Giannozzi et al., J. Phys.:Condens. Matter 21 395502 (2009);
         "P. Giannozzi et al., J. Phys.:Condens. Matter 29 465901 (2017);
          URL http://www.quantum-espresso.org", 
     in publications or presentations arising from this work. More details at
     http://www.quantum-espresso.org/quote

     Parallel version (MPI), running on     5 processors

     MPI processes distributed on     1 nodes
     R & G space division:  proc/nbgrp/npool/nimage =       5
     Waiting for input...
     Reading input from standard input

     Current dimensions of program PWSCF are:
     Max number of different atomic species (ntypx) = 10
     Max number of k-points (npk) =  40000
     Max angular momentum in pseudopotentials (lmaxx) =  3
               file Ni.pbesol-spn-kjpaw_psl.1.0.0.UPF: wavefunction(s)  3P 3D renormalized

     Subspace diagonalization in iterative solution of the eigenvalue problem:
     a serial algorithm will be used


     Parallelization info
     --------------------
     sticks:   dense  smooth     PW     G-vecs:    dense   smooth      PW
     Min         102     102     32                 1559     1559     280
     Max         103     103     33                 1562     1562     283
     Sum         511     511    163                 7799     7799    1411



     bravais-lattice index     =            2
     lattice parameter (alat)  =       6.6500  a.u.
     unit-cell volume          =      73.5199 (a.u.)^3
     number of atoms/cell      =            1
     number of atomic types    =            1
     number of electrons       =        18.00
     number of Kohn-Sham states=           13
     kinetic-energy cutoff     =      85.0000  Ry
     charge density cutoff     =     340.0000  Ry
     convergence threshold     =      1.0E-08
     mixing beta               =       0.7000
     number of iterations used =            8  plain     mixing
     Exchange-correlation      = SLA PW PSX PSC ( 1  4 10  8 0 0)

     celldm(1)=   6.650000  celldm(2)=   0.000000  celldm(3)=   0.000000
     celldm(4)=   0.000000  celldm(5)=   0.000000  celldm(6)=   0.000000

     crystal axes: (cart. coord. in units of alat)
               a(1) = (  -0.500000   0.000000   0.500000 )  
               a(2) = (   0.000000   0.500000   0.500000 )  
               a(3) = (  -0.500000   0.500000   0.000000 )  

     reciprocal axes: (cart. coord. in units 2 pi/alat)
               b(1) = ( -1.000000 -1.000000  1.000000 )  
               b(2) = (  1.000000  1.000000  1.000000 )  
               b(3) = ( -1.000000  1.000000 -1.000000 )  


     PseudoPot. # 1 for Ni read from file:
     /home/lorenzo/pseudos/Ni/Ni.pbesol-spn-kjpaw_psl.1.0.0.UPF
     MD5 check sum: ef06ee83099c2673f0516457bd731f51
     Pseudo is Projector augmented-wave + core cor, Zval = 18.0
     Generated using "atomic" code by A. Dal Corso v.6.3
     Shape of augmentation charge: PSQ
     Using radial grid of 1195 points,  6 beta functions with: 
                l(1) =   0
                l(2) =   0
                l(3) =   1
                l(4) =   1
                l(5) =   2
                l(6) =   2
     Q(r) pseudized with 0 coefficients 


     atomic species   valence    mass     pseudopotential
        Ni            18.00    58.69340     Ni( 1.00)

     48 Sym. Ops., with inversion, found



   Cartesian axes

     site n.     atom                  positions (alat units)
         1           Ni  tau(   1) = (   0.0000000   0.0000000   0.0000000  )

     number of k points=    47  gaussian smearing, width (Ry)=  0.0100
                       cart. coord. in units 2pi/alat
        k(    1) = (   0.0000000   0.0000000   0.0000000), wk =   0.0020000
        k(    2) = (  -0.1000000   0.1000000  -0.1000000), wk =   0.0160000
        k(    3) = (  -0.2000000   0.2000000  -0.2000000), wk =   0.0160000
        k(    4) = (  -0.3000000   0.3000000  -0.3000000), wk =   0.0160000
        k(    5) = (  -0.4000000   0.4000000  -0.4000000), wk =   0.0160000
        k(    6) = (   0.5000000  -0.5000000   0.5000000), wk =   0.0080000
        k(    7) = (   0.0000000   0.2000000   0.0000000), wk =   0.0120000
        k(    8) = (  -0.1000000   0.3000000  -0.1000000), wk =   0.0480000
        k(    9) = (  -0.2000000   0.4000000  -0.2000000), wk =   0.0480000
        k(   10) = (  -0.3000000   0.5000000  -0.3000000), wk =   0.0480000
        k(   11) = (   0.6000000  -0.4000000   0.6000000), wk =   0.0480000
        k(   12) = (   0.5000000  -0.3000000   0.5000000), wk =   0.0480000
        k(   13) = (   0.4000000  -0.2000000   0.4000000), wk =   0.0480000
        k(   14) = (   0.3000000  -0.1000000   0.3000000), wk =   0.0480000
        k(   15) = (   0.2000000   0.0000000   0.2000000), wk =   0.0240000
        k(   16) = (   0.0000000   0.4000000   0.0000000), wk =   0.0120000
        k(   17) = (  -0.1000000   0.5000000  -0.1000000), wk =   0.0480000
        k(   18) = (  -0.2000000   0.6000000  -0.2000000), wk =   0.0480000
        k(   19) = (   0.7000000  -0.3000000   0.7000000), wk =   0.0480000
        k(   20) = (   0.6000000  -0.2000000   0.6000000), wk =   0.0480000
        k(   21) = (   0.5000000  -0.1000000   0.5000000), wk =   0.0480000
        k(   22) = (   0.4000000   0.0000000   0.4000000), wk =   0.0240000
        k(   23) = (   0.0000000   0.6000000   0.0000000), wk =   0.0120000
        k(   24) = (  -0.1000000   0.7000000  -0.1000000), wk =   0.0480000
        k(   25) = (   0.8000000  -0.2000000   0.8000000), wk =   0.0480000
        k(   26) = (   0.7000000  -0.1000000   0.7000000), wk =   0.0480000
        k(   27) = (   0.6000000  -0.0000000   0.6000000), wk =   0.0240000
        k(   28) = (   0.0000000   0.8000000   0.0000000), wk =   0.0120000
        k(   29) = (   0.9000000  -0.1000000   0.9000000), wk =   0.0480000
        k(   30) = (   0.8000000   0.0000000   0.8000000), wk =   0.0240000
        k(   31) = (   0.0000000  -1.0000000   0.0000000), wk =   0.0060000
        k(   32) = (  -0.2000000   0.4000000   0.0000000), wk =   0.0480000
        k(   33) = (  -0.3000000   0.5000000  -0.1000000), wk =   0.0960000
        k(   34) = (   0.6000000  -0.4000000   0.8000000), wk =   0.0960000
        k(   35) = (   0.5000000  -0.3000000   0.7000000), wk =   0.0480000
        k(   36) = (  -0.2000000   0.6000000   0.0000000), wk =   0.0480000
        k(   37) = (   0.7000000  -0.3000000   0.9000000), wk =   0.0960000
        k(   38) = (   0.6000000  -0.2000000   0.8000000), wk =   0.0960000
        k(   39) = (   0.5000000  -0.1000000   0.7000000), wk =   0.0960000
        k(   40) = (   0.4000000   0.0000000   0.6000000), wk =   0.0480000
        k(   41) = (   0.8000000  -0.2000000   1.0000000), wk =   0.0480000
        k(   42) = (   0.7000000  -0.1000000   0.9000000), wk =   0.0960000
        k(   43) = (   0.6000000   0.0000000   0.8000000), wk =   0.0480000
        k(   44) = (  -0.2000000  -1.0000000   0.0000000), wk =   0.0240000
        k(   45) = (   0.6000000  -0.2000000   1.0000000), wk =   0.0480000
        k(   46) = (   0.5000000  -0.1000000   0.9000000), wk =   0.0480000
        k(   47) = (  -0.4000000  -1.0000000   0.0000000), wk =   0.0240000

     Dense  grid:     7799 G-vectors     FFT dimensions: (  27,  27,  27)

     Estimated max dynamical RAM per process >       9.20 MB

     Estimated total dynamical RAM >      46.00 MB

     Check: negative/imaginary core charge=   -0.000003    0.000000

     Initial potential from superposition of free atoms

     starting charge   17.99977, renormalised to   18.00000
     Starting wfcs are   10 randomized atomic wfcs +    3 random wfcs
     Checking if some PAW data can be deallocated... 

     total cpu time spent up to now is        1.2 secs

     Self-consistent Calculation

     iteration #  1     ecut=    85.00 Ry     beta= 0.70
     Davidson diagonalization with overlap
     ethr =  1.00E-02,  avg # of iterations =  3.6

     Threshold (ethr) on eigenvalues was too large:
     Diagonalizing with lowered threshold

     Davidson diagonalization with overlap
     ethr =  1.28E-05,  avg # of iterations =  2.9

     total cpu time spent up to now is        2.6 secs

     total energy              =    -426.57466683 Ry
     Harris-Foulkes estimate   =    -426.57587374 Ry
     estimated scf accuracy    <       0.00225106 Ry

     iteration #  2     ecut=    85.00 Ry     beta= 0.70
     Davidson diagonalization with overlap
     ethr =  1.25E-05,  avg # of iterations =  2.1

     total cpu time spent up to now is        3.3 secs

     total energy              =    -426.57415397 Ry
     Harris-Foulkes estimate   =    -426.57626388 Ry
     estimated scf accuracy    <       0.00524316 Ry

     iteration #  3     ecut=    85.00 Ry     beta= 0.70
     Davidson diagonalization with overlap
     ethr =  1.25E-05,  avg # of iterations =  2.1

     total cpu time spent up to now is        4.1 secs

     total energy              =    -426.57523955 Ry
     Harris-Foulkes estimate   =    -426.57535044 Ry
     estimated scf accuracy    <       0.00034005 Ry

     iteration #  4     ecut=    85.00 Ry     beta= 0.70
     Davidson diagonalization with overlap
     ethr =  1.89E-06,  avg # of iterations =  1.4

     total cpu time spent up to now is        4.8 secs

     total energy              =    -426.57528918 Ry
     Harris-Foulkes estimate   =    -426.57528901 Ry
     estimated scf accuracy    <       0.00000025 Ry

     iteration #  5     ecut=    85.00 Ry     beta= 0.70
     Davidson diagonalization with overlap
     ethr =  1.39E-09,  avg # of iterations =  3.7

     total cpu time spent up to now is        5.8 secs

     total energy              =    -426.57529059 Ry
     Harris-Foulkes estimate   =    -426.57529065 Ry
     estimated scf accuracy    <       0.00000018 Ry

     iteration #  6     ecut=    85.00 Ry     beta= 0.70
     Davidson diagonalization with overlap
     ethr =  9.81E-10,  avg # of iterations =  1.0

     total cpu time spent up to now is        6.4 secs

     total energy              =    -426.57529059 Ry
     Harris-Foulkes estimate   =    -426.57529059 Ry
     estimated scf accuracy    <       0.00000003 Ry

     iteration #  7     ecut=    85.00 Ry     beta= 0.70
     Davidson diagonalization with overlap
     ethr =  1.42E-10,  avg # of iterations =  1.5

     total cpu time spent up to now is        7.0 secs

     End of self-consistent calculation

          k = 0.0000 0.0000 0.0000 (   941 PWs)   bands (ev):

   -85.1569 -45.5605 -45.5605 -45.5605   8.6038  15.7252  15.7252  15.7252
    16.8507  16.8507  41.2798  45.1990  45.1990

          k =-0.1000 0.1000-0.1000 (   950 PWs)   bands (ev):

   -85.1536 -45.5824 -45.5638 -45.5638   8.9933  15.6203  15.8092  15.8092
    16.8175  16.8175  39.5581  42.5849  44.3953

          k =-0.2000 0.2000-0.2000 (   956 PWs)   bands (ev):

   -85.1450 -45.6391 -45.5718 -45.5718  10.1022  15.4006  15.9373  15.9373
    16.8377  16.8377  34.6413  41.8082  43.3821

          k =-0.3000 0.3000-0.3000 (   968 PWs)   bands (ev):

   -85.1343 -45.7086 -45.5821 -45.5821  11.6549  15.3870  15.8817  15.8817
    17.1077  17.1077  29.7715  40.9110  42.7172

          k =-0.4000 0.4000-0.4000 (   966 PWs)   bands (ev):

   -85.1257 -45.7639 -45.5902 -45.5902  12.8208  15.7453  15.7453  16.2597
    17.4460  17.4460  25.6416  40.0979  42.3986

          k = 0.5000-0.5000 0.5000 (   978 PWs)   bands (ev):

   -85.1224 -45.7858 -45.5935 -45.5935  13.0985  15.6845  15.6845  17.3280
    17.5908  17.5908  23.5844  39.7837  42.3240

          k = 0.0000 0.2000 0.0000 (   953 PWs)   bands (ev):

   -85.1525 -45.5817 -45.5688 -45.5688   9.1220  15.5326  15.8736  15.8736
    16.6767  16.9186  40.3541  42.2410  42.2410

          k =-0.1000 0.3000-0.1000 (   963 PWs)   bands (ev):

   -85.1457 -45.6242 -45.5787 -45.5747   9.9899  15.3095  16.0089  16.0365
    16.5821  16.9962  36.5889  40.6551  40.7159

          k =-0.2000 0.4000-0.2000 (   964 PWs)   bands (ev):

   -85.1357 -45.6868 -45.5893 -45.5848  11.4195  15.1426  15.8724  16.0654
    16.9418  17.2166  31.5834  39.6980  39.8709

          k =-0.3000 0.5000-0.3000 (   972 PWs)   bands (ev):

   -85.1264 -45.7452 -45.5969 -45.5968  12.7971  15.4039  15.6895  15.9476
    17.5013  17.7042  27.1010  38.9095  39.4413

          k = 0.6000-0.4000 0.6000 (   972 PWs)   bands (ev):

   -85.1213 -45.7762 -45.6064 -45.5984  13.3019  15.4900  15.8435  16.2184
    17.6008  18.8286  23.9414  37.9007  39.9983

          k = 0.5000-0.3000 0.5000 (   971 PWs)   bands (ev):

   -85.1224 -45.7692 -45.6093 -45.5933  13.2281  15.5458  15.8451  16.0703
    17.4060  18.5731  24.7392  37.1892  40.9939

          k = 0.4000-0.2000 0.4000 (   967 PWs)   bands (ev):

   -85.1293 -45.7271 -45.6042 -45.5834  12.4219  15.3224  15.7317  15.9627
    16.9976  17.7552  28.5208  37.0455  42.1245

          k = 0.3000-0.1000 0.3000 (   963 PWs)   bands (ev):

   -85.1392 -45.6654 -45.5928 -45.5731  10.9067  15.2273  15.9118  16.0860
    16.6215  17.2352  33.2230  37.4985  43.8504

          k = 0.2000 0.0000 0.2000 (   961 PWs)   bands (ev):

   -85.1485 -45.6107 -45.5773 -45.5654   9.6241  15.4448  15.9245  15.9408
    16.6478  16.9404  37.8980  38.9311  44.2561

          k = 0.0000 0.4000 0.0000 (   974 PWs)   bands (ev):

   -85.1410 -45.6363 -45.5904 -45.5904  10.5762  15.0448  16.2903  16.2978
    16.2978  17.0985  38.5705  38.5705  39.0066

          k =-0.1000 0.5000-0.1000 (   978 PWs)   bands (ev):

   -85.1329 -45.6805 -45.6026 -45.6025  11.7289  14.7907  15.9432  16.4692
    16.8975  17.2792  33.8791  37.2136  37.9607

          k =-0.2000 0.6000-0.2000 (   986 PWs)   bands (ev):

   -85.1243 -45.7277 -45.6193 -45.6107  13.0330  14.7161  15.6414  16.4097
    17.5447  18.0089  29.1757  35.9166  36.6919

          k = 0.7000-0.3000 0.7000 (   980 PWs)   bands (ev):

   -85.1185 -45.7558 -45.6374 -45.6115  13.7496  14.8683  15.6196  16.2826
    17.6271  19.8592  25.2056  34.1088  37.1091

          k = 0.6000-0.2000 0.6000 (   977 PWs)   bands (ev):

   -85.1178 -45.7563 -45.6489 -45.6051  13.8817  15.0150  15.6161  16.2119
    17.4058  20.6043  24.2891  32.8664  38.4780

          k = 0.5000-0.1000 0.5000 (   974 PWs)   bands (ev):

   -85.1224 -45.7322 -45.6461 -45.5935  13.4938  15.1302  15.3414  16.2498
    16.9615  18.9800  27.8000  32.3343  40.6699

          k = 0.4000 0.0000 0.4000 (   969 PWs)   bands (ev):

   -85.1306 -45.6977 -45.6246 -45.5812  12.2355  15.0306  15.6770  16.3778
    16.4885  17.9175  32.0028  32.8536  42.9117

          k = 0.0000 0.6000 0.0000 (   982 PWs)   bands (ev):

   -85.1269 -45.7023 -45.6164 -45.6164  12.4188  14.4724  16.3268  16.9126
    16.9126  17.3250  35.1200  35.4359  35.4359

          k =-0.1000 0.7000-0.1000 (   982 PWs)   bands (ev):

   -85.1201 -45.7324 -45.6328 -45.6260  13.1732  14.2905  16.3020  17.0032
    17.5531  18.0405  31.6603  32.7305  34.5461

          k = 0.8000-0.2000 0.8000 (   983 PWs)   bands (ev):

   -85.1150 -45.7467 -45.6589 -45.6276  13.7553  14.3147  16.0060  16.8800
    17.6633  20.3023  27.4884  30.6223  34.6968

          k = 0.7000-0.1000 0.7000 (   971 PWs)   bands (ev):

   -85.1136 -45.7355 -45.6879 -45.6203  14.2033  14.4579  15.6380  16.7288
    17.4646  22.9271  24.2965  29.2113  35.8946

          k = 0.6000-0.0000 0.6000 (   975 PWs)   bands (ev):

   -85.1165 -45.7233 -45.6902 -45.6075  14.2788  14.8095  15.2039  16.5506
    17.1253  20.8732  26.7988  29.0134  37.9676

          k = 0.0000 0.8000 0.0000 (   990 PWs)   bands (ev):

   -85.1155 -45.7542 -45.6377 -45.6377  13.2287  14.0311  17.5106  17.5106
    17.5117  18.1615  29.9329  33.2538  33.2538

          k = 0.9000-0.1000 0.9000 (   973 PWs)   bands (ev):

   -85.1122 -45.7629 -45.6517 -45.6402  13.4111  13.9920  17.0923  17.4077
    17.7103  20.2653  28.0093  30.4801  33.0492

          k = 0.8000 0.0000 0.8000 (   973 PWs)   bands (ev):

   -85.1115 -45.7491 -45.6782 -45.6337  13.7732  14.1745  16.3393  17.1799
    17.6010  22.5483  26.5966  27.6218  33.9912

          k = 0.0000-1.0000 0.0000 (   982 PWs)   bands (ev):

   -85.1111 -45.7732 -45.6456 -45.6456  13.2696  13.8675  17.5838  17.7718
    17.7718  20.0711  27.0463  32.4529  32.4529

          k =-0.2000 0.4000 0.0000 (   960 PWs)   bands (ev):

   -85.1381 -45.6600 -45.5996 -45.5803  11.0257  15.0654  15.9253  16.3146
    16.5440  17.2627  35.0974  35.7683  41.7054

          k =-0.3000 0.5000-0.1000 (   970 PWs)   bands (ev):

   -85.1289 -45.7089 -45.6188 -45.5903  12.4573  14.9383  15.6278  16.3233
    16.9199  17.8708  30.4963  34.8302  39.3728

          k = 0.6000-0.4000 0.8000 (   977 PWs)   bands (ev):

   -85.1214 -45.7498 -45.6303 -45.6009  13.5007  15.1300  15.4904  16.1842
    17.3753  19.0208  26.2283  34.8317  37.3628

          k = 0.5000-0.3000 0.7000 (   968 PWs)   bands (ev):

   -85.1185 -45.7651 -45.6334 -45.6055  13.7308  15.1169  15.7621  16.1084
    17.5296  20.3356  23.7889  35.2182  36.2801

          k =-0.2000 0.6000 0.0000 (   975 PWs)   bands (ev):

   -85.1254 -45.7114 -45.6269 -45.6089  12.7866  14.5747  15.7527  16.9124
    16.9753  17.8749  32.6861  33.2328  35.8467

          k = 0.7000-0.3000 0.9000 (   972 PWs)   bands (ev):

   -85.1185 -45.7361 -45.6491 -45.6182  13.7188  14.5550  15.5018  16.7713
    17.4237  19.3485  28.4450  32.7041  33.6595

          k = 0.6000-0.2000 0.8000 (   968 PWs)   bands (ev):

   -85.1150 -45.7439 -45.6680 -45.6206  14.1966  14.6028  15.4329  16.5825
    17.5408  21.7101  24.7418  31.6439  33.6210

          k = 0.5000-0.1000 0.7000 (   977 PWs)   bands (ev):

   -85.1161 -45.7361 -45.6748 -45.6136  14.2680  14.7526  15.2143  16.5396
    17.3341  21.0442  25.8075  30.6226  34.9831

          k = 0.4000 0.0000 0.6000 (   978 PWs)   bands (ev):

   -85.1214 -45.7242 -45.6553 -45.6013  13.6491  14.8557  15.2227  16.6084
    16.9465  19.0857  29.4880  30.7280  36.9708

          k = 0.8000-0.2000 1.0000 (   976 PWs)   bands (ev):

   -85.1150 -45.7480 -45.6490 -45.6351  13.5274  14.1880  16.3243  17.3300
    17.5086  19.5826  30.1827  30.9279  31.7352

          k = 0.7000-0.1000 0.9000 (   976 PWs)   bands (ev):

   -85.1121 -45.7438 -45.6747 -45.6374  13.8853  14.3094  15.9527  17.0590
    17.6624  22.1019  27.1882  28.5994  31.8280

          k = 0.6000 0.0000 0.8000 (   976 PWs)   bands (ev):

   -85.1125 -45.7185 -45.7063 -45.6283  14.3001  14.5064  15.4357  16.7977
    17.5153  23.7598  24.8352  28.0940  33.0871

          k =-0.2000-1.0000 0.0000 (   970 PWs)   bands (ev):

   -85.1111 -45.7607 -45.6573 -45.6456  13.5353  14.0433  16.7690  17.3558
    17.7724  21.5078  27.1701  30.2599  31.0325

          k = 0.6000-0.2000 1.0000 (   978 PWs)   bands (ev):

   -85.1139 -45.7315 -45.6801 -45.6305  14.1776  14.6617  15.2104  16.8704
    17.5049  21.4900  27.7137  29.3855  31.3958

          k = 0.5000-0.1000 0.9000 (   976 PWs)   bands (ev):

   -85.1121 -45.7211 -45.6986 -45.6368  14.3003  14.7974  15.0887  16.7457
    17.6477  24.0653  24.8914  29.4615  30.1464

          k =-0.4000-1.0000 0.0000 (   972 PWs)   bands (ev):

   -85.1110 -45.7291 -45.6894 -45.6462  14.0736  14.5817  15.5016  16.8716
    17.7730  24.0560  27.0414  27.5868  29.1713

     the Fermi energy is    17.6153 ev

!    total energy              =    -426.57529059 Ry
     Harris-Foulkes estimate   =    -426.57529059 Ry
     estimated scf accuracy    <          1.0E-09 Ry

     total all-electron energy =     -3039.033635 Ry

     The total energy is the sum of the following terms:

     one-electron contribution =    -184.98626143 Ry
     hartree contribution      =     104.56831577 Ry
     xc contribution           =     -33.92634177 Ry
     ewald contribution        =    -223.38275369 Ry
     one-center paw contrib.   =     -88.84608574 Ry
     smearing contrib. (-TS)   =      -0.00216374 Ry

     convergence has been achieved in   7 iterations

     Forces acting on atoms (cartesian axes, Ry/au):

     atom    1 type  1   force =     0.00000000    0.00000000    0.00000000

     Total force =     0.000000     Total SCF correction =     0.000000


     Computing stress (Cartesian axis) and pressure

          total   stress  (Ry/bohr**3)                   (kbar)     P= -147.21
  -0.00100072   0.00000000   0.00000000       -147.21      0.00      0.00
   0.00000000  -0.00100072  -0.00000000          0.00   -147.21     -0.00
   0.00000000   0.00000000  -0.00100072          0.00      0.00   -147.21


     Writing output data file Ni.save/

     init_run     :      0.46s CPU      0.48s WALL (       1 calls)
     electrons    :      5.49s CPU      5.78s WALL (       1 calls)
     forces       :      0.09s CPU      0.09s WALL (       1 calls)
     stress       :      0.27s CPU      0.27s WALL (       1 calls)

     Called by init_run:
     wfcinit      :      0.17s CPU      0.18s WALL (       1 calls)
     potinit      :      0.10s CPU      0.11s WALL (       1 calls)
     hinit0       :      0.16s CPU      0.16s WALL (       1 calls)

     Called by electrons:
     c_bands      :      4.01s CPU      4.17s WALL (       8 calls)
     sum_band     :      0.76s CPU      0.79s WALL (       8 calls)
     v_of_rho     :      0.03s CPU      0.03s WALL (       8 calls)
     newd         :      0.06s CPU      0.08s WALL (       8 calls)
     PAW_pot      :      0.72s CPU      0.81s WALL (       8 calls)
     mix_rho      :      0.00s CPU      0.00s WALL (       8 calls)

     Called by c_bands:
     init_us_2    :      0.12s CPU      0.12s WALL (     893 calls)
     cegterg      :      3.85s CPU      4.00s WALL (     376 calls)

     Called by sum_band:
     sum_band:bec :      0.00s CPU      0.00s WALL (     376 calls)
     addusdens    :      0.06s CPU      0.06s WALL (       8 calls)

     Called by *egterg:
     h_psi        :      2.88s CPU      3.00s WALL (    1287 calls)
     s_psi        :      0.10s CPU      0.10s WALL (    1287 calls)
     g_psi        :      0.01s CPU      0.01s WALL (     864 calls)
     cdiaghg      :      0.43s CPU      0.44s WALL (    1193 calls)

     Called by h_psi:
     h_psi:pot    :      2.86s CPU      2.99s WALL (    1287 calls)
     h_psi:calbec :      0.13s CPU      0.14s WALL (    1287 calls)
     vloc_psi     :      2.62s CPU      2.74s WALL (    1287 calls)
     add_vuspsi   :      0.10s CPU      0.10s WALL (    1287 calls)

     General routines
     calbec       :      0.22s CPU      0.23s WALL (    1898 calls)
     fft          :      0.03s CPU      0.03s WALL (     115 calls)
     ffts         :      0.00s CPU      0.00s WALL (       8 calls)
     fftw         :      2.99s CPU      3.12s WALL (   29828 calls)

     Parallel routines
     fft_scatt_xy :      0.26s CPU      0.27s WALL (   29951 calls)
     fft_scatt_yz :      0.73s CPU      0.76s WALL (   29951 calls)

     PWSCF        :     7.07s CPU         7.46s WALL


   This run was terminated on:  22:57:12  26Mar2024            

=------------------------------------------------------------------------------=
   JOB DONE.
=------------------------------------------------------------------------------=
