
     Program PWSCF v.6.3MaX starts on 26Mar2024 at 23: 1:54 

     This program is part of the open-source Quantum ESPRESSO suite
     for quantum simulation of materials; please cite
         "P. Giannozzi et al., J. Phys.:Condens. Matter 21 395502 (2009);
         "P. Giannozzi et al., J. Phys.:Condens. Matter 29 465901 (2017);
          URL http://www.quantum-espresso.org", 
     in publications or presentations arising from this work. More details at
     http://www.quantum-espresso.org/quote

     Parallel version (MPI), running on     5 processors

     MPI processes distributed on     1 nodes
     R & G space division:  proc/nbgrp/npool/nimage =       5
     Waiting for input...
     Reading input from standard input

     Current dimensions of program PWSCF are:
     Max number of different atomic species (ntypx) = 10
     Max number of k-points (npk) =  40000
     Max angular momentum in pseudopotentials (lmaxx) =  3
               file Ni.pbesol-spn-kjpaw_psl.1.0.0.UPF: wavefunction(s)  3P 3D renormalized

     Subspace diagonalization in iterative solution of the eigenvalue problem:
     a serial algorithm will be used


     Parallelization info
     --------------------
     sticks:   dense  smooth     PW     G-vecs:    dense   smooth      PW
     Min         111     111     32                 1688     1688     290
     Max         112     112     33                 1689     1689     293
     Sum         559     559    163                 8441     8441    1459



     bravais-lattice index     =            2
     lattice parameter (alat)  =       6.6500  a.u.
     unit-cell volume          =      73.5199 (a.u.)^3
     number of atoms/cell      =            1
     number of atomic types    =            1
     number of electrons       =        18.00
     number of Kohn-Sham states=           13
     kinetic-energy cutoff     =      90.0000  Ry
     charge density cutoff     =     360.0000  Ry
     convergence threshold     =      1.0E-08
     mixing beta               =       0.7000
     number of iterations used =            8  plain     mixing
     Exchange-correlation      = SLA PW PSX PSC ( 1  4 10  8 0 0)

     celldm(1)=   6.650000  celldm(2)=   0.000000  celldm(3)=   0.000000
     celldm(4)=   0.000000  celldm(5)=   0.000000  celldm(6)=   0.000000

     crystal axes: (cart. coord. in units of alat)
               a(1) = (  -0.500000   0.000000   0.500000 )  
               a(2) = (   0.000000   0.500000   0.500000 )  
               a(3) = (  -0.500000   0.500000   0.000000 )  

     reciprocal axes: (cart. coord. in units 2 pi/alat)
               b(1) = ( -1.000000 -1.000000  1.000000 )  
               b(2) = (  1.000000  1.000000  1.000000 )  
               b(3) = ( -1.000000  1.000000 -1.000000 )  


     PseudoPot. # 1 for Ni read from file:
     /home/lorenzo/pseudos/Ni/Ni.pbesol-spn-kjpaw_psl.1.0.0.UPF
     MD5 check sum: ef06ee83099c2673f0516457bd731f51
     Pseudo is Projector augmented-wave + core cor, Zval = 18.0
     Generated using "atomic" code by A. Dal Corso v.6.3
     Shape of augmentation charge: PSQ
     Using radial grid of 1195 points,  6 beta functions with: 
                l(1) =   0
                l(2) =   0
                l(3) =   1
                l(4) =   1
                l(5) =   2
                l(6) =   2
     Q(r) pseudized with 0 coefficients 


     atomic species   valence    mass     pseudopotential
        Ni            18.00    58.69340     Ni( 1.00)

     48 Sym. Ops., with inversion, found



   Cartesian axes

     site n.     atom                  positions (alat units)
         1           Ni  tau(   1) = (   0.0000000   0.0000000   0.0000000  )

     number of k points=     8  gaussian smearing, width (Ry)=  0.0100
                       cart. coord. in units 2pi/alat
        k(    1) = (   0.0000000   0.0000000   0.0000000), wk =   0.0312500
        k(    2) = (  -0.2500000   0.2500000  -0.2500000), wk =   0.2500000
        k(    3) = (   0.5000000  -0.5000000   0.5000000), wk =   0.1250000
        k(    4) = (   0.0000000   0.5000000   0.0000000), wk =   0.1875000
        k(    5) = (   0.7500000  -0.2500000   0.7500000), wk =   0.7500000
        k(    6) = (   0.5000000   0.0000000   0.5000000), wk =   0.3750000
        k(    7) = (   0.0000000  -1.0000000   0.0000000), wk =   0.0937500
        k(    8) = (  -0.5000000  -1.0000000   0.0000000), wk =   0.1875000

     Dense  grid:     8441 G-vectors     FFT dimensions: (  30,  30,  30)

     Estimated max dynamical RAM per process >       8.30 MB

     Estimated total dynamical RAM >      41.49 MB

     Check: negative/imaginary core charge=   -0.000002    0.000000

     Initial potential from superposition of free atoms

     starting charge   17.99977, renormalised to   18.00000
     Starting wfcs are   10 randomized atomic wfcs +    3 random wfcs
     Checking if some PAW data can be deallocated... 

     total cpu time spent up to now is        1.1 secs

     Self-consistent Calculation

     iteration #  1     ecut=    90.00 Ry     beta= 0.70
     Davidson diagonalization with overlap
     ethr =  1.00E-02,  avg # of iterations =  3.8

     Threshold (ethr) on eigenvalues was too large:
     Diagonalizing with lowered threshold

     Davidson diagonalization with overlap
     ethr =  1.02E-05,  avg # of iterations =  3.9

     total cpu time spent up to now is        1.6 secs

     total energy              =    -426.58110725 Ry
     Harris-Foulkes estimate   =    -426.58166387 Ry
     estimated scf accuracy    <       0.00171410 Ry

     iteration #  2     ecut=    90.00 Ry     beta= 0.70
     Davidson diagonalization with overlap
     ethr =  9.52E-06,  avg # of iterations =  1.0

     total cpu time spent up to now is        1.8 secs

     total energy              =    -426.58105842 Ry
     Harris-Foulkes estimate   =    -426.58122156 Ry
     estimated scf accuracy    <       0.00025739 Ry

     iteration #  3     ecut=    90.00 Ry     beta= 0.70
     Davidson diagonalization with overlap
     ethr =  1.43E-06,  avg # of iterations =  2.6

     total cpu time spent up to now is        2.1 secs

     total energy              =    -426.58100289 Ry
     Harris-Foulkes estimate   =    -426.58135652 Ry
     estimated scf accuracy    <       0.00103323 Ry

     iteration #  4     ecut=    90.00 Ry     beta= 0.70
     Davidson diagonalization with overlap
     ethr =  1.43E-06,  avg # of iterations =  2.2

     total cpu time spent up to now is        2.4 secs

     total energy              =    -426.58117261 Ry
     Harris-Foulkes estimate   =    -426.58117328 Ry
     estimated scf accuracy    <       0.00000200 Ry

     iteration #  5     ecut=    90.00 Ry     beta= 0.70
     Davidson diagonalization with overlap
     ethr =  1.11E-08,  avg # of iterations =  3.0

     total cpu time spent up to now is        2.6 secs

     total energy              =    -426.58117361 Ry
     Harris-Foulkes estimate   =    -426.58117364 Ry
     estimated scf accuracy    <       0.00000007 Ry

     iteration #  6     ecut=    90.00 Ry     beta= 0.70
     Davidson diagonalization with overlap
     ethr =  3.70E-10,  avg # of iterations =  1.9

     total cpu time spent up to now is        2.8 secs

     total energy              =    -426.58117360 Ry
     Harris-Foulkes estimate   =    -426.58117362 Ry
     estimated scf accuracy    <       0.00000001 Ry

     iteration #  7     ecut=    90.00 Ry     beta= 0.70
     Davidson diagonalization with overlap
     ethr =  6.69E-11,  avg # of iterations =  2.0

     total cpu time spent up to now is        3.1 secs

     End of self-consistent calculation

          k = 0.0000 0.0000 0.0000 (  1067 PWs)   bands (ev):

   -85.2529 -45.6570 -45.6570 -45.6570   8.5989  15.6443  15.6443  15.6443
    16.7764  16.7764  41.2749  45.1988  45.1988

          k =-0.2500 0.2500-0.2500 (  1065 PWs)   bands (ev):

   -85.2358 -45.7693 -45.6730 -45.6730  10.8497  15.2639  15.8558  15.8558
    16.8660  16.8660  32.1228  41.3861  42.9850

          k = 0.5000-0.5000 0.5000 (  1068 PWs)   bands (ev):

   -85.2186 -45.8804 -45.6891 -45.6891  13.0483  15.6122  15.6122  17.3257
    17.5058  17.5058  23.5336  39.7910  42.3083

          k = 0.0000 0.5000 0.0000 (  1062 PWs)   bands (ev):

   -85.2301 -45.7649 -45.6986 -45.6986  11.5157  14.6813  16.1119  16.5069
    16.5069  17.1356  36.8946  36.8946  37.6963

          k = 0.7500-0.2500 0.7500 (  1064 PWs)   bands (ev):

   -85.2129 -45.8425 -45.7469 -45.7148  13.8031  14.4914  15.6098  16.4972
    17.5583  20.1030  26.2063  32.2572  35.8110

          k = 0.5000 0.0000 0.5000 (  1065 PWs)   bands (ev):

   -85.2186 -45.8168 -45.7516 -45.6894  13.5252  14.9395  15.2239  16.3213
    16.7265  18.9516  29.2589  30.5999  40.5502

          k = 0.0000-1.0000 0.0000 (  1034 PWs)   bands (ev):

   -85.2073 -45.8675 -45.7398 -45.7398  13.2260  13.8002  17.5068  17.6803
    17.6803  20.0618  27.0123  32.4445  32.4445

          k =-0.5000-1.0000 0.0000 (  1048 PWs)   bands (ev):

   -85.2073 -45.8040 -45.8040 -45.7417  14.1399  14.9262  14.9262  16.6940
    17.6813  25.4748  25.4748  27.7369  28.7723

     the Fermi energy is    17.6025 ev

!    total energy              =    -426.58117361 Ry
     Harris-Foulkes estimate   =    -426.58117361 Ry
     estimated scf accuracy    <          1.1E-09 Ry

     total all-electron energy =     -3039.039518 Ry

     The total energy is the sum of the following terms:

     one-electron contribution =    -184.89446415 Ry
     hartree contribution      =     104.46354630 Ry
     xc contribution           =     -33.91600751 Ry
     ewald contribution        =    -223.38275369 Ry
     one-center paw contrib.   =     -88.84823874 Ry
     smearing contrib. (-TS)   =      -0.00325582 Ry

     convergence has been achieved in   7 iterations

     Forces acting on atoms (cartesian axes, Ry/au):

     atom    1 type  1   force =     0.00000000    0.00000000    0.00000000

     Total force =     0.000000     Total SCF correction =     0.000000


     Computing stress (Cartesian axis) and pressure

          total   stress  (Ry/bohr**3)                   (kbar)     P= -154.92
  -0.00105313   0.00000000   0.00000000       -154.92      0.00      0.00
   0.00000000  -0.00105313  -0.00000000          0.00   -154.92     -0.00
   0.00000000  -0.00000000  -0.00105313          0.00     -0.00   -154.92


     Writing output data file Ni.save/

     init_run     :      0.34s CPU      0.36s WALL (       1 calls)
     electrons    :      1.82s CPU      1.97s WALL (       1 calls)
     forces       :      0.03s CPU      0.03s WALL (       1 calls)
     stress       :      0.10s CPU      0.10s WALL (       1 calls)

     Called by init_run:
     wfcinit      :      0.03s CPU      0.03s WALL (       1 calls)
     potinit      :      0.11s CPU      0.12s WALL (       1 calls)
     hinit0       :      0.17s CPU      0.17s WALL (       1 calls)

     Called by electrons:
     c_bands      :      0.84s CPU      0.88s WALL (       8 calls)
     sum_band     :      0.21s CPU      0.22s WALL (       8 calls)
     v_of_rho     :      0.04s CPU      0.04s WALL (       8 calls)
     newd         :      0.08s CPU      0.09s WALL (       8 calls)
     PAW_pot      :      0.74s CPU      0.86s WALL (       8 calls)
     mix_rho      :      0.00s CPU      0.00s WALL (       8 calls)

     Called by c_bands:
     init_us_2    :      0.02s CPU      0.02s WALL (     152 calls)
     cegterg      :      0.81s CPU      0.84s WALL (      64 calls)

     Called by sum_band:
     sum_band:bec :      0.00s CPU      0.00s WALL (      64 calls)
     addusdens    :      0.06s CPU      0.07s WALL (       8 calls)

     Called by *egterg:
     h_psi        :      0.62s CPU      0.64s WALL (     235 calls)
     s_psi        :      0.02s CPU      0.02s WALL (     235 calls)
     g_psi        :      0.00s CPU      0.00s WALL (     163 calls)
     cdiaghg      :      0.08s CPU      0.08s WALL (     219 calls)

     Called by h_psi:
     h_psi:pot    :      0.62s CPU      0.64s WALL (     235 calls)
     h_psi:calbec :      0.04s CPU      0.04s WALL (     235 calls)
     vloc_psi     :      0.56s CPU      0.58s WALL (     235 calls)
     add_vuspsi   :      0.02s CPU      0.02s WALL (     235 calls)

     General routines
     calbec       :      0.06s CPU      0.06s WALL (     339 calls)
     fft          :      0.03s CPU      0.04s WALL (     115 calls)
     ffts         :      0.00s CPU      0.00s WALL (       8 calls)
     fftw         :      0.62s CPU      0.64s WALL (    5112 calls)

     Parallel routines
     fft_scatt_xy :      0.05s CPU      0.05s WALL (    5235 calls)
     fft_scatt_yz :      0.20s CPU      0.21s WALL (    5235 calls)

     PWSCF        :     3.03s CPU         3.25s WALL


   This run was terminated on:  23: 1:57  26Mar2024            

=------------------------------------------------------------------------------=
   JOB DONE.
=------------------------------------------------------------------------------=
