
     Program PWSCF v.6.3MaX starts on 26Mar2024 at 22:44:55 

     This program is part of the open-source Quantum ESPRESSO suite
     for quantum simulation of materials; please cite
         "P. Giannozzi et al., J. Phys.:Condens. Matter 21 395502 (2009);
         "P. Giannozzi et al., J. Phys.:Condens. Matter 29 465901 (2017);
          URL http://www.quantum-espresso.org", 
     in publications or presentations arising from this work. More details at
     http://www.quantum-espresso.org/quote

     Parallel version (MPI), running on     5 processors

     MPI processes distributed on     1 nodes
     R & G space division:  proc/nbgrp/npool/nimage =       5
     Waiting for input...
     Reading input from standard input

     Current dimensions of program PWSCF are:
     Max number of different atomic species (ntypx) = 10
     Max number of k-points (npk) =  40000
     Max angular momentum in pseudopotentials (lmaxx) =  3

     Subspace diagonalization in iterative solution of the eigenvalue problem:
     a serial algorithm will be used


     Parallelization info
     --------------------
     sticks:   dense  smooth     PW     G-vecs:    dense   smooth      PW
     Min          73      73     24                  928      928     178
     Max          74      74     25                  930      930     181
     Sum         367     367    121                 4645     4645     893



     bravais-lattice index     =            2
     lattice parameter (alat)  =       6.6500  a.u.
     unit-cell volume          =      73.5199 (a.u.)^3
     number of atoms/cell      =            1
     number of atomic types    =            1
     number of electrons       =        18.00
     number of Kohn-Sham states=           13
     kinetic-energy cutoff     =      60.0000  Ry
     charge density cutoff     =     240.0000  Ry
     convergence threshold     =      1.0E-08
     mixing beta               =       0.7000
     number of iterations used =            8  plain     mixing
     Exchange-correlation      = PBESOL ( 1  4 10  8 0 0)

     celldm(1)=   6.650000  celldm(2)=   0.000000  celldm(3)=   0.000000
     celldm(4)=   0.000000  celldm(5)=   0.000000  celldm(6)=   0.000000

     crystal axes: (cart. coord. in units of alat)
               a(1) = (  -0.500000   0.000000   0.500000 )  
               a(2) = (   0.000000   0.500000   0.500000 )  
               a(3) = (  -0.500000   0.500000   0.000000 )  

     reciprocal axes: (cart. coord. in units 2 pi/alat)
               b(1) = ( -1.000000 -1.000000  1.000000 )  
               b(2) = (  1.000000  1.000000  1.000000 )  
               b(3) = ( -1.000000  1.000000 -1.000000 )  


     PseudoPot. # 1 for Ni read from file:
     /home/lorenzo/pseudos/Ni/Ni.pbesol-spn-rrkjus_psl.1.0.0.UPF
     MD5 check sum: 6fc0a587bf949a08f2faed986b854013
     Pseudo is Ultrasoft + core correction, Zval = 18.0
     Generated using "atomic" code by A. Dal Corso v.6.3
     Using radial grid of 1195 points,  6 beta functions with: 
                l(1) =   0
                l(2) =   0
                l(3) =   1
                l(4) =   1
                l(5) =   2
                l(6) =   2
     Q(r) pseudized with 0 coefficients 


     atomic species   valence    mass     pseudopotential
        Ni            18.00    58.69340     Ni( 1.00)

     48 Sym. Ops., with inversion, found



   Cartesian axes

     site n.     atom                  positions (alat units)
         1           Ni  tau(   1) = (   0.0000000   0.0000000   0.0000000  )

     number of k points=    29  gaussian smearing, width (Ry)=  0.0100
                       cart. coord. in units 2pi/alat
        k(    1) = (   0.0000000   0.0000000   0.0000000), wk =   0.0039062
        k(    2) = (  -0.1250000   0.1250000  -0.1250000), wk =   0.0312500
        k(    3) = (  -0.2500000   0.2500000  -0.2500000), wk =   0.0312500
        k(    4) = (  -0.3750000   0.3750000  -0.3750000), wk =   0.0312500
        k(    5) = (   0.5000000  -0.5000000   0.5000000), wk =   0.0156250
        k(    6) = (   0.0000000   0.2500000   0.0000000), wk =   0.0234375
        k(    7) = (  -0.1250000   0.3750000  -0.1250000), wk =   0.0937500
        k(    8) = (  -0.2500000   0.5000000  -0.2500000), wk =   0.0937500
        k(    9) = (   0.6250000  -0.3750000   0.6250000), wk =   0.0937500
        k(   10) = (   0.5000000  -0.2500000   0.5000000), wk =   0.0937500
        k(   11) = (   0.3750000  -0.1250000   0.3750000), wk =   0.0937500
        k(   12) = (   0.2500000   0.0000000   0.2500000), wk =   0.0468750
        k(   13) = (   0.0000000   0.5000000   0.0000000), wk =   0.0234375
        k(   14) = (  -0.1250000   0.6250000  -0.1250000), wk =   0.0937500
        k(   15) = (   0.7500000  -0.2500000   0.7500000), wk =   0.0937500
        k(   16) = (   0.6250000  -0.1250000   0.6250000), wk =   0.0937500
        k(   17) = (   0.5000000   0.0000000   0.5000000), wk =   0.0468750
        k(   18) = (   0.0000000   0.7500000   0.0000000), wk =   0.0234375
        k(   19) = (   0.8750000  -0.1250000   0.8750000), wk =   0.0937500
        k(   20) = (   0.7500000   0.0000000   0.7500000), wk =   0.0468750
        k(   21) = (   0.0000000  -1.0000000   0.0000000), wk =   0.0117188
        k(   22) = (  -0.2500000   0.5000000   0.0000000), wk =   0.0937500
        k(   23) = (   0.6250000  -0.3750000   0.8750000), wk =   0.1875000
        k(   24) = (   0.5000000  -0.2500000   0.7500000), wk =   0.0937500
        k(   25) = (   0.7500000  -0.2500000   1.0000000), wk =   0.0937500
        k(   26) = (   0.6250000  -0.1250000   0.8750000), wk =   0.1875000
        k(   27) = (   0.5000000   0.0000000   0.7500000), wk =   0.0937500
        k(   28) = (  -0.2500000  -1.0000000   0.0000000), wk =   0.0468750
        k(   29) = (  -0.5000000  -1.0000000   0.0000000), wk =   0.0234375

     Dense  grid:     4645 G-vectors     FFT dimensions: (  24,  24,  24)

     Estimated max dynamical RAM per process >       5.47 MB

     Estimated total dynamical RAM >      27.34 MB

     Check: negative/imaginary core charge=   -0.000009    0.000000

     Initial potential from superposition of free atoms

     starting charge   17.99977, renormalised to   18.00000
     Starting wfcs are   10 randomized atomic wfcs +    3 random wfcs

     total cpu time spent up to now is        0.9 secs

     Self-consistent Calculation

     iteration #  1     ecut=    60.00 Ry     beta= 0.70
     Davidson diagonalization with overlap
     ethr =  1.00E-02,  avg # of iterations =  3.6

     Threshold (ethr) on eigenvalues was too large:
     Diagonalizing with lowered threshold

     Davidson diagonalization with overlap
     ethr =  8.94E-06,  avg # of iterations =  3.2

     total cpu time spent up to now is        1.5 secs

     total energy              =    -339.38503196 Ry
     Harris-Foulkes estimate   =    -339.38557831 Ry
     estimated scf accuracy    <       0.00157191 Ry

     iteration #  2     ecut=    60.00 Ry     beta= 0.70
     Davidson diagonalization with overlap
     ethr =  8.73E-06,  avg # of iterations =  2.0

     total cpu time spent up to now is        1.8 secs

     total energy              =    -339.38463537 Ry
     Harris-Foulkes estimate   =    -339.38584801 Ry
     estimated scf accuracy    <       0.00291850 Ry

     iteration #  3     ecut=    60.00 Ry     beta= 0.70
     Davidson diagonalization with overlap
     ethr =  8.73E-06,  avg # of iterations =  2.1

     total cpu time spent up to now is        2.0 secs

     total energy              =    -339.38527159 Ry
     Harris-Foulkes estimate   =    -339.38542145 Ry
     estimated scf accuracy    <       0.00050349 Ry

     iteration #  4     ecut=    60.00 Ry     beta= 0.70
     Davidson diagonalization with overlap
     ethr =  2.80E-06,  avg # of iterations =  1.2

     total cpu time spent up to now is        2.2 secs

     total energy              =    -339.38534360 Ry
     Harris-Foulkes estimate   =    -339.38534338 Ry
     estimated scf accuracy    <       0.00000046 Ry

     iteration #  5     ecut=    60.00 Ry     beta= 0.70
     Davidson diagonalization with overlap
     ethr =  2.58E-09,  avg # of iterations =  3.1

     total cpu time spent up to now is        2.5 secs

     total energy              =    -339.38534490 Ry
     Harris-Foulkes estimate   =    -339.38534494 Ry
     estimated scf accuracy    <       0.00000013 Ry

     iteration #  6     ecut=    60.00 Ry     beta= 0.70
     Davidson diagonalization with overlap
     ethr =  7.29E-10,  avg # of iterations =  1.0

     total cpu time spent up to now is        2.7 secs

     total energy              =    -339.38534490 Ry
     Harris-Foulkes estimate   =    -339.38534490 Ry
     estimated scf accuracy    <       0.00000001 Ry

     iteration #  7     ecut=    60.00 Ry     beta= 0.70
     Davidson diagonalization with overlap
     ethr =  7.70E-11,  avg # of iterations =  1.4

     total cpu time spent up to now is        2.9 secs

     End of self-consistent calculation

          k = 0.0000 0.0000 0.0000 (   561 PWs)   bands (ev):

   -85.1965 -45.5970 -45.5970 -45.5970   8.6170  15.6982  15.6982  15.6982
    16.8200  16.8200  41.2826  45.2037  45.2037

          k =-0.1250 0.1250-0.1250 (   570 PWs)   bands (ev):

   -85.1918 -45.6305 -45.6020 -45.6020   9.2196  15.5421  15.8205  15.8205
    16.7770  16.7770  38.4226  42.3371  44.1192

          k =-0.2500 0.2500-0.2500 (   576 PWs)   bands (ev):

   -85.1799 -45.7094 -45.6136 -45.6136  10.8664  15.3119  15.9060  15.9060
    16.9139  16.9139  32.1493  41.3894  43.0038

          k =-0.3750 0.3750-0.3750 (   589 PWs)   bands (ev):

   -85.1682 -45.7882 -45.6251 -45.6251  12.6187  15.7488  15.7488  15.9216
    17.3413  17.3413  26.5663  40.2705  42.4511

          k = 0.5000-0.5000 0.5000 (   580 PWs)   bands (ev):

   -85.1628 -45.8205 -45.6298 -45.6298  13.0850  15.6573  15.6573  17.3320
    17.5602  17.5602  23.5835  39.7888  42.3266

          k = 0.0000 0.2500 0.0000 (   568 PWs)   bands (ev):

   -85.1901 -45.6293 -45.6096 -45.6096   9.4184  15.4053  15.9286  15.9286
    16.5581  16.9242  39.9961  41.2997  41.2997

          k =-0.1250 0.3750-0.1250 (   574 PWs)   bands (ev):

   -85.1805 -45.6880 -45.6231 -45.6194  10.7191  15.1099  15.9724  16.1216
    16.6263  17.0788  34.6059  39.4591  39.9747

          k =-0.2500 0.5000-0.2500 (   579 PWs)   bands (ev):

   -85.1686 -45.7623 -45.6348 -45.6344  12.5523  15.0980  15.6563  16.0476
    17.4231  17.5137  28.6362  38.6111  38.7135

          k = 0.6250-0.3750 0.6250 (   578 PWs)   bands (ev):

   -85.1611 -45.8067 -45.6493 -45.6372  13.3934  15.3487  15.9025  15.9710
    17.5752  19.1208  24.1610  36.9920  39.2510

          k = 0.5000-0.2500 0.5000 (   581 PWs)   bands (ev):

   -85.1629 -45.7962 -45.6536 -45.6297  13.2829  15.4512  15.7712  15.9026
    17.2795  18.7117  25.3619  35.9674  41.1872

          k = 0.3750-0.1250 0.3750 (   579 PWs)   bands (ev):

   -85.1726 -45.7379 -45.6439 -45.6162  11.9812  15.1273  15.7436  16.0730
    16.7174  17.6332  30.5515  35.9453  42.8935

          k = 0.2500 0.0000 0.2500 (   576 PWs)   bands (ev):

   -85.1847 -45.6691 -45.6229 -45.6049  10.1798  15.2986  15.9203  16.0269
    16.5332  17.0329  36.4016  37.2499  44.8200

          k = 0.0000 0.5000 0.0000 (   576 PWs)   bands (ev):

   -85.1742 -45.7051 -45.6392 -45.6392  11.5319  14.7305  16.1507  16.5632
    16.5632  17.1799  36.9116  36.9116  37.7054

          k =-0.1250 0.6250-0.1250 (   579 PWs)   bands (ev):

   -85.1646 -45.7526 -45.6587 -45.6525  12.8739  14.4730  15.8894  16.6949
    17.4620  17.6584  31.5484  34.8281  35.6146

          k = 0.7500-0.2500 0.7500 (   579 PWs)   bands (ev):

   -85.1571 -45.7828 -45.6872 -45.6554  13.8361  14.5282  15.6550  16.5442
    17.6135  20.1397  26.2384  32.2814  35.8268

          k = 0.6250-0.1250 0.6250 (   577 PWs)   bands (ev):

   -85.1563 -45.7768 -45.7090 -45.6459  14.1534  14.7523  15.4214  16.4163
    17.3028  21.3625  24.8119  30.6710  37.5828

          k = 0.5000 0.0000 0.5000 (   574 PWs)   bands (ev):

   -85.1627 -45.7571 -45.6917 -45.6297  13.5501  14.9865  15.2626  16.3625
    16.7842  18.9990  29.2865  30.6283  40.5688

          k = 0.0000 0.7500 0.0000 (   576 PWs)   bands (ev):

   -85.1580 -45.7785 -45.6686 -45.6686  13.1427  14.0970  17.3502  17.3502
    17.4417  17.5261  31.1518  33.6882  33.6882

          k = 0.8750-0.1250 0.8750 (   580 PWs)   bands (ev):

   -85.1532 -45.7932 -45.6904 -45.6733  13.4696  14.0356  16.7860  17.2684
    17.6652  20.3042  28.4956  29.7678  33.3753

          k = 0.7500 0.0000 0.7500 (   588 PWs)   bands (ev):

   -85.1528 -45.7723 -45.7279 -45.6641  13.9856  14.2823  15.9428  16.9766
    17.4769  23.5038  25.0597  27.7264  34.7998

          k = 0.0000-1.0000 0.0000 (   588 PWs)   bands (ev):

   -85.1518 -45.8086 -45.6811 -45.6811  13.2518  13.8455  17.5520  17.7413
    17.7413  20.0737  27.0489  32.4559  32.4559

          k =-0.2500 0.5000 0.0000 (   578 PWs)   bands (ev):

   -85.1709 -45.7291 -45.6546 -45.6277  12.1571  14.8273  15.6737  16.5775
    16.6316  17.6677  32.9906  33.6877  39.0467

          k = 0.6250-0.3750 0.8750 (   577 PWs)   bands (ev):

   -85.1611 -45.7719 -45.6794 -45.6412  13.6266  14.8543  15.3113  16.4164
    17.2354  19.1041  27.5938  33.1176  36.2096

          k = 0.5000-0.2500 0.7500 (   578 PWs)   bands (ev):

   -85.1571 -45.7903 -45.6873 -45.6485  14.0022  14.8405  15.5165  16.2864
    17.4799  21.1892  23.9464  33.6712  34.5605

          k = 0.7500-0.2500 1.0000 (   577 PWs)   bands (ev):

   -85.1571 -45.7744 -45.6864 -45.6639  13.6176  14.3257  15.8278  17.1499
    17.3463  19.4101  30.4596  31.0845  32.0341

          k = 0.6250-0.1250 0.8750 (   577 PWs)   bands (ev):

   -85.1530 -45.7702 -45.7188 -45.6691  14.1241  14.4764  15.4900  16.8245
    17.5809  22.5890  25.8238  29.4798  31.7024

          k = 0.5000 0.0000 0.7500 (   572 PWs)   bands (ev):

   -85.1545 -45.7579 -45.7292 -45.6575  14.4096  14.7143  15.0021  16.6742
    17.3540  21.7581  26.5874  28.8669  33.4936

          k =-0.2500-1.0000 0.0000 (   582 PWs)   bands (ev):

   -85.1516 -45.7898 -45.6997 -45.6817  13.6485  14.1210  16.4059  17.2085
    17.7418  22.0855  27.2483  29.4533  30.5156

          k =-0.5000-1.0000 0.0000 (   560 PWs)   bands (ev):

   -85.1507 -45.7440 -45.7440 -45.6818  14.1684  14.9718  14.9718  16.7359
    17.7424  25.5005  25.5005  27.7558  28.8263

     the Fermi energy is    17.5728 ev

!    total energy              =    -339.38534490 Ry
     Harris-Foulkes estimate   =    -339.38534490 Ry
     estimated scf accuracy    <          1.4E-10 Ry

     The total energy is the sum of the following terms:

     one-electron contribution =    -186.59505385 Ry
     hartree contribution      =     104.51169802 Ry
     xc contribution           =     -33.91646826 Ry
     ewald contribution        =    -223.38275372 Ry
     smearing contrib. (-TS)   =      -0.00276709 Ry

     convergence has been achieved in   7 iterations

     Forces acting on atoms (cartesian axes, Ry/au):

     atom    1 type  1   force =     0.00000000    0.00000000    0.00000000

     Total force =     0.000000     Total SCF correction =     0.000000


     Computing stress (Cartesian axis) and pressure

          total   stress  (Ry/bohr**3)                   (kbar)     P= -124.61
  -0.00084707   0.00000000   0.00000000       -124.61      0.00      0.00
   0.00000000  -0.00084707  -0.00000000          0.00   -124.61     -0.00
   0.00000000  -0.00000000  -0.00084707          0.00     -0.00   -124.61


     Writing output data file Ni.save/

     init_run     :      0.21s CPU      0.22s WALL (       1 calls)
     electrons    :      1.89s CPU      2.03s WALL (       1 calls)
     forces       :      0.03s CPU      0.03s WALL (       1 calls)
     stress       :      0.09s CPU      0.09s WALL (       1 calls)

     Called by init_run:
     wfcinit      :      0.06s CPU      0.07s WALL (       1 calls)
     potinit      :      0.01s CPU      0.01s WALL (       1 calls)
     hinit0       :      0.14s CPU      0.14s WALL (       1 calls)

     Called by electrons:
     c_bands      :      1.54s CPU      1.65s WALL (       8 calls)
     sum_band     :      0.29s CPU      0.31s WALL (       8 calls)
     v_of_rho     :      0.02s CPU      0.02s WALL (       8 calls)
     newd         :      0.03s CPU      0.04s WALL (       8 calls)
     mix_rho      :      0.00s CPU      0.00s WALL (       8 calls)

     Called by c_bands:
     init_us_2    :      0.04s CPU      0.04s WALL (     551 calls)
     cegterg      :      1.48s CPU      1.59s WALL (     232 calls)

     Called by sum_band:
     sum_band:bec :      0.00s CPU      0.00s WALL (     232 calls)
     addusdens    :      0.04s CPU      0.04s WALL (       8 calls)

     Called by *egterg:
     h_psi        :      1.05s CPU      1.13s WALL (     769 calls)
     s_psi        :      0.03s CPU      0.04s WALL (     769 calls)
     g_psi        :      0.00s CPU      0.00s WALL (     508 calls)
     cdiaghg      :      0.24s CPU      0.25s WALL (     711 calls)

     Called by h_psi:
     h_psi:pot    :      1.04s CPU      1.12s WALL (     769 calls)
     h_psi:calbec :      0.05s CPU      0.06s WALL (     769 calls)
     vloc_psi     :      0.95s CPU      1.02s WALL (     769 calls)
     add_vuspsi   :      0.03s CPU      0.04s WALL (     769 calls)

     General routines
     calbec       :      0.08s CPU      0.08s WALL (    1146 calls)
     fft          :      0.02s CPU      0.02s WALL (     115 calls)
     ffts         :      0.00s CPU      0.00s WALL (       8 calls)
     fftw         :      1.07s CPU      1.15s WALL (   18376 calls)

     Parallel routines
     fft_scatt_xy :      0.10s CPU      0.11s WALL (   18499 calls)
     fft_scatt_yz :      0.29s CPU      0.31s WALL (   18499 calls)

     PWSCF        :     2.96s CPU         3.17s WALL


   This run was terminated on:  22:44:58  26Mar2024            

=------------------------------------------------------------------------------=
   JOB DONE.
=------------------------------------------------------------------------------=
