
     Program PWSCF v.6.3MaX starts on 26Mar2024 at 22:51: 6 

     This program is part of the open-source Quantum ESPRESSO suite
     for quantum simulation of materials; please cite
         "P. Giannozzi et al., J. Phys.:Condens. Matter 21 395502 (2009);
         "P. Giannozzi et al., J. Phys.:Condens. Matter 29 465901 (2017);
          URL http://www.quantum-espresso.org", 
     in publications or presentations arising from this work. More details at
     http://www.quantum-espresso.org/quote

     Parallel version (MPI), running on     5 processors

     MPI processes distributed on     1 nodes
     R & G space division:  proc/nbgrp/npool/nimage =       5
     Waiting for input...
     Reading input from standard input

     Current dimensions of program PWSCF are:
     Max number of different atomic species (ntypx) = 10
     Max number of k-points (npk) =  40000
     Max angular momentum in pseudopotentials (lmaxx) =  3

     Subspace diagonalization in iterative solution of the eigenvalue problem:
     a serial algorithm will be used


     Parallelization info
     --------------------
     sticks:   dense  smooth     PW     G-vecs:    dense   smooth      PW
     Min          90      90     30                 1284     1284     248
     Max          91      91     31                 1287     1287     251
     Sum         451     451    151                 6423     6423    1243



     bravais-lattice index     =            2
     lattice parameter (alat)  =       6.6500  a.u.
     unit-cell volume          =      73.5199 (a.u.)^3
     number of atoms/cell      =            1
     number of atomic types    =            1
     number of electrons       =        18.00
     number of Kohn-Sham states=           13
     kinetic-energy cutoff     =      75.0000  Ry
     charge density cutoff     =     300.0000  Ry
     convergence threshold     =      1.0E-08
     mixing beta               =       0.7000
     number of iterations used =            8  plain     mixing
     Exchange-correlation      = PBESOL ( 1  4 10  8 0 0)

     celldm(1)=   6.650000  celldm(2)=   0.000000  celldm(3)=   0.000000
     celldm(4)=   0.000000  celldm(5)=   0.000000  celldm(6)=   0.000000

     crystal axes: (cart. coord. in units of alat)
               a(1) = (  -0.500000   0.000000   0.500000 )  
               a(2) = (   0.000000   0.500000   0.500000 )  
               a(3) = (  -0.500000   0.500000   0.000000 )  

     reciprocal axes: (cart. coord. in units 2 pi/alat)
               b(1) = ( -1.000000 -1.000000  1.000000 )  
               b(2) = (  1.000000  1.000000  1.000000 )  
               b(3) = ( -1.000000  1.000000 -1.000000 )  


     PseudoPot. # 1 for Ni read from file:
     /home/lorenzo/pseudos/Ni/Ni.pbesol-spn-rrkjus_psl.1.0.0.UPF
     MD5 check sum: 6fc0a587bf949a08f2faed986b854013
     Pseudo is Ultrasoft + core correction, Zval = 18.0
     Generated using "atomic" code by A. Dal Corso v.6.3
     Using radial grid of 1195 points,  6 beta functions with: 
                l(1) =   0
                l(2) =   0
                l(3) =   1
                l(4) =   1
                l(5) =   2
                l(6) =   2
     Q(r) pseudized with 0 coefficients 


     atomic species   valence    mass     pseudopotential
        Ni            18.00    58.69340     Ni( 1.00)

     48 Sym. Ops., with inversion, found



   Cartesian axes

     site n.     atom                  positions (alat units)
         1           Ni  tau(   1) = (   0.0000000   0.0000000   0.0000000  )

     number of k points=    47  gaussian smearing, width (Ry)=  0.0100
                       cart. coord. in units 2pi/alat
        k(    1) = (   0.0000000   0.0000000   0.0000000), wk =   0.0020000
        k(    2) = (  -0.1000000   0.1000000  -0.1000000), wk =   0.0160000
        k(    3) = (  -0.2000000   0.2000000  -0.2000000), wk =   0.0160000
        k(    4) = (  -0.3000000   0.3000000  -0.3000000), wk =   0.0160000
        k(    5) = (  -0.4000000   0.4000000  -0.4000000), wk =   0.0160000
        k(    6) = (   0.5000000  -0.5000000   0.5000000), wk =   0.0080000
        k(    7) = (   0.0000000   0.2000000   0.0000000), wk =   0.0120000
        k(    8) = (  -0.1000000   0.3000000  -0.1000000), wk =   0.0480000
        k(    9) = (  -0.2000000   0.4000000  -0.2000000), wk =   0.0480000
        k(   10) = (  -0.3000000   0.5000000  -0.3000000), wk =   0.0480000
        k(   11) = (   0.6000000  -0.4000000   0.6000000), wk =   0.0480000
        k(   12) = (   0.5000000  -0.3000000   0.5000000), wk =   0.0480000
        k(   13) = (   0.4000000  -0.2000000   0.4000000), wk =   0.0480000
        k(   14) = (   0.3000000  -0.1000000   0.3000000), wk =   0.0480000
        k(   15) = (   0.2000000   0.0000000   0.2000000), wk =   0.0240000
        k(   16) = (   0.0000000   0.4000000   0.0000000), wk =   0.0120000
        k(   17) = (  -0.1000000   0.5000000  -0.1000000), wk =   0.0480000
        k(   18) = (  -0.2000000   0.6000000  -0.2000000), wk =   0.0480000
        k(   19) = (   0.7000000  -0.3000000   0.7000000), wk =   0.0480000
        k(   20) = (   0.6000000  -0.2000000   0.6000000), wk =   0.0480000
        k(   21) = (   0.5000000  -0.1000000   0.5000000), wk =   0.0480000
        k(   22) = (   0.4000000   0.0000000   0.4000000), wk =   0.0240000
        k(   23) = (   0.0000000   0.6000000   0.0000000), wk =   0.0120000
        k(   24) = (  -0.1000000   0.7000000  -0.1000000), wk =   0.0480000
        k(   25) = (   0.8000000  -0.2000000   0.8000000), wk =   0.0480000
        k(   26) = (   0.7000000  -0.1000000   0.7000000), wk =   0.0480000
        k(   27) = (   0.6000000  -0.0000000   0.6000000), wk =   0.0240000
        k(   28) = (   0.0000000   0.8000000   0.0000000), wk =   0.0120000
        k(   29) = (   0.9000000  -0.1000000   0.9000000), wk =   0.0480000
        k(   30) = (   0.8000000   0.0000000   0.8000000), wk =   0.0240000
        k(   31) = (   0.0000000  -1.0000000   0.0000000), wk =   0.0060000
        k(   32) = (  -0.2000000   0.4000000   0.0000000), wk =   0.0480000
        k(   33) = (  -0.3000000   0.5000000  -0.1000000), wk =   0.0960000
        k(   34) = (   0.6000000  -0.4000000   0.8000000), wk =   0.0960000
        k(   35) = (   0.5000000  -0.3000000   0.7000000), wk =   0.0480000
        k(   36) = (  -0.2000000   0.6000000   0.0000000), wk =   0.0480000
        k(   37) = (   0.7000000  -0.3000000   0.9000000), wk =   0.0960000
        k(   38) = (   0.6000000  -0.2000000   0.8000000), wk =   0.0960000
        k(   39) = (   0.5000000  -0.1000000   0.7000000), wk =   0.0960000
        k(   40) = (   0.4000000   0.0000000   0.6000000), wk =   0.0480000
        k(   41) = (   0.8000000  -0.2000000   1.0000000), wk =   0.0480000
        k(   42) = (   0.7000000  -0.1000000   0.9000000), wk =   0.0960000
        k(   43) = (   0.6000000   0.0000000   0.8000000), wk =   0.0480000
        k(   44) = (  -0.2000000  -1.0000000   0.0000000), wk =   0.0240000
        k(   45) = (   0.6000000  -0.2000000   1.0000000), wk =   0.0480000
        k(   46) = (   0.5000000  -0.1000000   0.9000000), wk =   0.0480000
        k(   47) = (  -0.4000000  -1.0000000   0.0000000), wk =   0.0240000

     Dense  grid:     6423 G-vectors     FFT dimensions: (  25,  25,  25)

     Estimated max dynamical RAM per process >       7.75 MB

     Estimated total dynamical RAM >      38.73 MB

     Check: negative/imaginary core charge=   -0.000008    0.000000

     Initial potential from superposition of free atoms

     starting charge   17.99977, renormalised to   18.00000
     Starting wfcs are   10 randomized atomic wfcs +    3 random wfcs

     total cpu time spent up to now is        1.2 secs

     Self-consistent Calculation

     iteration #  1     ecut=    75.00 Ry     beta= 0.70
     Davidson diagonalization with overlap
     ethr =  1.00E-02,  avg # of iterations =  3.5

     Threshold (ethr) on eigenvalues was too large:
     Diagonalizing with lowered threshold

     Davidson diagonalization with overlap
     ethr =  1.17E-05,  avg # of iterations =  2.9

     total cpu time spent up to now is        2.5 secs

     total energy              =    -339.39264271 Ry
     Harris-Foulkes estimate   =    -339.39361422 Ry
     estimated scf accuracy    <       0.00208020 Ry

     iteration #  2     ecut=    75.00 Ry     beta= 0.70
     Davidson diagonalization with overlap
     ethr =  1.16E-05,  avg # of iterations =  2.1

     total cpu time spent up to now is        3.1 secs

     total energy              =    -339.39218546 Ry
     Harris-Foulkes estimate   =    -339.39396456 Ry
     estimated scf accuracy    <       0.00431729 Ry

     iteration #  3     ecut=    75.00 Ry     beta= 0.70
     Davidson diagonalization with overlap
     ethr =  1.16E-05,  avg # of iterations =  2.1

     total cpu time spent up to now is        3.7 secs

     total energy              =    -339.39311259 Ry
     Harris-Foulkes estimate   =    -339.39323306 Ry
     estimated scf accuracy    <       0.00038140 Ry

     iteration #  4     ecut=    75.00 Ry     beta= 0.70
     Davidson diagonalization with overlap
     ethr =  2.12E-06,  avg # of iterations =  1.5

     total cpu time spent up to now is        4.2 secs

     total energy              =    -339.39316760 Ry
     Harris-Foulkes estimate   =    -339.39316737 Ry
     estimated scf accuracy    <       0.00000025 Ry

     iteration #  5     ecut=    75.00 Ry     beta= 0.70
     Davidson diagonalization with overlap
     ethr =  1.39E-09,  avg # of iterations =  3.6

     total cpu time spent up to now is        5.0 secs

     total energy              =    -339.39316887 Ry
     Harris-Foulkes estimate   =    -339.39316893 Ry
     estimated scf accuracy    <       0.00000016 Ry

     iteration #  6     ecut=    75.00 Ry     beta= 0.70
     Davidson diagonalization with overlap
     ethr =  8.84E-10,  avg # of iterations =  1.0

     total cpu time spent up to now is        5.4 secs

     total energy              =    -339.39316887 Ry
     Harris-Foulkes estimate   =    -339.39316888 Ry
     estimated scf accuracy    <       0.00000002 Ry

     iteration #  7     ecut=    75.00 Ry     beta= 0.70
     Davidson diagonalization with overlap
     ethr =  1.09E-10,  avg # of iterations =  1.6

     total cpu time spent up to now is        5.9 secs

     End of self-consistent calculation

          k = 0.0000 0.0000 0.0000 (   869 PWs)   bands (ev):

   -85.1537 -45.5568 -45.5568 -45.5568   8.6054  15.7261  15.7261  15.7261
    16.8501  16.8501  41.2814  45.2010  45.2010

          k =-0.1000 0.1000-0.1000 (   815 PWs)   bands (ev):

   -85.1499 -45.5759 -45.5579 -45.5579   8.9950  15.6229  15.8117  15.8117
    16.8191  16.8191  39.5594  42.5871  44.3969

          k =-0.2000 0.2000-0.2000 (   812 PWs)   bands (ev):

   -85.1413 -45.6319 -45.5658 -45.5658  10.1039  15.4032  15.9396  15.9396
    16.8398  16.8398  34.6430  41.8100  43.3835

          k =-0.3000 0.3000-0.3000 (   817 PWs)   bands (ev):

   -85.1308 -45.7010 -45.5760 -45.5760  11.6568  15.3898  15.8835  15.8835
    17.1100  17.1100  29.7735  40.9128  42.7188

          k =-0.4000 0.4000-0.4000 (   805 PWs)   bands (ev):

   -85.1220 -45.7560 -45.5836 -45.5836  12.8231  15.7470  15.7470  16.2623
    17.4493  17.4493  25.6438  40.0998  42.4006

          k = 0.5000-0.5000 0.5000 (   796 PWs)   bands (ev):

   -85.1187 -45.7770 -45.5863 -45.5863  13.1012  15.6866  15.6866  17.3306
    17.5948  17.5948  23.5868  39.7857  42.3267

          k = 0.0000 0.2000 0.0000 (   817 PWs)   bands (ev):

   -85.1488 -45.5752 -45.5629 -45.5629   9.1237  15.5354  15.8766  15.8766
    16.6780  16.9193  40.3553  42.2423  42.2423

          k =-0.1000 0.3000-0.1000 (   808 PWs)   bands (ev):

   -85.1420 -45.6168 -45.5719 -45.5686   9.9917  15.3122  16.0118  16.0397
    16.5840  16.9984  36.5904  40.6567  40.7174

          k =-0.2000 0.4000-0.2000 (   808 PWs)   bands (ev):

   -85.1320 -45.6797 -45.5823 -45.5785  11.4213  15.1457  15.8746  16.0680
    16.9440  17.2191  31.5854  39.6998  39.8723

          k =-0.3000 0.5000-0.3000 (   803 PWs)   bands (ev):

   -85.1227 -45.7370 -45.5903 -45.5898  12.7995  15.4065  15.6918  15.9498
    17.5046  17.7071  27.1033  38.9110  39.4432

          k = 0.6000-0.4000 0.6000 (   806 PWs)   bands (ev):

   -85.1177 -45.7681 -45.5997 -45.5918  13.3047  15.4917  15.8452  16.2216
    17.6042  18.8312  23.9435  37.9024  40.0002

          k = 0.5000-0.3000 0.5000 (   806 PWs)   bands (ev):

   -85.1188 -45.7611 -45.6026 -45.5868  13.2309  15.5475  15.8467  16.0734
    17.4092  18.5759  24.7412  37.1909  40.9961

          k = 0.4000-0.2000 0.4000 (   808 PWs)   bands (ev):

   -85.1256 -45.7190 -45.5975 -45.5774  12.4241  15.3254  15.7335  15.9645
    17.0000  17.7585  28.5229  37.0471  42.1267

          k = 0.3000-0.1000 0.3000 (   814 PWs)   bands (ev):

   -85.1356 -45.6585 -45.5864 -45.5667  10.9086  15.2300  15.9140  16.0883
    16.6238  17.2373  33.2247  37.5001  43.8523

          k = 0.2000 0.0000 0.2000 (   821 PWs)   bands (ev):

   -85.1449 -45.6034 -45.5717 -45.5597   9.6258  15.4478  15.9269  15.9429
    16.6495  16.9416  37.8990  38.9331  44.2581

          k = 0.0000 0.4000 0.0000 (   829 PWs)   bands (ev):

   -85.1376 -45.6299 -45.5841 -45.5841  10.5779  15.0475  16.2910  16.3008
    16.3008  17.0992  38.5720  38.5720  39.0072

          k =-0.1000 0.5000-0.1000 (   822 PWs)   bands (ev):

   -85.1293 -45.6735 -45.5961 -45.5957  11.7306  14.7933  15.9450  16.4718
    16.8998  17.2811  33.8808  37.2154  37.9620

          k =-0.2000 0.6000-0.2000 (   810 PWs)   bands (ev):

   -85.1206 -45.7192 -45.6124 -45.6037  13.0352  14.7189  15.6435  16.4119
    17.5480  18.0120  29.1776  35.9183  36.6938

          k = 0.7000-0.3000 0.7000 (   806 PWs)   bands (ev):

   -85.1149 -45.7476 -45.6303 -45.6045  13.7524  14.8706  15.6225  16.2847
    17.6306  19.8617  25.2075  34.1106  37.1112

          k = 0.6000-0.2000 0.6000 (   813 PWs)   bands (ev):

   -85.1142 -45.7486 -45.6423 -45.5982  13.8844  15.0169  15.6191  16.2136
    17.4090  20.6064  24.2911  32.8683  38.4800

          k = 0.5000-0.1000 0.5000 (   803 PWs)   bands (ev):

   -85.1188 -45.7242 -45.6389 -45.5866  13.4965  15.1334  15.3435  16.2517
    16.9646  18.9831  27.8021  32.3363  40.6717

          k = 0.4000 0.0000 0.4000 (   813 PWs)   bands (ev):

   -85.1270 -45.6903 -45.6180 -45.5748  12.2375  15.0333  15.6789  16.3791
    16.4915  17.9204  32.0043  32.8557  42.9138

          k = 0.0000 0.6000 0.0000 (   821 PWs)   bands (ev):

   -85.1234 -45.6952 -45.6095 -45.6095  12.4206  14.4746  16.3281  16.9157
    16.9157  17.3271  35.1216  35.4379  35.4379

          k =-0.1000 0.7000-0.1000 (   803 PWs)   bands (ev):

   -85.1164 -45.7242 -45.6253 -45.6188  13.1752  14.2931  16.3048  17.0062
    17.5563  18.0436  31.6622  32.7325  34.5483

          k = 0.8000-0.2000 0.8000 (   805 PWs)   bands (ev):

   -85.1114 -45.7382 -45.6517 -45.6205  13.7575  14.3175  16.0094  16.8822
    17.6671  20.3047  27.4904  30.6241  34.6990

          k = 0.7000-0.1000 0.7000 (   808 PWs)   bands (ev):

   -85.1100 -45.7280 -45.6808 -45.6137  14.2056  14.4603  15.6414  16.7304
    17.4680  22.9295  24.2985  29.2130  35.8965

          k = 0.6000-0.0000 0.6000 (   804 PWs)   bands (ev):

   -85.1128 -45.7157 -45.6828 -45.6005  14.2817  14.8116  15.2073  16.5523
    17.1287  20.8755  26.8011  29.0153  37.9696

          k = 0.0000 0.8000 0.0000 (   805 PWs)   bands (ev):

   -85.1118 -45.7457 -45.6301 -45.6301  13.2309  14.0335  17.5141  17.5147
    17.5147  18.1635  29.9347  33.2561  33.2561

          k = 0.9000-0.1000 0.9000 (   798 PWs)   bands (ev):

   -85.1085 -45.7548 -45.6444 -45.6329  13.4130  13.9944  17.0965  17.4100
    17.7146  20.2679  28.0110  30.4823  33.0515

          k = 0.8000 0.0000 0.8000 (   798 PWs)   bands (ev):

   -85.1078 -45.7410 -45.6705 -45.6269  13.7754  14.1773  16.3433  17.1819
    17.6047  22.5511  26.5988  27.6233  33.9934

          k = 0.0000-1.0000 0.0000 (   790 PWs)   bands (ev):

   -85.1073 -45.7644 -45.6376 -45.6376  13.2719  13.8700  17.5867  17.7767
    17.7767  20.0738  27.0477  32.4554  32.4554

          k =-0.2000 0.4000 0.0000 (   816 PWs)   bands (ev):

   -85.1346 -45.6534 -45.5933 -45.5741  11.0275  15.0678  15.9276  16.3175
    16.5456  17.2646  35.0986  35.7704  41.7070

          k =-0.3000 0.5000-0.1000 (   811 PWs)   bands (ev):

   -85.1253 -45.7011 -45.6122 -45.5841  12.4593  14.9412  15.6296  16.3253
    16.9224  17.8739  30.4982  34.8319  39.3746

          k = 0.6000-0.4000 0.8000 (   805 PWs)   bands (ev):

   -85.1177 -45.7414 -45.6233 -45.5943  13.5035  15.1324  15.4929  16.1861
    17.3787  19.0238  26.2304  34.8334  37.3647

          k = 0.5000-0.3000 0.7000 (   810 PWs)   bands (ev):

   -85.1149 -45.7575 -45.6269 -45.5989  13.7333  15.1184  15.7652  16.1100
    17.5332  20.3378  23.7907  35.2198  36.2821

          k =-0.2000 0.6000 0.0000 (   810 PWs)   bands (ev):

   -85.1217 -45.7036 -45.6200 -45.6023  12.7885  14.5771  15.7548  16.9159
    16.9772  17.8782  32.6878  33.2346  35.8487

          k = 0.7000-0.3000 0.9000 (   802 PWs)   bands (ev):

   -85.1148 -45.7280 -45.6421 -45.6114  13.7211  14.5579  15.5042  16.7736
    17.4273  19.3512  28.4470  32.7058  33.6617

          k = 0.6000-0.2000 0.8000 (   800 PWs)   bands (ev):

   -85.1113 -45.7362 -45.6607 -45.6138  14.1991  14.6053  15.4359  16.5847
    17.5447  21.7124  24.7439  31.6457  33.6231

          k = 0.5000-0.1000 0.7000 (   806 PWs)   bands (ev):

   -85.1124 -45.7283 -45.6673 -45.6070  14.2708  14.7547  15.2174  16.5413
    17.3379  21.0464  25.8097  30.6244  34.9851

          k = 0.4000 0.0000 0.6000 (   813 PWs)   bands (ev):

   -85.1178 -45.7162 -45.6484 -45.5950  13.6516  14.8586  15.2244  16.6099
    16.9497  19.0884  29.4898  30.7299  36.9725

          k = 0.8000-0.2000 1.0000 (   797 PWs)   bands (ev):

   -85.1113 -45.7395 -45.6416 -45.6280  13.5297  14.1906  16.3276  17.3322
    17.5131  19.5853  30.1846  30.9300  31.7374

          k = 0.7000-0.1000 0.9000 (   796 PWs)   bands (ev):

   -85.1084 -45.7358 -45.6670 -45.6300  13.8874  14.3122  15.9562  17.0614
    17.6669  22.1044  27.1905  28.6013  31.8302

          k = 0.6000 0.0000 0.8000 (   803 PWs)   bands (ev):

   -85.1089 -45.7105 -45.6990 -45.6213  14.3021  14.5092  15.4390  16.7996
    17.5194  23.7619  24.8376  28.0957  33.0891

          k =-0.2000-1.0000 0.0000 (   794 PWs)   bands (ev):

   -85.1073 -45.7526 -45.6498 -45.6384  13.5374  14.0458  16.7728  17.3581
    17.7772  21.5103  27.1717  30.2622  31.0347

          k = 0.6000-0.2000 1.0000 (   804 PWs)   bands (ev):

   -85.1102 -45.7237 -45.6724 -45.6237  14.1796  14.6647  15.2133  16.8724
    17.5092  21.4922  27.7160  29.3873  31.3978

          k = 0.5000-0.1000 0.9000 (   800 PWs)   bands (ev):

   -85.1084 -45.7130 -45.6908 -45.6300  14.3024  14.8005  15.0917  16.7478
    17.6521  24.0676  24.8936  29.4634  30.1486

          k =-0.4000-1.0000 0.0000 (   792 PWs)   bands (ev):

   -85.1073 -45.7206 -45.6814 -45.6396  14.0761  14.5845  15.5052  16.8735
    17.7780  24.0587  27.0438  27.5887  29.1732

     the Fermi energy is    17.6191 ev

!    total energy              =    -339.39316887 Ry
     Harris-Foulkes estimate   =    -339.39316888 Ry
     estimated scf accuracy    <          8.0E-10 Ry

     The total energy is the sum of the following terms:

     one-electron contribution =    -186.64825299 Ry
     hartree contribution      =     104.56422385 Ry
     xc contribution           =     -33.92422553 Ry
     ewald contribution        =    -223.38275369 Ry
     smearing contrib. (-TS)   =      -0.00216052 Ry

     convergence has been achieved in   7 iterations

     Forces acting on atoms (cartesian axes, Ry/au):

     atom    1 type  1   force =     0.00000000    0.00000000    0.00000000

     Total force =     0.000000     Total SCF correction =     0.000000


     Computing stress (Cartesian axis) and pressure

          total   stress  (Ry/bohr**3)                   (kbar)     P= -160.47
  -0.00109088   0.00000000   0.00000000       -160.47      0.00      0.00
   0.00000000  -0.00109088  -0.00000000          0.00   -160.47     -0.00
   0.00000000  -0.00000000  -0.00109088          0.00     -0.00   -160.47


     Writing output data file Ni.save/

     init_run     :      0.43s CPU      0.45s WALL (       1 calls)
     electrons    :      4.41s CPU      4.64s WALL (       1 calls)
     forces       :      0.07s CPU      0.07s WALL (       1 calls)
     stress       :      0.23s CPU      0.23s WALL (       1 calls)

     Called by init_run:
     wfcinit      :      0.24s CPU      0.25s WALL (       1 calls)
     potinit      :      0.01s CPU      0.01s WALL (       1 calls)
     hinit0       :      0.17s CPU      0.17s WALL (       1 calls)

     Called by electrons:
     c_bands      :      3.66s CPU      3.85s WALL (       8 calls)
     sum_band     :      0.67s CPU      0.71s WALL (       8 calls)
     v_of_rho     :      0.03s CPU      0.03s WALL (       8 calls)
     newd         :      0.06s CPU      0.06s WALL (       8 calls)
     mix_rho      :      0.00s CPU      0.00s WALL (       8 calls)

     Called by c_bands:
     init_us_2    :      0.10s CPU      0.10s WALL (     893 calls)
     cegterg      :      3.52s CPU      3.70s WALL (     376 calls)

     Called by sum_band:
     sum_band:bec :      0.00s CPU      0.00s WALL (     376 calls)
     addusdens    :      0.05s CPU      0.05s WALL (       8 calls)

     Called by *egterg:
     h_psi        :      2.65s CPU      2.79s WALL (    1278 calls)
     s_psi        :      0.08s CPU      0.09s WALL (    1278 calls)
     g_psi        :      0.01s CPU      0.01s WALL (     855 calls)
     cdiaghg      :      0.45s CPU      0.46s WALL (    1184 calls)

     Called by h_psi:
     h_psi:pot    :      2.64s CPU      2.78s WALL (    1278 calls)
     h_psi:calbec :      0.13s CPU      0.14s WALL (    1278 calls)
     vloc_psi     :      2.41s CPU      2.53s WALL (    1278 calls)
     add_vuspsi   :      0.08s CPU      0.09s WALL (    1278 calls)

     General routines
     calbec       :      0.23s CPU      0.24s WALL (    1889 calls)
     fft          :      0.02s CPU      0.03s WALL (     115 calls)
     ffts         :      0.00s CPU      0.00s WALL (       8 calls)
     fftw         :      2.74s CPU      2.88s WALL (   29808 calls)

     Parallel routines
     fft_scatt_xy :      0.21s CPU      0.22s WALL (   29931 calls)
     fft_scatt_yz :      0.84s CPU      0.88s WALL (   29931 calls)

     PWSCF        :     5.97s CPU         6.31s WALL


   This run was terminated on:  22:51:13  26Mar2024            

=------------------------------------------------------------------------------=
   JOB DONE.
=------------------------------------------------------------------------------=
