
     Program PWSCF v.6.3MaX starts on 26Mar2024 at 22:26:28 

     This program is part of the open-source Quantum ESPRESSO suite
     for quantum simulation of materials; please cite
         "P. Giannozzi et al., J. Phys.:Condens. Matter 21 395502 (2009);
         "P. Giannozzi et al., J. Phys.:Condens. Matter 29 465901 (2017);
          URL http://www.quantum-espresso.org", 
     in publications or presentations arising from this work. More details at
     http://www.quantum-espresso.org/quote

     Parallel version (MPI), running on     5 processors

     MPI processes distributed on     1 nodes
     R & G space division:  proc/nbgrp/npool/nimage =       5
     Waiting for input...
     Reading input from standard input

     Current dimensions of program PWSCF are:
     Max number of different atomic species (ntypx) = 10
     Max number of k-points (npk) =  40000
     Max angular momentum in pseudopotentials (lmaxx) =  3
               file Ni.pbesol-spn-kjpaw_psl.1.0.0.UPF: wavefunction(s)  3P 3D renormalized

     Subspace diagonalization in iterative solution of the eigenvalue problem:
     a serial algorithm will be used


     Parallelization info
     --------------------
     sticks:   dense  smooth     PW     G-vecs:    dense   smooth      PW
     Min          24      24      8                  178      178      36
     Max          25      25      9                  181      181      37
     Sum         121     121     43                  893      893     181



     bravais-lattice index     =            2
     lattice parameter (alat)  =       6.6500  a.u.
     unit-cell volume          =      73.5199 (a.u.)^3
     number of atoms/cell      =            1
     number of atomic types    =            1
     number of electrons       =        18.00
     number of Kohn-Sham states=           13
     kinetic-energy cutoff     =      20.0000  Ry
     charge density cutoff     =      80.0000  Ry
     convergence threshold     =      1.0E-08
     mixing beta               =       0.7000
     number of iterations used =            8  plain     mixing
     Exchange-correlation      = SLA PW PSX PSC ( 1  4 10  8 0 0)

     celldm(1)=   6.650000  celldm(2)=   0.000000  celldm(3)=   0.000000
     celldm(4)=   0.000000  celldm(5)=   0.000000  celldm(6)=   0.000000

     crystal axes: (cart. coord. in units of alat)
               a(1) = (  -0.500000   0.000000   0.500000 )  
               a(2) = (   0.000000   0.500000   0.500000 )  
               a(3) = (  -0.500000   0.500000   0.000000 )  

     reciprocal axes: (cart. coord. in units 2 pi/alat)
               b(1) = ( -1.000000 -1.000000  1.000000 )  
               b(2) = (  1.000000  1.000000  1.000000 )  
               b(3) = ( -1.000000  1.000000 -1.000000 )  


     PseudoPot. # 1 for Ni read from file:
     /home/lorenzo/pseudos/Ni/Ni.pbesol-spn-kjpaw_psl.1.0.0.UPF
     MD5 check sum: ef06ee83099c2673f0516457bd731f51
     Pseudo is Projector augmented-wave + core cor, Zval = 18.0
     Generated using "atomic" code by A. Dal Corso v.6.3
     Shape of augmentation charge: PSQ
     Using radial grid of 1195 points,  6 beta functions with: 
                l(1) =   0
                l(2) =   0
                l(3) =   1
                l(4) =   1
                l(5) =   2
                l(6) =   2
     Q(r) pseudized with 0 coefficients 


     atomic species   valence    mass     pseudopotential
        Ni            18.00    58.69340     Ni( 1.00)

     48 Sym. Ops., with inversion, found



   Cartesian axes

     site n.     atom                  positions (alat units)
         1           Ni  tau(   1) = (   0.0000000   0.0000000   0.0000000  )

     number of k points=     4  gaussian smearing, width (Ry)=  0.0100
                       cart. coord. in units 2pi/alat
        k(    1) = (   0.0000000   0.0000000   0.0000000), wk =   0.0740741
        k(    2) = (  -0.3333333   0.3333333  -0.3333333), wk =   0.5925926
        k(    3) = (   0.0000000   0.6666667   0.0000000), wk =   0.4444444
        k(    4) = (   0.6666667  -0.0000000   0.6666667), wk =   0.8888889

     Dense  grid:      893 G-vectors     FFT dimensions: (  15,  15,  15)

     Estimated max dynamical RAM per process >       1.47 MB

     Estimated total dynamical RAM >       7.33 MB

     Check: negative/imaginary core charge=   -0.000642    0.000000

     Initial potential from superposition of free atoms
     Check: negative starting charge=   -0.021453

     starting charge   17.99977, renormalised to   18.00000

     negative rho (up, down):  2.145E-02 0.000E+00
     Starting wfcs are   10 randomized atomic wfcs +    3 random wfcs
     Checking if some PAW data can be deallocated... 

     total cpu time spent up to now is        0.9 secs

     Self-consistent Calculation

     iteration #  1     ecut=    20.00 Ry     beta= 0.70
     Davidson diagonalization with overlap
     ethr =  1.00E-02,  avg # of iterations =  3.5

     total cpu time spent up to now is        1.1 secs

     total energy              =    -382.96781486 Ry
     Harris-Foulkes estimate   =    -407.00300407 Ry
     estimated scf accuracy    <      28.13175772 Ry

     iteration #  2     ecut=    20.00 Ry     beta= 0.70
     Davidson diagonalization with overlap
     ethr =  1.00E-02,  avg # of iterations =  3.0

     total cpu time spent up to now is        1.2 secs

     total energy              =    -392.75780109 Ry
     Harris-Foulkes estimate   =    -399.81093123 Ry
     estimated scf accuracy    <      12.76175159 Ry

     iteration #  3     ecut=    20.00 Ry     beta= 0.70
     Davidson diagonalization with overlap
     ethr =  1.00E-02,  avg # of iterations =  2.0

     total cpu time spent up to now is        1.3 secs

     total energy              =    -394.38998528 Ry
     Harris-Foulkes estimate   =    -394.47225592 Ry
     estimated scf accuracy    <       0.11954560 Ry

     iteration #  4     ecut=    20.00 Ry     beta= 0.70
     Davidson diagonalization with overlap
     ethr =  6.64E-04,  avg # of iterations =  1.2

     total cpu time spent up to now is        1.5 secs

     total energy              =    -394.40162613 Ry
     Harris-Foulkes estimate   =    -394.40291794 Ry
     estimated scf accuracy    <       0.00272319 Ry

     iteration #  5     ecut=    20.00 Ry     beta= 0.70
     Davidson diagonalization with overlap
     ethr =  1.51E-05,  avg # of iterations =  2.0

     total cpu time spent up to now is        1.6 secs

     total energy              =    -394.40182191 Ry
     Harris-Foulkes estimate   =    -394.40183540 Ry
     estimated scf accuracy    <       0.00009584 Ry

     iteration #  6     ecut=    20.00 Ry     beta= 0.70
     Davidson diagonalization with overlap
     ethr =  5.32E-07,  avg # of iterations =  2.2

     total cpu time spent up to now is        1.7 secs

     total energy              =    -394.40182777 Ry
     Harris-Foulkes estimate   =    -394.40182872 Ry
     estimated scf accuracy    <       0.00000164 Ry

     iteration #  7     ecut=    20.00 Ry     beta= 0.70
     Davidson diagonalization with overlap
     ethr =  9.11E-09,  avg # of iterations =  1.8

     total cpu time spent up to now is        1.8 secs

     End of self-consistent calculation

          k = 0.0000 0.0000 0.0000 (   113 PWs)   bands (ev):

  -128.2267 -54.3306 -54.3306 -54.3306  10.5649  18.2315  18.2315  18.2315
    18.6409  18.6409  43.9457  47.3615  47.4255

          k =-0.3333 0.3333-0.3333 (   111 PWs)   bands (ev):

  -128.0299 -55.2725 -55.2725 -49.6072  13.5605  15.0737  15.0737  20.9163
    25.8547  25.8547  28.6298  42.4617  42.4617

          k = 0.0000 0.6667 0.0000 (   113 PWs)   bands (ev):

  -128.3492 -56.1964 -56.1964 -52.4961   7.1682  10.9948  18.2878  21.5960
    26.8760  26.8760  32.7190  35.6029  35.6029

          k = 0.6667-0.0000 0.6667 (   108 PWs)   bands (ev):

  -127.9644 -53.0508 -52.4432 -50.6507  14.9297  19.9138  23.3885  23.9305
    24.4310  25.3736  27.9456  29.6523  37.9543

     the Fermi energy is    25.7072 ev

!    total energy              =    -394.40182801 Ry
     Harris-Foulkes estimate   =    -394.40182801 Ry
     estimated scf accuracy    <          4.4E-09 Ry

     total all-electron energy =     -3006.860173 Ry

     The total energy is the sum of the following terms:

     one-electron contribution =    -119.70783497 Ry
     hartree contribution      =      66.14041502 Ry
     xc contribution           =     -29.25320694 Ry
     ewald contribution        =    -223.38275379 Ry
     one-center paw contrib.   =     -88.19740802 Ry
     smearing contrib. (-TS)   =      -0.00103932 Ry

     convergence has been achieved in   7 iterations

     Forces acting on atoms (cartesian axes, Ry/au):

     atom    1 type  1   force =     0.00000000    0.00000000    0.00000000

     Total force =     0.000000     Total SCF correction =     0.000000


     Computing stress (Cartesian axis) and pressure

          total   stress  (Ry/bohr**3)                   (kbar)     P=********
  -1.01991172   0.00000000   0.00000000    -150034.17      0.00      0.00
   0.00000000  -1.01991172  -0.00000000          0.00-150034.17     -0.00
   0.00000000  -0.00000000  -1.01991172          0.00     -0.00-150034.17


     Writing output data file Ni.save/

     init_run     :      0.20s CPU      0.22s WALL (       1 calls)
     electrons    :      0.78s CPU      0.91s WALL (       1 calls)
     forces       :      0.00s CPU      0.00s WALL (       1 calls)
     stress       :      0.01s CPU      0.01s WALL (       1 calls)

     Called by init_run:
     wfcinit      :      0.00s CPU      0.00s WALL (       1 calls)
     potinit      :      0.11s CPU      0.13s WALL (       1 calls)
     hinit0       :      0.07s CPU      0.07s WALL (       1 calls)

     Called by electrons:
     c_bands      :      0.09s CPU      0.11s WALL (       7 calls)
     sum_band     :      0.02s CPU      0.03s WALL (       7 calls)
     v_of_rho     :      0.01s CPU      0.01s WALL (       8 calls)
     newd         :      0.01s CPU      0.01s WALL (       8 calls)
     PAW_pot      :      0.76s CPU      0.86s WALL (       8 calls)
     mix_rho      :      0.00s CPU      0.00s WALL (       7 calls)

     Called by c_bands:
     init_us_2    :      0.00s CPU      0.00s WALL (      68 calls)
     cegterg      :      0.09s CPU      0.11s WALL (      28 calls)

     Called by sum_band:
     sum_band:bec :      0.00s CPU      0.00s WALL (      28 calls)
     addusdens    :      0.01s CPU      0.01s WALL (       7 calls)

     Called by *egterg:
     h_psi        :      0.05s CPU      0.06s WALL (      95 calls)
     s_psi        :      0.00s CPU      0.00s WALL (      95 calls)
     g_psi        :      0.00s CPU      0.00s WALL (      63 calls)
     cdiaghg      :      0.03s CPU      0.03s WALL (      91 calls)

     Called by h_psi:
     h_psi:pot    :      0.05s CPU      0.06s WALL (      95 calls)
     h_psi:calbec :      0.00s CPU      0.00s WALL (      95 calls)
     vloc_psi     :      0.04s CPU      0.05s WALL (      95 calls)
     add_vuspsi   :      0.00s CPU      0.00s WALL (      95 calls)

     General routines
     calbec       :      0.00s CPU      0.00s WALL (     143 calls)
     fft          :      0.00s CPU      0.00s WALL (     114 calls)
     ffts         :      0.00s CPU      0.00s WALL (       7 calls)
     fftw         :      0.05s CPU      0.06s WALL (    2292 calls)

     Parallel routines
     fft_scatt_xy :      0.01s CPU      0.01s WALL (    2413 calls)
     fft_scatt_yz :      0.02s CPU      0.03s WALL (    2413 calls)

     PWSCF        :     1.72s CPU         1.91s WALL


   This run was terminated on:  22:26:30  26Mar2024            

=------------------------------------------------------------------------------=
   JOB DONE.
=------------------------------------------------------------------------------=
