
     Program PWSCF v.6.3MaX starts on 26Mar2024 at 22:27:37 

     This program is part of the open-source Quantum ESPRESSO suite
     for quantum simulation of materials; please cite
         "P. Giannozzi et al., J. Phys.:Condens. Matter 21 395502 (2009);
         "P. Giannozzi et al., J. Phys.:Condens. Matter 29 465901 (2017);
          URL http://www.quantum-espresso.org", 
     in publications or presentations arising from this work. More details at
     http://www.quantum-espresso.org/quote

     Parallel version (MPI), running on     5 processors

     MPI processes distributed on     1 nodes
     R & G space division:  proc/nbgrp/npool/nimage =       5
     Waiting for input...
     Reading input from standard input

     Current dimensions of program PWSCF are:
     Max number of different atomic species (ntypx) = 10
     Max number of k-points (npk) =  40000
     Max angular momentum in pseudopotentials (lmaxx) =  3
               file Ni.pbesol-spn-kjpaw_psl.1.0.0.UPF: wavefunction(s)  3P 3D renormalized

     Subspace diagonalization in iterative solution of the eigenvalue problem:
     a serial algorithm will be used


     Parallelization info
     --------------------
     sticks:   dense  smooth     PW     G-vecs:    dense   smooth      PW
     Min          30      30     12                  248      248      61
     Max          31      31     13                  250      250      62
     Sum         151     151     61                 1243     1243     307



     bravais-lattice index     =            2
     lattice parameter (alat)  =       6.6500  a.u.
     unit-cell volume          =      73.5199 (a.u.)^3
     number of atoms/cell      =            1
     number of atomic types    =            1
     number of electrons       =        18.00
     number of Kohn-Sham states=           13
     kinetic-energy cutoff     =      25.0000  Ry
     charge density cutoff     =     100.0000  Ry
     convergence threshold     =      1.0E-08
     mixing beta               =       0.7000
     number of iterations used =            8  plain     mixing
     Exchange-correlation      = SLA PW PSX PSC ( 1  4 10  8 0 0)

     celldm(1)=   6.650000  celldm(2)=   0.000000  celldm(3)=   0.000000
     celldm(4)=   0.000000  celldm(5)=   0.000000  celldm(6)=   0.000000

     crystal axes: (cart. coord. in units of alat)
               a(1) = (  -0.500000   0.000000   0.500000 )  
               a(2) = (   0.000000   0.500000   0.500000 )  
               a(3) = (  -0.500000   0.500000   0.000000 )  

     reciprocal axes: (cart. coord. in units 2 pi/alat)
               b(1) = ( -1.000000 -1.000000  1.000000 )  
               b(2) = (  1.000000  1.000000  1.000000 )  
               b(3) = ( -1.000000  1.000000 -1.000000 )  


     PseudoPot. # 1 for Ni read from file:
     /home/lorenzo/pseudos/Ni/Ni.pbesol-spn-kjpaw_psl.1.0.0.UPF
     MD5 check sum: ef06ee83099c2673f0516457bd731f51
     Pseudo is Projector augmented-wave + core cor, Zval = 18.0
     Generated using "atomic" code by A. Dal Corso v.6.3
     Shape of augmentation charge: PSQ
     Using radial grid of 1195 points,  6 beta functions with: 
                l(1) =   0
                l(2) =   0
                l(3) =   1
                l(4) =   1
                l(5) =   2
                l(6) =   2
     Q(r) pseudized with 0 coefficients 


     atomic species   valence    mass     pseudopotential
        Ni            18.00    58.69340     Ni( 1.00)

     48 Sym. Ops., with inversion, found



   Cartesian axes

     site n.     atom                  positions (alat units)
         1           Ni  tau(   1) = (   0.0000000   0.0000000   0.0000000  )

     number of k points=    47  gaussian smearing, width (Ry)=  0.0100
                       cart. coord. in units 2pi/alat
        k(    1) = (   0.0000000   0.0000000   0.0000000), wk =   0.0020000
        k(    2) = (  -0.1000000   0.1000000  -0.1000000), wk =   0.0160000
        k(    3) = (  -0.2000000   0.2000000  -0.2000000), wk =   0.0160000
        k(    4) = (  -0.3000000   0.3000000  -0.3000000), wk =   0.0160000
        k(    5) = (  -0.4000000   0.4000000  -0.4000000), wk =   0.0160000
        k(    6) = (   0.5000000  -0.5000000   0.5000000), wk =   0.0080000
        k(    7) = (   0.0000000   0.2000000   0.0000000), wk =   0.0120000
        k(    8) = (  -0.1000000   0.3000000  -0.1000000), wk =   0.0480000
        k(    9) = (  -0.2000000   0.4000000  -0.2000000), wk =   0.0480000
        k(   10) = (  -0.3000000   0.5000000  -0.3000000), wk =   0.0480000
        k(   11) = (   0.6000000  -0.4000000   0.6000000), wk =   0.0480000
        k(   12) = (   0.5000000  -0.3000000   0.5000000), wk =   0.0480000
        k(   13) = (   0.4000000  -0.2000000   0.4000000), wk =   0.0480000
        k(   14) = (   0.3000000  -0.1000000   0.3000000), wk =   0.0480000
        k(   15) = (   0.2000000   0.0000000   0.2000000), wk =   0.0240000
        k(   16) = (   0.0000000   0.4000000   0.0000000), wk =   0.0120000
        k(   17) = (  -0.1000000   0.5000000  -0.1000000), wk =   0.0480000
        k(   18) = (  -0.2000000   0.6000000  -0.2000000), wk =   0.0480000
        k(   19) = (   0.7000000  -0.3000000   0.7000000), wk =   0.0480000
        k(   20) = (   0.6000000  -0.2000000   0.6000000), wk =   0.0480000
        k(   21) = (   0.5000000  -0.1000000   0.5000000), wk =   0.0480000
        k(   22) = (   0.4000000   0.0000000   0.4000000), wk =   0.0240000
        k(   23) = (   0.0000000   0.6000000   0.0000000), wk =   0.0120000
        k(   24) = (  -0.1000000   0.7000000  -0.1000000), wk =   0.0480000
        k(   25) = (   0.8000000  -0.2000000   0.8000000), wk =   0.0480000
        k(   26) = (   0.7000000  -0.1000000   0.7000000), wk =   0.0480000
        k(   27) = (   0.6000000  -0.0000000   0.6000000), wk =   0.0240000
        k(   28) = (   0.0000000   0.8000000   0.0000000), wk =   0.0120000
        k(   29) = (   0.9000000  -0.1000000   0.9000000), wk =   0.0480000
        k(   30) = (   0.8000000   0.0000000   0.8000000), wk =   0.0240000
        k(   31) = (   0.0000000  -1.0000000   0.0000000), wk =   0.0060000
        k(   32) = (  -0.2000000   0.4000000   0.0000000), wk =   0.0480000
        k(   33) = (  -0.3000000   0.5000000  -0.1000000), wk =   0.0960000
        k(   34) = (   0.6000000  -0.4000000   0.8000000), wk =   0.0960000
        k(   35) = (   0.5000000  -0.3000000   0.7000000), wk =   0.0480000
        k(   36) = (  -0.2000000   0.6000000   0.0000000), wk =   0.0480000
        k(   37) = (   0.7000000  -0.3000000   0.9000000), wk =   0.0960000
        k(   38) = (   0.6000000  -0.2000000   0.8000000), wk =   0.0960000
        k(   39) = (   0.5000000  -0.1000000   0.7000000), wk =   0.0960000
        k(   40) = (   0.4000000   0.0000000   0.6000000), wk =   0.0480000
        k(   41) = (   0.8000000  -0.2000000   1.0000000), wk =   0.0480000
        k(   42) = (   0.7000000  -0.1000000   0.9000000), wk =   0.0960000
        k(   43) = (   0.6000000   0.0000000   0.8000000), wk =   0.0480000
        k(   44) = (  -0.2000000  -1.0000000   0.0000000), wk =   0.0240000
        k(   45) = (   0.6000000  -0.2000000   1.0000000), wk =   0.0480000
        k(   46) = (   0.5000000  -0.1000000   0.9000000), wk =   0.0480000
        k(   47) = (  -0.4000000  -1.0000000   0.0000000), wk =   0.0240000

     Dense  grid:     1243 G-vectors     FFT dimensions: (  15,  15,  15)

     Estimated max dynamical RAM per process >       2.06 MB

     Estimated total dynamical RAM >      10.32 MB

     Check: negative/imaginary core charge=   -0.000245    0.000000

     Initial potential from superposition of free atoms
     Check: negative starting charge=   -0.002896

     starting charge   17.99977, renormalised to   18.00000

     negative rho (up, down):  2.896E-03 0.000E+00
     Starting wfcs are   10 randomized atomic wfcs +    3 random wfcs
     Checking if some PAW data can be deallocated... 

     total cpu time spent up to now is        1.0 secs

     Self-consistent Calculation

     iteration #  1     ecut=    25.00 Ry     beta= 0.70
     Davidson diagonalization with overlap
     ethr =  1.00E-02,  avg # of iterations =  4.0

     total cpu time spent up to now is        1.5 secs

     total energy              =    -411.03329297 Ry
     Harris-Foulkes estimate   =    -416.96096133 Ry
     estimated scf accuracy    <       7.04941120 Ry

     iteration #  2     ecut=    25.00 Ry     beta= 0.70
     Davidson diagonalization with overlap
     ethr =  1.00E-02,  avg # of iterations =  2.0

     total cpu time spent up to now is        1.9 secs

     total energy              =    -413.42439693 Ry
     Harris-Foulkes estimate   =    -418.19233282 Ry
     estimated scf accuracy    <       9.91457108 Ry

     iteration #  3     ecut=    25.00 Ry     beta= 0.70
     Davidson diagonalization with overlap
     ethr =  1.00E-02,  avg # of iterations =  2.0

     negative rho (up, down):  7.377E-04 0.000E+00

     total cpu time spent up to now is        2.2 secs

     total energy              =    -414.60608737 Ry
     Harris-Foulkes estimate   =    -414.69515560 Ry
     estimated scf accuracy    <       0.14335196 Ry

     iteration #  4     ecut=    25.00 Ry     beta= 0.70
     Davidson diagonalization with overlap
     ethr =  7.96E-04,  avg # of iterations =  2.0

     negative rho (up, down):  2.321E-04 0.000E+00

     total cpu time spent up to now is        2.6 secs

     total energy              =    -414.64378539 Ry
     Harris-Foulkes estimate   =    -414.70352327 Ry
     estimated scf accuracy    <       0.22118595 Ry

     iteration #  5     ecut=    25.00 Ry     beta= 0.70
     Davidson diagonalization with overlap
     ethr =  7.96E-04,  avg # of iterations =  1.1

     negative rho (up, down):  1.559E-05 0.000E+00

     total cpu time spent up to now is        2.8 secs

     total energy              =    -414.65245348 Ry
     Harris-Foulkes estimate   =    -414.65991495 Ry
     estimated scf accuracy    <       0.02259729 Ry

     iteration #  6     ecut=    25.00 Ry     beta= 0.70
     Davidson diagonalization with overlap
     ethr =  1.26E-04,  avg # of iterations =  1.1

     total cpu time spent up to now is        3.1 secs

     total energy              =    -414.65482226 Ry
     Harris-Foulkes estimate   =    -414.65495767 Ry
     estimated scf accuracy    <       0.00053037 Ry

     iteration #  7     ecut=    25.00 Ry     beta= 0.70
     Davidson diagonalization with overlap
     ethr =  2.95E-06,  avg # of iterations =  1.0

     total cpu time spent up to now is        3.3 secs

     total energy              =    -414.65482503 Ry
     Harris-Foulkes estimate   =    -414.65485534 Ry
     estimated scf accuracy    <       0.00008202 Ry

     iteration #  8     ecut=    25.00 Ry     beta= 0.70
     Davidson diagonalization with overlap
     ethr =  4.56E-07,  avg # of iterations =  1.2

     total cpu time spent up to now is        3.6 secs

     total energy              =    -414.65483645 Ry
     Harris-Foulkes estimate   =    -414.65483654 Ry
     estimated scf accuracy    <       0.00000034 Ry

     iteration #  9     ecut=    25.00 Ry     beta= 0.70
     Davidson diagonalization with overlap
     ethr =  1.90E-09,  avg # of iterations =  2.0

     total cpu time spent up to now is        3.9 secs

     total energy              =    -414.65483648 Ry
     Harris-Foulkes estimate   =    -414.65483650 Ry
     estimated scf accuracy    <       0.00000005 Ry

     iteration # 10     ecut=    25.00 Ry     beta= 0.70
     Davidson diagonalization with overlap
     ethr =  2.98E-10,  avg # of iterations =  1.4

     total cpu time spent up to now is        4.2 secs

     End of self-consistent calculation

          k = 0.0000 0.0000 0.0000 (   169 PWs)   bands (ev):

   -99.0485 -48.9626 -48.9626 -48.9626   9.8745  13.1879  13.1879  14.5772
    14.5772  14.5772  42.5635  46.1063  46.1063

          k =-0.1000 0.1000-0.1000 (   159 PWs)   bands (ev):

   -98.7822 -47.1288 -47.1288 -45.5711  10.3451  15.2997  15.2997  16.3789
    17.7285  17.7285  40.0690  43.8459  44.8206

          k =-0.2000 0.2000-0.2000 (   153 PWs)   bands (ev):

   -98.6581 -45.4429 -45.4429 -44.7462  11.5162  16.7279  17.3371  17.3371
    19.3727  19.3727  35.6314  42.9983  43.9746

          k =-0.3000 0.3000-0.3000 (   153 PWs)   bands (ev):

   -98.6449 -45.8058 -45.8058 -43.9803  13.2152  16.9059  16.9059  18.2483
    19.0620  19.0620  31.4267  42.1364  43.2755

          k =-0.4000 0.4000-0.4000 (   153 PWs)   bands (ev):

   -98.6093 -45.7028 -45.7028 -43.7614  15.2584  16.9854  16.9854  17.5474
    19.4535  19.4535  28.3742  41.3931  43.2747

          k = 0.5000-0.5000 0.5000 (   156 PWs)   bands (ev):

   -98.6641 -47.1360 -45.0333 -45.0333  12.8302  17.5731  17.5731  18.3113
    19.7697  19.7697  22.7267  41.0438  43.5122

          k = 0.0000 0.2000 0.0000 (   161 PWs)   bands (ev):

   -98.8329 -47.9189 -47.9189 -45.4827  10.4128  13.3260  15.9819  16.7014
    16.9136  16.9136  40.9259  42.6307  42.6307

          k =-0.1000 0.3000-0.1000 (   158 PWs)   bands (ev):

   -98.7632 -47.3651 -46.6203 -45.1996  11.2855  15.3236  15.7897  16.5859
    17.5047  18.4259  37.2321  41.2129  41.3840

          k =-0.2000 0.4000-0.2000 (   153 PWs)   bands (ev):

   -98.6329 -46.1693 -45.5652 -43.6965  12.8485  16.2703  16.9883  18.7124
    18.9645  19.4775  33.0990  40.5428  40.6423

          k =-0.3000 0.5000-0.3000 (   151 PWs)   bands (ev):

   -98.5661 -45.2859 -45.2158 -43.2177  14.8938  16.9076  17.8670  17.9057
    20.2190  20.4690  29.4567  39.6423  40.5017

          k = 0.6000-0.4000 0.6000 (   156 PWs)   bands (ev):

   -98.6525 -46.6316 -45.4015 -44.9405  13.3634  17.4457  17.5345  17.5897
    19.7265  20.0065  23.8578  38.7253  40.9835

          k = 0.5000-0.3000 0.5000 (   156 PWs)   bands (ev):

   -98.6584 -46.0881 -45.9453 -44.9844  14.2471  17.1241  17.3267  17.5456
    17.6094  20.1247  25.9693  38.0866  42.3138

          k = 0.4000-0.2000 0.4000 (   152 PWs)   bands (ev):

   -98.5969 -45.7079 -45.6396 -43.2430  14.1384  16.5235  17.3745  18.0858
    19.1325  20.8926  30.4734  37.8362  43.4429

          k = 0.3000-0.1000 0.3000 (   155 PWs)   bands (ev):

   -98.6830 -46.3726 -46.3723 -44.1837  12.2371  15.9814  16.1744  17.9135
    18.5047  19.1274  34.3629  38.2902  44.9506

          k = 0.2000 0.0000 0.2000 (   159 PWs)   bands (ev):

   -98.7897 -48.1851 -46.5266 -45.2186  10.8947  14.9412  15.3257  16.3955
    16.8086  18.8016  38.2502  39.8796  45.3740

          k = 0.0000 0.4000 0.0000 (   161 PWs)   bands (ev):

   -98.8120 -47.6683 -47.6683 -45.6361  11.7494  13.7308  15.5969  16.3533
    17.3550  17.3550  38.8405  39.4419  39.4419

          k =-0.1000 0.5000-0.1000 (   156 PWs)   bands (ev):

   -98.6768 -46.5299 -46.4214 -44.2905  13.0517  15.7230  16.0868  17.9479
    18.3284  19.1253  34.7676  38.1800  38.3346

          k =-0.2000 0.6000-0.2000 (   154 PWs)   bands (ev):

   -98.6130 -45.9632 -45.1481 -44.4419  14.3289  16.6457  17.1245  18.6272
    18.7572  19.5560  30.8834  36.5702  37.8516

          k = 0.7000-0.3000 0.7000 (   157 PWs)   bands (ev):

   -98.6528 -46.8221 -45.3898 -45.0935  14.0537  16.4018  17.7551  17.7766
    18.7428  19.6403  25.9153  35.1316  38.3827

          k = 0.6000-0.2000 0.6000 (   161 PWs)   bands (ev):

   -98.7327 -48.2090 -46.0734 -45.7429  13.5668  15.4027  16.6941  16.8634
    17.6588  20.2513  24.4317  33.7012  39.4777

          k = 0.5000-0.1000 0.5000 (   155 PWs)   bands (ev):

   -98.6260 -45.8328 -45.7142 -44.5814  14.6504  17.1656  17.6977  17.9330
    18.2111  18.7818  29.5751  33.5132  41.5349

          k = 0.4000 0.0000 0.4000 (   154 PWs)   bands (ev):

   -98.6359 -46.3373 -46.1774 -43.4494  13.5686  16.0259  16.2949  18.1097
    19.2309  19.6813  33.5224  34.0632  44.1826

          k = 0.0000 0.6000 0.0000 (   153 PWs)   bands (ev):

   -98.5873 -45.3770 -45.3770 -44.0198  14.1856  16.3588  18.3814  18.9123
    19.0509  19.0509  36.1991  36.4930  36.4930

          k =-0.1000 0.7000-0.1000 (   155 PWs)   bands (ev):

   -98.5972 -45.6772 -45.6307 -44.4584  14.8700  16.4978  16.9854  18.3203
    19.3281  19.5071  32.8519  33.9445  35.7132

          k = 0.8000-0.2000 0.8000 (   158 PWs)   bands (ev):

   -98.6454 -46.4490 -45.7267 -45.4810  13.7609  16.2099  16.8065  17.8341
    19.6924  20.0733  28.7655  31.5341  35.7797

          k = 0.7000-0.1000 0.7000 (   154 PWs)   bands (ev):

   -98.5562 -45.8181 -44.6823 -44.2366  15.4359  16.6461  17.9717  18.5863
    19.0557  23.8793  25.7608  30.8214  37.4174

          k = 0.6000-0.0000 0.6000 (   162 PWs)   bands (ev):

   -98.7469 -46.9624 -46.7942 -46.7504  12.9778  15.2624  15.7619  17.1587
    17.6621  20.1029  28.3424  29.7709  39.0748

          k = 0.0000 0.8000 0.0000 (   162 PWs)   bands (ev):

   -98.7282 -47.9217 -46.1970 -46.1970  14.0012  15.8201  16.3228  16.3228
    17.9412  18.5518  29.8034  34.2425  34.2425

          k = 0.9000-0.1000 0.9000 (   154 PWs)   bands (ev):

   -98.5398 -46.2445 -44.2409 -44.1672  15.0303  16.8991  18.5591  18.9381
    20.3282  21.4612  28.3792  31.9197  34.1387

          k = 0.8000 0.0000 0.8000 (   156 PWs)   bands (ev):

   -98.5687 -46.2503 -45.1728 -44.5236  15.5707  16.8262  17.1942  17.5419
    19.7239  22.8756  27.6082  29.0449  35.0100

          k = 0.0000-1.0000 0.0000 (   150 PWs)   bands (ev):

   -98.4743 -44.0517 -44.0517 -43.9168  16.0866  17.8143  19.5475  20.9217
    20.9217  21.3205  28.2605  33.7099  33.7099

          k =-0.2000 0.4000 0.0000 (   154 PWs)   bands (ev):

   -98.6532 -46.1262 -45.5775 -44.3802  12.3707  16.6169  16.6621  18.0986
    18.5410  19.3298  35.8513  36.7632  42.5836

          k =-0.3000 0.5000-0.1000 (   153 PWs)   bands (ev):

   -98.6042 -46.2785 -45.6945 -43.1421  13.9008  16.0747  16.7433  18.6155
    19.1427  20.3766  32.2856  35.7560  40.5862

          k = 0.6000-0.4000 0.8000 (   157 PWs)   bands (ev):

   -98.6736 -46.2463 -45.9627 -45.3824  13.9250  16.0438  17.3303  17.4285
    18.5369  19.4210  27.6005  35.5862  38.5008

          k = 0.5000-0.3000 0.7000 (   158 PWs)   bands (ev):

   -98.6721 -47.3972 -45.5276 -45.1057  13.6220  16.4487  17.2383  17.3455
    18.8895  20.9477  23.5967  36.0608  37.7638

          k =-0.2000 0.6000 0.0000 (   150 PWs)   bands (ev):

   -98.5207 -45.0694 -44.4184 -43.0865  14.6519  17.0957  18.3132  19.2667
    19.5166  21.5270  33.7658  34.6142  37.5394

          k = 0.7000-0.3000 0.9000 (   153 PWs)   bands (ev):

   -98.5662 -45.4640 -44.7608 -44.2920  15.0622  17.0826  17.5263  18.9758
    19.1791  20.5758  30.3359  33.7774  35.2936

          k = 0.6000-0.2000 0.8000 (   153 PWs)   bands (ev):

   -98.5407 -45.7586 -44.9083 -43.5547  15.4224  16.7952  17.7039  18.5195
    20.1943  22.6905  26.5562  32.6904  35.2476

          k = 0.5000-0.1000 0.7000 (   156 PWs)   bands (ev):

   -98.6158 -46.3815 -45.2872 -44.7814  14.5420  16.9579  17.4497  17.8929
    18.4128  21.1594  27.3556  31.8209  36.3263

          k = 0.4000 0.0000 0.6000 (   156 PWs)   bands (ev):

   -98.6421 -45.7323 -45.6381 -45.3756  14.2812  16.5417  17.2492  17.8414
    18.7044  18.8275  31.3947  31.7302  38.1215

          k = 0.8000-0.2000 1.0000 (   154 PWs)   bands (ev):

   -98.5608 -45.8352 -44.7124 -44.3425  14.6282  17.1543  17.7374  19.2857
    19.5690  20.7236  31.1038  32.1223  33.3215

          k = 0.7000-0.1000 0.9000 (   156 PWs)   bands (ev):

   -98.5936 -46.5147 -44.9057 -44.6976  15.5570  16.2357  16.6781  18.4086
    18.9842  22.9150  28.4623  29.9002  33.1167

          k = 0.6000 0.0000 0.8000 (   153 PWs)   bands (ev):

   -98.5386 -45.1054 -44.6438 -44.2966  16.2231  17.0231  17.4052  18.2137
    19.1344  25.4903  27.3028  29.4990  34.3298

          k =-0.2000-1.0000 0.0000 (   152 PWs)   bands (ev):

   -98.4915 -44.7655 -44.3011 -44.0690  16.5775  17.0900  17.4100  20.1726
    20.9891  22.2412  28.6325  31.5480  32.5435

          k = 0.6000-0.2000 1.0000 (   156 PWs)   bands (ev):

   -98.6193 -46.5668 -45.1252 -44.8039  14.8368  16.9050  16.9159  17.8695
    18.8796  21.6523  29.1105  30.6730  32.7471

          k = 0.5000-0.1000 0.9000 (   154 PWs)   bands (ev):

   -98.5680 -45.4422 -44.8698 -44.6212  16.7410  16.8055  17.3945  17.6703
    17.9399  26.0998  26.5896  30.5720  31.8534

          k =-0.4000-1.0000 0.0000 (   156 PWs)   bands (ev):

   -98.6097 -45.7921 -45.3802 -45.0847  16.0650  16.4354  16.9988  17.2886
    17.9044  26.1354  28.0899  28.7145  30.7618

     the Fermi energy is    19.4356 ev

!    total energy              =    -414.65483648 Ry
     Harris-Foulkes estimate   =    -414.65483649 Ry
     estimated scf accuracy    <          1.1E-09 Ry

     total all-electron energy =     -3027.113181 Ry

     The total energy is the sum of the following terms:

     one-electron contribution =    -162.51598225 Ry
     hartree contribution      =      92.19106213 Ry
     xc contribution           =     -32.69243192 Ry
     ewald contribution        =    -223.38275373 Ry
     one-center paw contrib.   =     -88.25359862 Ry
     smearing contrib. (-TS)   =      -0.00113210 Ry

     convergence has been achieved in  10 iterations

     Forces acting on atoms (cartesian axes, Ry/au):

     atom    1 type  1   force =     0.00000000    0.00000000    0.00000000

     Total force =     0.000000     Total SCF correction =     0.000000


     Computing stress (Cartesian axis) and pressure

          total   stress  (Ry/bohr**3)                   (kbar)     P=********
  -0.54399382  -0.00000000  -0.00000000     -80024.24     -0.00     -0.00
  -0.00000000  -0.54399382   0.00000000         -0.00 -80024.24      0.00
  -0.00000000   0.00000000  -0.54399382         -0.00      0.00 -80024.24


     Writing output data file Ni.save/

     init_run     :      0.24s CPU      0.27s WALL (       1 calls)
     electrons    :      2.77s CPU      3.16s WALL (       1 calls)
     forces       :      0.02s CPU      0.02s WALL (       1 calls)
     stress       :      0.04s CPU      0.04s WALL (       1 calls)

     Called by init_run:
     wfcinit      :      0.04s CPU      0.05s WALL (       1 calls)
     potinit      :      0.10s CPU      0.11s WALL (       1 calls)
     hinit0       :      0.09s CPU      0.09s WALL (       1 calls)

     Called by electrons:
     c_bands      :      1.56s CPU      1.77s WALL (      10 calls)
     sum_band     :      0.22s CPU      0.25s WALL (      10 calls)
     v_of_rho     :      0.01s CPU      0.01s WALL (      11 calls)
     newd         :      0.02s CPU      0.02s WALL (      11 calls)
     PAW_pot      :      1.05s CPU      1.21s WALL (      11 calls)
     mix_rho      :      0.00s CPU      0.00s WALL (      10 calls)

     Called by c_bands:
     init_us_2    :      0.03s CPU      0.03s WALL (    1081 calls)
     cegterg      :      1.51s CPU      1.71s WALL (     470 calls)

     Called by sum_band:
     sum_band:bec :      0.00s CPU      0.01s WALL (     470 calls)
     addusdens    :      0.01s CPU      0.01s WALL (      10 calls)

     Called by *egterg:
     h_psi        :      0.89s CPU      1.02s WALL (    1355 calls)
     s_psi        :      0.03s CPU      0.03s WALL (    1355 calls)
     g_psi        :      0.00s CPU      0.00s WALL (     838 calls)
     cdiaghg      :      0.41s CPU      0.45s WALL (    1308 calls)

     Called by h_psi:
     h_psi:pot    :      0.88s CPU      1.01s WALL (    1355 calls)
     h_psi:calbec :      0.05s CPU      0.06s WALL (    1355 calls)
     vloc_psi     :      0.79s CPU      0.91s WALL (    1355 calls)
     add_vuspsi   :      0.03s CPU      0.03s WALL (    1355 calls)

     General routines
     calbec       :      0.08s CPU      0.09s WALL (    2060 calls)
     fft          :      0.01s CPU      0.01s WALL (     147 calls)
     ffts         :      0.00s CPU      0.00s WALL (      10 calls)
     fftw         :      0.87s CPU      1.00s WALL (   35838 calls)

     Parallel routines
     fft_scatt_xy :      0.09s CPU      0.10s WALL (   35995 calls)
     fft_scatt_yz :      0.41s CPU      0.46s WALL (   35995 calls)

     PWSCF        :     3.86s CPU         4.34s WALL


   This run was terminated on:  22:27:41  26Mar2024            

=------------------------------------------------------------------------------=
   JOB DONE.
=------------------------------------------------------------------------------=
