
     Program PWSCF v.6.3MaX starts on 26Mar2024 at 22:21: 3 

     This program is part of the open-source Quantum ESPRESSO suite
     for quantum simulation of materials; please cite
         "P. Giannozzi et al., J. Phys.:Condens. Matter 21 395502 (2009);
         "P. Giannozzi et al., J. Phys.:Condens. Matter 29 465901 (2017);
          URL http://www.quantum-espresso.org", 
     in publications or presentations arising from this work. More details at
     http://www.quantum-espresso.org/quote

     Parallel version (MPI), running on     5 processors

     MPI processes distributed on     1 nodes
     R & G space division:  proc/nbgrp/npool/nimage =       5
     Waiting for input...
     Reading input from standard input

     Current dimensions of program PWSCF are:
     Max number of different atomic species (ntypx) = 10
     Max number of k-points (npk) =  40000
     Max angular momentum in pseudopotentials (lmaxx) =  3
               file Ni.pbesol-spn-kjpaw_psl.1.0.0.UPF: wavefunction(s)  3P 3D renormalized

     Subspace diagonalization in iterative solution of the eigenvalue problem:
     a serial algorithm will be used


     Parallelization info
     --------------------
     sticks:   dense  smooth     PW     G-vecs:    dense   smooth      PW
     Min         119     119     39                 1967     1967     361
     Max         119     119     40                 1969     1969     363
     Sum         595     595    199                 9841     9841    1807



     bravais-lattice index     =            2
     lattice parameter (alat)  =       6.6500  a.u.
     unit-cell volume          =      73.5199 (a.u.)^3
     number of atoms/cell      =            1
     number of atomic types    =            1
     number of electrons       =        18.00
     number of Kohn-Sham states=           13
     kinetic-energy cutoff     =     100.0000  Ry
     charge density cutoff     =     400.0000  Ry
     convergence threshold     =      1.0E-08
     mixing beta               =       0.7000
     number of iterations used =            8  plain     mixing
     Exchange-correlation      = SLA PW PSX PSC ( 1  4 10  8 0 0)

     celldm(1)=   6.650000  celldm(2)=   0.000000  celldm(3)=   0.000000
     celldm(4)=   0.000000  celldm(5)=   0.000000  celldm(6)=   0.000000

     crystal axes: (cart. coord. in units of alat)
               a(1) = (  -0.500000   0.000000   0.500000 )  
               a(2) = (   0.000000   0.500000   0.500000 )  
               a(3) = (  -0.500000   0.500000   0.000000 )  

     reciprocal axes: (cart. coord. in units 2 pi/alat)
               b(1) = ( -1.000000 -1.000000  1.000000 )  
               b(2) = (  1.000000  1.000000  1.000000 )  
               b(3) = ( -1.000000  1.000000 -1.000000 )  


     PseudoPot. # 1 for Ni read from file:
     /home/lorenzo/pseudos/Ni/Ni.pbesol-spn-kjpaw_psl.1.0.0.UPF
     MD5 check sum: ef06ee83099c2673f0516457bd731f51
     Pseudo is Projector augmented-wave + core cor, Zval = 18.0
     Generated using "atomic" code by A. Dal Corso v.6.3
     Shape of augmentation charge: PSQ
     Using radial grid of 1195 points,  6 beta functions with: 
                l(1) =   0
                l(2) =   0
                l(3) =   1
                l(4) =   1
                l(5) =   2
                l(6) =   2
     Q(r) pseudized with 0 coefficients 


     atomic species   valence    mass     pseudopotential
        Ni            18.00    58.69340     Ni( 1.00)

     48 Sym. Ops., with inversion, found



   Cartesian axes

     site n.     atom                  positions (alat units)
         1           Ni  tau(   1) = (   0.0000000   0.0000000   0.0000000  )

     number of k points=    35  gaussian smearing, width (Ry)=  0.0100
                       cart. coord. in units 2pi/alat
        k(    1) = (   0.0000000   0.0000000   0.0000000), wk =   0.0027435
        k(    2) = (  -0.1111111   0.1111111  -0.1111111), wk =   0.0219479
        k(    3) = (  -0.2222222   0.2222222  -0.2222222), wk =   0.0219479
        k(    4) = (  -0.3333333   0.3333333  -0.3333333), wk =   0.0219479
        k(    5) = (  -0.4444444   0.4444444  -0.4444444), wk =   0.0219479
        k(    6) = (   0.0000000   0.2222222   0.0000000), wk =   0.0164609
        k(    7) = (  -0.1111111   0.3333333  -0.1111111), wk =   0.0658436
        k(    8) = (  -0.2222222   0.4444444  -0.2222222), wk =   0.0658436
        k(    9) = (  -0.3333333   0.5555556  -0.3333333), wk =   0.0658436
        k(   10) = (   0.5555556  -0.3333333   0.5555556), wk =   0.0658436
        k(   11) = (   0.4444444  -0.2222222   0.4444444), wk =   0.0658436
        k(   12) = (   0.3333333  -0.1111111   0.3333333), wk =   0.0658436
        k(   13) = (   0.2222222  -0.0000000   0.2222222), wk =   0.0329218
        k(   14) = (   0.0000000   0.4444444   0.0000000), wk =   0.0164609
        k(   15) = (  -0.1111111   0.5555556  -0.1111111), wk =   0.0658436
        k(   16) = (  -0.2222222   0.6666667  -0.2222222), wk =   0.0658436
        k(   17) = (   0.6666667  -0.2222222   0.6666667), wk =   0.0658436
        k(   18) = (   0.5555556  -0.1111111   0.5555556), wk =   0.0658436
        k(   19) = (   0.4444444   0.0000000   0.4444444), wk =   0.0329218
        k(   20) = (   0.0000000   0.6666667   0.0000000), wk =   0.0164609
        k(   21) = (  -0.1111111   0.7777778  -0.1111111), wk =   0.0658436
        k(   22) = (   0.7777778  -0.1111111   0.7777778), wk =   0.0658436
        k(   23) = (   0.6666667  -0.0000000   0.6666667), wk =   0.0329218
        k(   24) = (   0.0000000   0.8888889   0.0000000), wk =   0.0164609
        k(   25) = (   0.8888889   0.0000000   0.8888889), wk =   0.0329218
        k(   26) = (  -0.2222222   0.4444444   0.0000000), wk =   0.0658436
        k(   27) = (  -0.3333333   0.5555556  -0.1111111), wk =   0.1316872
        k(   28) = (   0.5555556  -0.3333333   0.7777778), wk =   0.1316872
        k(   29) = (  -0.2222222   0.6666667   0.0000000), wk =   0.0658436
        k(   30) = (   0.6666667  -0.2222222   0.8888889), wk =   0.1316872
        k(   31) = (   0.5555556  -0.1111111   0.7777778), wk =   0.1316872
        k(   32) = (   0.4444444   0.0000000   0.6666667), wk =   0.0658436
        k(   33) = (   0.7777778  -0.1111111   1.0000000), wk =   0.0658436
        k(   34) = (   0.6666667  -0.0000000   0.8888889), wk =   0.0658436
        k(   35) = (   0.5555556  -0.1111111   1.0000000), wk =   0.0658436

     Dense  grid:     9841 G-vectors     FFT dimensions: (  30,  30,  30)

     Estimated max dynamical RAM per process >      10.77 MB

     Estimated total dynamical RAM >      53.83 MB

     Check: negative/imaginary core charge=   -0.000004    0.000000

     Initial potential from superposition of free atoms

     starting charge   17.99977, renormalised to   18.00000
     Starting wfcs are   10 randomized atomic wfcs +    3 random wfcs
     Checking if some PAW data can be deallocated... 

     total cpu time spent up to now is        1.2 secs

     Self-consistent Calculation

     iteration #  1     ecut=   100.00 Ry     beta= 0.70
     Davidson diagonalization with overlap
     ethr =  1.00E-02,  avg # of iterations =  3.5

     Threshold (ethr) on eigenvalues was too large:
     Diagonalizing with lowered threshold

     Davidson diagonalization with overlap
     ethr =  1.14E-05,  avg # of iterations =  3.1

     total cpu time spent up to now is        2.5 secs

     total energy              =    -426.57890701 Ry
     Harris-Foulkes estimate   =    -426.57981095 Ry
     estimated scf accuracy    <       0.00199882 Ry

     iteration #  2     ecut=   100.00 Ry     beta= 0.70
     Davidson diagonalization with overlap
     ethr =  1.11E-05,  avg # of iterations =  2.0

     total cpu time spent up to now is        3.1 secs

     total energy              =    -426.57851474 Ry
     Harris-Foulkes estimate   =    -426.57971660 Ry
     estimated scf accuracy    <       0.00252549 Ry

     iteration #  3     ecut=   100.00 Ry     beta= 0.70
     Davidson diagonalization with overlap
     ethr =  1.11E-05,  avg # of iterations =  2.1

     total cpu time spent up to now is        3.8 secs

     total energy              =    -426.57913701 Ry
     Harris-Foulkes estimate   =    -426.57937324 Ry
     estimated scf accuracy    <       0.00069710 Ry

     iteration #  4     ecut=   100.00 Ry     beta= 0.70
     Davidson diagonalization with overlap
     ethr =  3.87E-06,  avg # of iterations =  1.5

     total cpu time spent up to now is        4.4 secs

     total energy              =    -426.57924046 Ry
     Harris-Foulkes estimate   =    -426.57924031 Ry
     estimated scf accuracy    <       0.00000031 Ry

     iteration #  5     ecut=   100.00 Ry     beta= 0.70
     Davidson diagonalization with overlap
     ethr =  1.72E-09,  avg # of iterations =  3.1

     total cpu time spent up to now is        5.3 secs

     total energy              =    -426.57924288 Ry
     Harris-Foulkes estimate   =    -426.57924298 Ry
     estimated scf accuracy    <       0.00000037 Ry

     iteration #  6     ecut=   100.00 Ry     beta= 0.70
     Davidson diagonalization with overlap
     ethr =  1.72E-09,  avg # of iterations =  1.0

     total cpu time spent up to now is        5.9 secs

     total energy              =    -426.57924287 Ry
     Harris-Foulkes estimate   =    -426.57924289 Ry
     estimated scf accuracy    <       0.00000006 Ry

     iteration #  7     ecut=   100.00 Ry     beta= 0.70
     Davidson diagonalization with overlap
     ethr =  3.49E-10,  avg # of iterations =  1.1

     total cpu time spent up to now is        6.5 secs

     End of self-consistent calculation

          k = 0.0000 0.0000 0.0000 (  1243 PWs)   bands (ev):

   -85.1853 -45.5946 -45.5946 -45.5946   8.6013  15.6971  15.6971  15.6971
    16.8262  16.8262  41.2788  45.1981  45.1981

          k =-0.1111 0.1111-0.1111 (  1248 PWs)   bands (ev):

   -85.1813 -45.6210 -45.5984 -45.5984   9.0808  15.5706  15.7980  15.7980
    16.7881  16.7881  39.0660  42.4555  44.2659

          k =-0.2222 0.2222-0.2222 (  1245 PWs)   bands (ev):

   -85.1711 -45.6874 -45.6079 -45.6079  10.4235  15.3370  15.9158  15.9158
    16.8502  16.8502  33.5130  41.6299  43.1950

          k =-0.3333 0.3333-0.3333 (  1236 PWs)   bands (ev):

   -85.1595 -45.7625 -45.6187 -45.6187  12.1366  15.5250  15.8095  15.8095
    17.2010  17.2010  28.2704  40.6057  42.5686

          k =-0.4444 0.4444-0.4444 (  1233 PWs)   bands (ev):

   -85.1519 -45.8112 -45.6259 -45.6259  13.0079  15.6794  15.6794  16.8968
    17.5159  17.5159  24.2892  39.8851  42.3382

          k = 0.0000 0.2222 0.0000 (  1251 PWs)   bands (ev):

   -85.1799 -45.6202 -45.6044 -45.6044   9.2390  15.4625  15.8799  15.8799
    16.6149  16.9094  40.1902  41.8155  41.8155

          k =-0.1111 0.3333-0.1111 (  1251 PWs)   bands (ev):

   -85.1718 -45.6694 -45.6157 -45.6121  10.2932  15.2058  15.9964  16.0602
    16.5640  17.0168  35.6942  40.1041  40.3892

          k =-0.2222 0.4444-0.2222 (  1245 PWs)   bands (ev):

   -85.1607 -45.7388 -45.6270 -45.6242  11.9386  15.0874  15.7622  16.0462
    17.1364  17.2989  30.2254  39.2075  39.3731

          k =-0.3333 0.5556-0.3333 (  1238 PWs)   bands (ev):

   -85.1518 -45.7935 -45.6376 -45.6329  13.1455  15.4248  15.7690  15.9063
    17.5552  18.2444  25.5871  38.1233  39.2436

          k = 0.5556-0.3333 0.5556 (  1233 PWs)   bands (ev):

   -85.1492 -45.8085 -45.6456 -45.6308  13.3536  15.4351  15.8366  16.1755
    17.4987  19.1417  23.7405  36.9888  40.3520

          k = 0.4444-0.2222 0.4444 (  1242 PWs)   bands (ev):

   -85.1543 -45.7776 -45.6440 -45.6216  12.8914  15.4707  15.6129  15.9133
    17.1114  18.0886  27.0055  36.4933  41.5973

          k = 0.3333-0.1111 0.3333 (  1250 PWs)   bands (ev):

   -85.1645 -45.7155 -45.6328 -45.6096  11.3736  15.1536  15.8353  16.0759
    16.6336  17.3773  32.0016  36.7729  43.4840

          k = 0.2222-0.0000 0.2222 (  1261 PWs)   bands (ev):

   -85.1752 -45.6536 -45.6149 -45.6005   9.8516  15.3650  15.9139  15.9604
    16.5862  16.9606  37.2289  38.1647  44.4795

          k = 0.0000 0.4444 0.0000 (  1259 PWs)   bands (ev):

   -85.1664 -45.6839 -45.6293 -45.6293  10.9870  14.8911  16.1986  16.3946
    16.3946  17.1230  37.8066  37.8066  38.7477

          k =-0.1111 0.5556-0.1111 (  1250 PWs)   bands (ev):

   -85.1573 -45.7307 -45.6446 -45.6422  12.2746  14.6278  15.8714  16.5578
    17.1648  17.3494  32.7989  36.4451  36.6351

          k =-0.2222 0.6667-0.2222 (  1247 PWs)   bands (ev):

   -85.1489 -45.7727 -45.6661 -45.6486  13.4843  14.6161  15.6059  16.4546
    17.5949  18.7950  27.7777  34.2636  36.1892

          k = 0.6667-0.2222 0.6667 (  1235 PWs)   bands (ev):

   -85.1450 -45.7873 -45.6869 -45.6453  13.9565  14.7784  15.5947  16.3244
    17.5182  21.1421  24.0788  32.4597  37.1449

          k = 0.5556-0.1111 0.5556 (  1242 PWs)   bands (ev):

   -85.1475 -45.7720 -45.6930 -45.6340  13.8943  15.0409  15.2790  16.2883
    17.1047  19.8838  26.3507  31.4794  39.2190

          k = 0.4444 0.0000 0.4444 (  1245 PWs)   bands (ev):

   -85.1552 -45.7439 -45.6714 -45.6199  12.8583  14.9734  15.4961  16.3434
    16.6026  18.3091  30.7605  31.7779  42.1354

          k = 0.0000 0.6667 0.0000 (  1258 PWs)   bands (ev):

   -85.1510 -45.7547 -45.6575 -45.6575  12.8474  14.2775  16.6886  17.0985
    17.0985  17.3709  33.3197  34.5762  34.5762

          k =-0.1111 0.7778-0.1111 (  1240 PWs)   bands (ev):

   -85.1446 -45.7798 -45.6765 -45.6655  13.3787  14.1363  16.5520  17.1275
    17.6134  18.9184  30.4380  30.9559  33.8834

          k = 0.7778-0.1111 0.7778 (  1236 PWs)   bands (ev):

   -85.1412 -45.7783 -45.7092 -45.6627  13.8636  14.2509  16.0443  16.9609
    17.5794  21.9139  26.2739  28.8002  34.5413

          k = 0.6667-0.0000 0.6667 (  1234 PWs)   bands (ev):

   -85.1424 -45.7459 -45.7450 -45.6502  14.3291  14.4871  15.4483  16.7064
    17.2808  22.5534  25.2553  28.2774  36.4297

          k = 0.0000 0.8889 0.0000 (  1234 PWs)   bands (ev):

   -85.1409 -45.7997 -45.6758 -45.6758  13.2544  13.8956  17.5358  17.6559
    17.6559  19.3072  28.0877  32.7014  32.7014

          k = 0.8889 0.0000 0.8889 (  1240 PWs)   bands (ev):

   -85.1396 -45.7983 -45.6896 -45.6747  13.4232  13.9485  17.0792  17.4188
    17.6871  21.0516  27.1017  29.9299  32.9403

          k =-0.2222 0.4444 0.0000 (  1246 PWs)   bands (ev):

   -85.1632 -45.7087 -45.6412 -45.6188  11.5170  14.9395  15.8107  16.4107
    16.5631  17.4005  34.1375  34.7986  40.5510

          k =-0.3333 0.5556-0.1111 (  1248 PWs)   bands (ev):

   -85.1534 -45.7566 -45.6631 -45.6303  13.0424  14.8771  15.4584  16.3509
    17.0575  18.2952  29.1399  33.9968  37.9371

          k = 0.5556-0.3333 0.7778 (  1235 PWs)   bands (ev):

   -85.1471 -45.7890 -45.6735 -45.6402  13.7795  15.0054  15.5290  16.2035
    17.4446  20.0437  24.8207  34.2968  35.9345

          k =-0.2222 0.6667 0.0000 (  1245 PWs)   bands (ev):

   -85.1496 -45.7591 -45.6711 -45.6509  13.2664  14.4304  15.7353  17.0766
    17.0961  18.3912  31.6277  32.2338  34.0425

          k = 0.6667-0.2222 0.8889 (  1236 PWs)   bands (ev):

   -85.1437 -45.7729 -45.6975 -45.6595  13.9725  14.4786  15.4935  16.8194
    17.5014  20.6265  27.1613  31.4229  32.3648

          k = 0.5556-0.1111 0.7778 (  1232 PWs)   bands (ev):

   -85.1424 -45.7659 -45.7189 -45.6564  14.4251  14.4877  15.2862  16.6228
    17.4570  22.6841  24.5584  29.9668  33.3901

          k = 0.4444 0.0000 0.6667 (  1239 PWs)   bands (ev):

   -85.1462 -45.7604 -45.7057 -45.6436  14.1230  14.8681  14.9649  16.6341
    17.1188  20.0817  28.1304  29.7676  35.3492

          k = 0.7778-0.1111 1.0000 (  1238 PWs)   bands (ev):

   -85.1408 -45.7874 -45.6906 -45.6754  13.5889  14.1055  16.4418  17.2880
    17.6550  20.9153  28.3547  30.1057  30.9974

          k = 0.6667-0.0000 0.8889 (  1243 PWs)   bands (ev):

   -85.1399 -45.7707 -45.7186 -45.6720  13.9601  14.3443  15.8228  16.9689
    17.6519  23.4106  26.2400  27.6815  31.5728

          k = 0.5556-0.1111 1.0000 (  1233 PWs)   bands (ev):

   -85.1403 -45.7558 -45.7281 -45.6737  14.1899  14.7480  15.1484  16.7824
    17.6525  23.4117  26.5568  28.6042  29.6852

     the Fermi energy is    17.5649 ev

!    total energy              =    -426.57924288 Ry
     Harris-Foulkes estimate   =    -426.57924288 Ry
     estimated scf accuracy    <          1.0E-09 Ry

     total all-electron energy =     -3039.037588 Ry

     The total energy is the sum of the following terms:

     one-electron contribution =    -184.95716148 Ry
     hartree contribution      =     104.53526045 Ry
     xc contribution           =     -33.92395735 Ry
     ewald contribution        =    -223.38275369 Ry
     one-center paw contrib.   =     -88.84819382 Ry
     smearing contrib. (-TS)   =      -0.00243699 Ry

     convergence has been achieved in   7 iterations

     Forces acting on atoms (cartesian axes, Ry/au):

     atom    1 type  1   force =     0.00000000    0.00000000    0.00000000

     Total force =     0.000000     Total SCF correction =     0.000000


     Computing stress (Cartesian axis) and pressure

          total   stress  (Ry/bohr**3)                   (kbar)     P= -111.85
  -0.00076034  -0.00000000  -0.00000000       -111.85     -0.00     -0.00
  -0.00000000  -0.00076034   0.00000000         -0.00   -111.85      0.00
  -0.00000000   0.00000000  -0.00076034         -0.00      0.00   -111.85


     Writing output data file Ni.save/

     init_run     :      0.44s CPU      0.47s WALL (       1 calls)
     electrons    :      5.04s CPU      5.26s WALL (       1 calls)
     forces       :      0.07s CPU      0.07s WALL (       1 calls)
     stress       :      0.21s CPU      0.21s WALL (       1 calls)

     Called by init_run:
     wfcinit      :      0.15s CPU      0.15s WALL (       1 calls)
     potinit      :      0.09s CPU      0.10s WALL (       1 calls)
     hinit0       :      0.18s CPU      0.18s WALL (       1 calls)

     Called by electrons:
     c_bands      :      3.55s CPU      3.69s WALL (       8 calls)
     sum_band     :      0.72s CPU      0.75s WALL (       8 calls)
     v_of_rho     :      0.04s CPU      0.04s WALL (       8 calls)
     newd         :      0.08s CPU      0.09s WALL (       8 calls)
     PAW_pot      :      0.73s CPU      0.78s WALL (       8 calls)
     mix_rho      :      0.00s CPU      0.00s WALL (       8 calls)

     Called by c_bands:
     init_us_2    :      0.10s CPU      0.11s WALL (     665 calls)
     cegterg      :      3.41s CPU      3.55s WALL (     280 calls)

     Called by sum_band:
     sum_band:bec :      0.00s CPU      0.00s WALL (     280 calls)
     addusdens    :      0.07s CPU      0.07s WALL (       8 calls)

     Called by *egterg:
     h_psi        :      2.58s CPU      2.69s WALL (     921 calls)
     s_psi        :      0.09s CPU      0.09s WALL (     921 calls)
     g_psi        :      0.01s CPU      0.01s WALL (     606 calls)
     cdiaghg      :      0.32s CPU      0.33s WALL (     851 calls)

     Called by h_psi:
     h_psi:pot    :      2.56s CPU      2.68s WALL (     921 calls)
     h_psi:calbec :      0.13s CPU      0.13s WALL (     921 calls)
     vloc_psi     :      2.34s CPU      2.44s WALL (     921 calls)
     add_vuspsi   :      0.09s CPU      0.10s WALL (     921 calls)

     General routines
     calbec       :      0.22s CPU      0.22s WALL (    1376 calls)
     fft          :      0.03s CPU      0.03s WALL (     115 calls)
     ffts         :      0.00s CPU      0.00s WALL (       8 calls)
     fftw         :      2.67s CPU      2.79s WALL (   22124 calls)

     Parallel routines
     fft_scatt_xy :      0.23s CPU      0.24s WALL (   22247 calls)
     fft_scatt_yz :      0.68s CPU      0.71s WALL (   22247 calls)

     PWSCF        :     6.59s CPU         6.93s WALL


   This run was terminated on:  22:21:10  26Mar2024            

=------------------------------------------------------------------------------=
   JOB DONE.
=------------------------------------------------------------------------------=
