
     Program PWSCF v.6.3MaX starts on 26Mar2024 at 22:58:50 

     This program is part of the open-source Quantum ESPRESSO suite
     for quantum simulation of materials; please cite
         "P. Giannozzi et al., J. Phys.:Condens. Matter 21 395502 (2009);
         "P. Giannozzi et al., J. Phys.:Condens. Matter 29 465901 (2017);
          URL http://www.quantum-espresso.org", 
     in publications or presentations arising from this work. More details at
     http://www.quantum-espresso.org/quote

     Parallel version (MPI), running on     5 processors

     MPI processes distributed on     1 nodes
     R & G space division:  proc/nbgrp/npool/nimage =       5
     Waiting for input...
     Reading input from standard input

     Current dimensions of program PWSCF are:
     Max number of different atomic species (ntypx) = 10
     Max number of k-points (npk) =  40000
     Max angular momentum in pseudopotentials (lmaxx) =  3

     Subspace diagonalization in iterative solution of the eigenvalue problem:
     a serial algorithm will be used


     Parallelization info
     --------------------
     sticks:   dense  smooth     PW     G-vecs:    dense   smooth      PW
     Min         102     102     32                 1559     1559     272
     Max         103     103     33                 1562     1562     273
     Sum         511     511    163                 7799     7799    1363



     bravais-lattice index     =            2
     lattice parameter (alat)  =       6.6500  a.u.
     unit-cell volume          =      73.5199 (a.u.)^3
     number of atoms/cell      =            1
     number of atomic types    =            1
     number of electrons       =        18.00
     number of Kohn-Sham states=           13
     kinetic-energy cutoff     =      85.0000  Ry
     charge density cutoff     =     340.0000  Ry
     convergence threshold     =      1.0E-08
     mixing beta               =       0.7000
     number of iterations used =            8  plain     mixing
     Exchange-correlation      = PBESOL ( 1  4 10  8 0 0)

     celldm(1)=   6.650000  celldm(2)=   0.000000  celldm(3)=   0.000000
     celldm(4)=   0.000000  celldm(5)=   0.000000  celldm(6)=   0.000000

     crystal axes: (cart. coord. in units of alat)
               a(1) = (  -0.500000   0.000000   0.500000 )  
               a(2) = (   0.000000   0.500000   0.500000 )  
               a(3) = (  -0.500000   0.500000   0.000000 )  

     reciprocal axes: (cart. coord. in units 2 pi/alat)
               b(1) = ( -1.000000 -1.000000  1.000000 )  
               b(2) = (  1.000000  1.000000  1.000000 )  
               b(3) = ( -1.000000  1.000000 -1.000000 )  


     PseudoPot. # 1 for Ni read from file:
     /home/lorenzo/pseudos/Ni/Ni.pbesol-spn-rrkjus_psl.1.0.0.UPF
     MD5 check sum: 6fc0a587bf949a08f2faed986b854013
     Pseudo is Ultrasoft + core correction, Zval = 18.0
     Generated using "atomic" code by A. Dal Corso v.6.3
     Using radial grid of 1195 points,  6 beta functions with: 
                l(1) =   0
                l(2) =   0
                l(3) =   1
                l(4) =   1
                l(5) =   2
                l(6) =   2
     Q(r) pseudized with 0 coefficients 


     atomic species   valence    mass     pseudopotential
        Ni            18.00    58.69340     Ni( 1.00)

     48 Sym. Ops., with inversion, found



   Cartesian axes

     site n.     atom                  positions (alat units)
         1           Ni  tau(   1) = (   0.0000000   0.0000000   0.0000000  )

     number of k points=    10  gaussian smearing, width (Ry)=  0.0100
                       cart. coord. in units 2pi/alat
        k(    1) = (   0.0000000   0.0000000   0.0000000), wk =   0.0160000
        k(    2) = (  -0.2000000   0.2000000  -0.2000000), wk =   0.1280000
        k(    3) = (  -0.4000000   0.4000000  -0.4000000), wk =   0.1280000
        k(    4) = (   0.0000000   0.4000000   0.0000000), wk =   0.0960000
        k(    5) = (  -0.2000000   0.6000000  -0.2000000), wk =   0.3840000
        k(    6) = (   0.6000000  -0.2000000   0.6000000), wk =   0.3840000
        k(    7) = (   0.4000000   0.0000000   0.4000000), wk =   0.1920000
        k(    8) = (   0.0000000   0.8000000   0.0000000), wk =   0.0960000
        k(    9) = (   0.8000000   0.0000000   0.8000000), wk =   0.1920000
        k(   10) = (   0.6000000  -0.2000000   1.0000000), wk =   0.3840000

     Dense  grid:     7799 G-vectors     FFT dimensions: (  27,  27,  27)

     Estimated max dynamical RAM per process >       7.78 MB

     Estimated total dynamical RAM >      38.88 MB

     Check: negative/imaginary core charge=   -0.000003    0.000000

     Initial potential from superposition of free atoms

     starting charge   17.99977, renormalised to   18.00000
     Starting wfcs are   10 randomized atomic wfcs +    3 random wfcs

     total cpu time spent up to now is        0.9 secs

     Self-consistent Calculation

     iteration #  1     ecut=    85.00 Ry     beta= 0.70
     Davidson diagonalization with overlap
     ethr =  1.00E-02,  avg # of iterations =  3.8

     Threshold (ethr) on eigenvalues was too large:
     Diagonalizing with lowered threshold

     Davidson diagonalization with overlap
     ethr =  1.77E-05,  avg # of iterations =  3.2

     total cpu time spent up to now is        1.2 secs

     total energy              =    -339.38994607 Ry
     Harris-Foulkes estimate   =    -339.39194666 Ry
     estimated scf accuracy    <       0.00319319 Ry

     iteration #  2     ecut=    85.00 Ry     beta= 0.70
     Davidson diagonalization with overlap
     ethr =  1.77E-05,  avg # of iterations =  2.5

     total cpu time spent up to now is        1.4 secs

     total energy              =    -339.38939721 Ry
     Harris-Foulkes estimate   =    -339.39297514 Ry
     estimated scf accuracy    <       0.00920740 Ry

     iteration #  3     ecut=    85.00 Ry     beta= 0.70
     Davidson diagonalization with overlap
     ethr =  1.77E-05,  avg # of iterations =  2.1

     total cpu time spent up to now is        1.5 secs

     total energy              =    -339.39114489 Ry
     Harris-Foulkes estimate   =    -339.39120250 Ry
     estimated scf accuracy    <       0.00017751 Ry

     iteration #  4     ecut=    85.00 Ry     beta= 0.70
     Davidson diagonalization with overlap
     ethr =  9.86E-07,  avg # of iterations =  2.2

     total cpu time spent up to now is        1.7 secs

     total energy              =    -339.39117276 Ry
     Harris-Foulkes estimate   =    -339.39117260 Ry
     estimated scf accuracy    <       0.00000026 Ry

     iteration #  5     ecut=    85.00 Ry     beta= 0.70
     Davidson diagonalization with overlap
     ethr =  1.44E-09,  avg # of iterations =  3.6

     total cpu time spent up to now is        1.8 secs

     total energy              =    -339.39117366 Ry
     Harris-Foulkes estimate   =    -339.39117369 Ry
     estimated scf accuracy    <       0.00000007 Ry

     iteration #  6     ecut=    85.00 Ry     beta= 0.70
     Davidson diagonalization with overlap
     ethr =  4.02E-10,  avg # of iterations =  1.0

     total cpu time spent up to now is        2.0 secs

     total energy              =    -339.39117366 Ry
     Harris-Foulkes estimate   =    -339.39117366 Ry
     estimated scf accuracy    <       0.00000001 Ry

     iteration #  7     ecut=    85.00 Ry     beta= 0.70
     Davidson diagonalization with overlap
     ethr =  6.33E-11,  avg # of iterations =  1.4

     total cpu time spent up to now is        2.1 secs

     End of self-consistent calculation

          k = 0.0000 0.0000 0.0000 (   941 PWs)   bands (ev):

   -85.0679 -45.4780 -45.4780 -45.4780   8.6076  15.7878  15.7878  15.7878
    16.9117  16.9117  41.2771  45.2027  45.2027

          k =-0.2000 0.2000-0.2000 (   956 PWs)   bands (ev):

   -85.0560 -45.5569 -45.4894 -45.4894  10.1068  15.4586  15.9996  15.9996
    16.8992  16.8992  34.6573  41.8064  43.3952

          k =-0.4000 0.4000-0.4000 (   966 PWs)   bands (ev):

   -85.0366 -45.6822 -45.5078 -45.5078  12.8488  15.8038  15.8038  16.2819
    17.5130  17.5130  25.6713  40.0937  42.4111

          k = 0.0000 0.4000 0.0000 (   974 PWs)   bands (ev):

   -85.0520 -45.5542 -45.5081 -45.5081  10.5811  15.1030  16.3465  16.3622
    16.3622  17.1604  38.5839  38.5839  39.0205

          k =-0.2000 0.6000-0.2000 (   986 PWs)   bands (ev):

   -85.0352 -45.6458 -45.5370 -45.5284  13.0515  14.7668  15.6954  16.4714
    17.6115  18.0635  29.1961  35.9293  36.7043

          k = 0.6000-0.2000 0.6000 (   977 PWs)   bands (ev):

   -85.0287 -45.6745 -45.5667 -45.5228  13.9229  15.0586  15.6661  16.2710
    17.4738  20.6388  24.3212  32.8817  38.4910

          k = 0.4000 0.0000 0.4000 (   969 PWs)   bands (ev):

   -85.0416 -45.6158 -45.5423 -45.4988  12.2447  15.0859  15.7331  16.4358
    16.5544  17.9801  32.0246  32.8666  42.9152

          k = 0.0000 0.8000 0.0000 (   990 PWs)   bands (ev):

   -85.0264 -45.6724 -45.5554 -45.5554  13.2610  14.0837  17.5751  17.5807
    17.5807  18.1797  29.9542  33.2625  33.2625

          k = 0.8000 0.0000 0.8000 (   973 PWs)   bands (ev):

   -85.0224 -45.6673 -45.5961 -45.5515  13.8136  14.2245  16.3931  17.2412
    17.6720  22.5719  26.6188  27.6434  34.0009

          k = 0.6000-0.2000 1.0000 (   978 PWs)   bands (ev):

   -85.0248 -45.6496 -45.5980 -45.5483  14.2150  14.7137  15.2604  16.9294
    17.5751  21.5239  27.7359  29.4021  31.4120

     the Fermi energy is    17.6625 ev

!    total energy              =    -339.39117366 Ry
     Harris-Foulkes estimate   =    -339.39117366 Ry
     estimated scf accuracy    <          3.3E-10 Ry

     The total energy is the sum of the following terms:

     one-electron contribution =    -186.72370646 Ry
     hartree contribution      =     104.65488279 Ry
     xc contribution           =     -33.93646599 Ry
     ewald contribution        =    -223.38275369 Ry
     smearing contrib. (-TS)   =      -0.00313032 Ry

     convergence has been achieved in   7 iterations

     Forces acting on atoms (cartesian axes, Ry/au):

     atom    1 type  1   force =     0.00000000    0.00000000    0.00000000

     Total force =     0.000000     Total SCF correction =     0.000000


     Computing stress (Cartesian axis) and pressure

          total   stress  (Ry/bohr**3)                   (kbar)     P= -116.94
  -0.00079493   0.00000000   0.00000000       -116.94      0.00      0.00
   0.00000000  -0.00079493  -0.00000000          0.00   -116.94     -0.00
   0.00000000  -0.00000000  -0.00079493          0.00     -0.00   -116.94


     Writing output data file Ni.save/

     init_run     :      0.22s CPU      0.22s WALL (       1 calls)
     electrons    :      1.10s CPU      1.16s WALL (       1 calls)
     forces       :      0.03s CPU      0.03s WALL (       1 calls)
     stress       :      0.09s CPU      0.09s WALL (       1 calls)

     Called by init_run:
     wfcinit      :      0.03s CPU      0.04s WALL (       1 calls)
     potinit      :      0.01s CPU      0.01s WALL (       1 calls)
     hinit0       :      0.16s CPU      0.16s WALL (       1 calls)

     Called by electrons:
     c_bands      :      0.81s CPU      0.86s WALL (       8 calls)
     sum_band     :      0.20s CPU      0.21s WALL (       8 calls)
     v_of_rho     :      0.03s CPU      0.03s WALL (       8 calls)
     newd         :      0.06s CPU      0.06s WALL (       8 calls)
     mix_rho      :      0.00s CPU      0.00s WALL (       8 calls)

     Called by c_bands:
     init_us_2    :      0.02s CPU      0.03s WALL (     190 calls)
     cegterg      :      0.78s CPU      0.83s WALL (      80 calls)

     Called by sum_band:
     sum_band:bec :      0.00s CPU      0.00s WALL (      80 calls)
     addusdens    :      0.06s CPU      0.06s WALL (       8 calls)

     Called by *egterg:
     h_psi        :      0.59s CPU      0.62s WALL (     288 calls)
     s_psi        :      0.02s CPU      0.02s WALL (     288 calls)
     g_psi        :      0.00s CPU      0.00s WALL (     198 calls)
     cdiaghg      :      0.09s CPU      0.10s WALL (     268 calls)

     Called by h_psi:
     h_psi:pot    :      0.58s CPU      0.62s WALL (     288 calls)
     h_psi:calbec :      0.02s CPU      0.03s WALL (     288 calls)
     vloc_psi     :      0.54s CPU      0.57s WALL (     288 calls)
     add_vuspsi   :      0.02s CPU      0.02s WALL (     288 calls)

     General routines
     calbec       :      0.04s CPU      0.04s WALL (     418 calls)
     fft          :      0.03s CPU      0.03s WALL (     115 calls)
     ffts         :      0.00s CPU      0.00s WALL (       8 calls)
     fftw         :      0.60s CPU      0.63s WALL (    6368 calls)

     Parallel routines
     fft_scatt_xy :      0.06s CPU      0.06s WALL (    6491 calls)
     fft_scatt_yz :      0.14s CPU      0.14s WALL (    6491 calls)

     PWSCF        :     2.14s CPU         2.25s WALL


   This run was terminated on:  22:58:52  26Mar2024            

=------------------------------------------------------------------------------=
   JOB DONE.
=------------------------------------------------------------------------------=
