
     Program PWSCF v.6.3MaX starts on 26Mar2024 at 22:31:33 

     This program is part of the open-source Quantum ESPRESSO suite
     for quantum simulation of materials; please cite
         "P. Giannozzi et al., J. Phys.:Condens. Matter 21 395502 (2009);
         "P. Giannozzi et al., J. Phys.:Condens. Matter 29 465901 (2017);
          URL http://www.quantum-espresso.org", 
     in publications or presentations arising from this work. More details at
     http://www.quantum-espresso.org/quote

     Parallel version (MPI), running on     5 processors

     MPI processes distributed on     1 nodes
     R & G space division:  proc/nbgrp/npool/nimage =       5
     Waiting for input...
     Reading input from standard input

     Current dimensions of program PWSCF are:
     Max number of different atomic species (ntypx) = 10
     Max number of k-points (npk) =  40000
     Max angular momentum in pseudopotentials (lmaxx) =  3
               file Ni.pbe-spn-kjpaw_psl.1.0.0.UPF: wavefunction(s)  3P 3D renormalized

     Subspace diagonalization in iterative solution of the eigenvalue problem:
     a serial algorithm will be used


     Parallelization info
     --------------------
     sticks:   dense  smooth     PW     G-vecs:    dense   smooth      PW
     Min          37      37     12                  327      327      67
     Max          38      38     13                  329      329      70
     Sum         187     187     61                 1639     1639     339



     bravais-lattice index     =            2
     lattice parameter (alat)  =       6.6500  a.u.
     unit-cell volume          =      73.5199 (a.u.)^3
     number of atoms/cell      =            1
     number of atomic types    =            1
     number of electrons       =        18.00
     number of Kohn-Sham states=           13
     kinetic-energy cutoff     =      30.0000  Ry
     charge density cutoff     =     120.0000  Ry
     convergence threshold     =      1.0E-08
     mixing beta               =       0.7000
     number of iterations used =            8  plain     mixing
     Exchange-correlation      = SLA PW PBX PBC ( 1  4  3  4 0 0)

     celldm(1)=   6.650000  celldm(2)=   0.000000  celldm(3)=   0.000000
     celldm(4)=   0.000000  celldm(5)=   0.000000  celldm(6)=   0.000000

     crystal axes: (cart. coord. in units of alat)
               a(1) = (  -0.500000   0.000000   0.500000 )  
               a(2) = (   0.000000   0.500000   0.500000 )  
               a(3) = (  -0.500000   0.500000   0.000000 )  

     reciprocal axes: (cart. coord. in units 2 pi/alat)
               b(1) = ( -1.000000 -1.000000  1.000000 )  
               b(2) = (  1.000000  1.000000  1.000000 )  
               b(3) = ( -1.000000  1.000000 -1.000000 )  


     PseudoPot. # 1 for Ni read from file:
     /home/lorenzo/pseudos/Ni/Ni.pbe-spn-kjpaw_psl.1.0.0.UPF
     MD5 check sum: 6e86b733589c3ad8389697b807d86aa7
     Pseudo is Projector augmented-wave + core cor, Zval = 18.0
     Generated using "atomic" code by A. Dal Corso v.6.3
     Shape of augmentation charge: PSQ
     Using radial grid of 1195 points,  6 beta functions with: 
                l(1) =   0
                l(2) =   0
                l(3) =   1
                l(4) =   1
                l(5) =   2
                l(6) =   2
     Q(r) pseudized with 0 coefficients 


     atomic species   valence    mass     pseudopotential
        Ni            18.00    58.69340     Ni( 1.00)

     48 Sym. Ops., with inversion, found



   Cartesian axes

     site n.     atom                  positions (alat units)
         1           Ni  tau(   1) = (   0.0000000   0.0000000   0.0000000  )

     number of k points=    35  gaussian smearing, width (Ry)=  0.0100
                       cart. coord. in units 2pi/alat
        k(    1) = (   0.0000000   0.0000000   0.0000000), wk =   0.0027435
        k(    2) = (  -0.1111111   0.1111111  -0.1111111), wk =   0.0219479
        k(    3) = (  -0.2222222   0.2222222  -0.2222222), wk =   0.0219479
        k(    4) = (  -0.3333333   0.3333333  -0.3333333), wk =   0.0219479
        k(    5) = (  -0.4444444   0.4444444  -0.4444444), wk =   0.0219479
        k(    6) = (   0.0000000   0.2222222   0.0000000), wk =   0.0164609
        k(    7) = (  -0.1111111   0.3333333  -0.1111111), wk =   0.0658436
        k(    8) = (  -0.2222222   0.4444444  -0.2222222), wk =   0.0658436
        k(    9) = (  -0.3333333   0.5555556  -0.3333333), wk =   0.0658436
        k(   10) = (   0.5555556  -0.3333333   0.5555556), wk =   0.0658436
        k(   11) = (   0.4444444  -0.2222222   0.4444444), wk =   0.0658436
        k(   12) = (   0.3333333  -0.1111111   0.3333333), wk =   0.0658436
        k(   13) = (   0.2222222  -0.0000000   0.2222222), wk =   0.0329218
        k(   14) = (   0.0000000   0.4444444   0.0000000), wk =   0.0164609
        k(   15) = (  -0.1111111   0.5555556  -0.1111111), wk =   0.0658436
        k(   16) = (  -0.2222222   0.6666667  -0.2222222), wk =   0.0658436
        k(   17) = (   0.6666667  -0.2222222   0.6666667), wk =   0.0658436
        k(   18) = (   0.5555556  -0.1111111   0.5555556), wk =   0.0658436
        k(   19) = (   0.4444444   0.0000000   0.4444444), wk =   0.0329218
        k(   20) = (   0.0000000   0.6666667   0.0000000), wk =   0.0164609
        k(   21) = (  -0.1111111   0.7777778  -0.1111111), wk =   0.0658436
        k(   22) = (   0.7777778  -0.1111111   0.7777778), wk =   0.0658436
        k(   23) = (   0.6666667  -0.0000000   0.6666667), wk =   0.0329218
        k(   24) = (   0.0000000   0.8888889   0.0000000), wk =   0.0164609
        k(   25) = (   0.8888889   0.0000000   0.8888889), wk =   0.0329218
        k(   26) = (  -0.2222222   0.4444444   0.0000000), wk =   0.0658436
        k(   27) = (  -0.3333333   0.5555556  -0.1111111), wk =   0.1316872
        k(   28) = (   0.5555556  -0.3333333   0.7777778), wk =   0.1316872
        k(   29) = (  -0.2222222   0.6666667   0.0000000), wk =   0.0658436
        k(   30) = (   0.6666667  -0.2222222   0.8888889), wk =   0.1316872
        k(   31) = (   0.5555556  -0.1111111   0.7777778), wk =   0.1316872
        k(   32) = (   0.4444444   0.0000000   0.6666667), wk =   0.0658436
        k(   33) = (   0.7777778  -0.1111111   1.0000000), wk =   0.0658436
        k(   34) = (   0.6666667  -0.0000000   0.8888889), wk =   0.0658436
        k(   35) = (   0.5555556  -0.1111111   1.0000000), wk =   0.0658436

     Dense  grid:     1639 G-vectors     FFT dimensions: (  18,  18,  18)

     Estimated max dynamical RAM per process >       2.46 MB

     Estimated total dynamical RAM >      12.32 MB

     Check: negative/imaginary core charge=   -0.000069    0.000000

     Initial potential from superposition of free atoms

     starting charge   17.99975, renormalised to   18.00000
     Starting wfcs are   10 randomized atomic wfcs +    3 random wfcs
     Checking if some PAW data can be deallocated... 

     total cpu time spent up to now is        1.0 secs

     Self-consistent Calculation

     iteration #  1     ecut=    30.00 Ry     beta= 0.70
     Davidson diagonalization with overlap
     ethr =  1.00E-02,  avg # of iterations =  4.2

     total cpu time spent up to now is        1.4 secs

     total energy              =    -424.16408208 Ry
     Harris-Foulkes estimate   =    -425.11033406 Ry
     estimated scf accuracy    <       1.22838246 Ry

     iteration #  2     ecut=    30.00 Ry     beta= 0.70
     Davidson diagonalization with overlap
     ethr =  6.82E-03,  avg # of iterations =  2.0

     total cpu time spent up to now is        1.7 secs

     total energy              =    -424.14733183 Ry
     Harris-Foulkes estimate   =    -425.63263532 Ry
     estimated scf accuracy    <       3.80001400 Ry

     iteration #  3     ecut=    30.00 Ry     beta= 0.70
     Davidson diagonalization with overlap
     ethr =  6.82E-03,  avg # of iterations =  2.0

     total cpu time spent up to now is        2.0 secs

     total energy              =    -424.77146711 Ry
     Harris-Foulkes estimate   =    -424.77577325 Ry
     estimated scf accuracy    <       0.01320942 Ry

     iteration #  4     ecut=    30.00 Ry     beta= 0.70
     Davidson diagonalization with overlap
     ethr =  7.34E-05,  avg # of iterations =  2.1

     total cpu time spent up to now is        2.2 secs

     total energy              =    -424.77266239 Ry
     Harris-Foulkes estimate   =    -424.77288425 Ry
     estimated scf accuracy    <       0.00065375 Ry

     iteration #  5     ecut=    30.00 Ry     beta= 0.70
     Davidson diagonalization with overlap
     ethr =  3.63E-06,  avg # of iterations =  2.1

     total cpu time spent up to now is        2.5 secs

     total energy              =    -424.77278655 Ry
     Harris-Foulkes estimate   =    -424.77282792 Ry
     estimated scf accuracy    <       0.00011128 Ry

     iteration #  6     ecut=    30.00 Ry     beta= 0.70
     Davidson diagonalization with overlap
     ethr =  6.18E-07,  avg # of iterations =  1.5

     total cpu time spent up to now is        2.7 secs

     total energy              =    -424.77280428 Ry
     Harris-Foulkes estimate   =    -424.77280437 Ry
     estimated scf accuracy    <       0.00000028 Ry

     iteration #  7     ecut=    30.00 Ry     beta= 0.70
     Davidson diagonalization with overlap
     ethr =  1.55E-09,  avg # of iterations =  2.0

     total cpu time spent up to now is        3.0 secs

     total energy              =    -424.77280440 Ry
     Harris-Foulkes estimate   =    -424.77280442 Ry
     estimated scf accuracy    <       0.00000009 Ry

     iteration #  8     ecut=    30.00 Ry     beta= 0.70
     Davidson diagonalization with overlap
     ethr =  4.76E-10,  avg # of iterations =  1.4

     total cpu time spent up to now is        3.2 secs

     End of self-consistent calculation

          k = 0.0000 0.0000 0.0000 (   181 PWs)   bands (ev):

   -89.2983 -42.0722 -42.0722 -42.0722   9.6518  19.0915  19.0915  19.0915
    19.6052  19.6052  42.0349  46.0490  46.0490

          k =-0.1111 0.1111-0.1111 (   190 PWs)   bands (ev):

   -89.3293 -43.5302 -42.5798 -42.5798  10.1138  18.1312  18.1312  18.1722
    19.0230  19.0230  39.6010  43.2649  44.8911

          k =-0.2222 0.2222-0.2222 (   199 PWs)   bands (ev):

   -89.3717 -45.0526 -43.2558 -43.2558  11.4391  16.8029  17.3926  17.3926
    18.3349  18.3349  33.7982  42.4168  43.6644

          k =-0.3333 0.3333-0.3333 (   205 PWs)   bands (ev):

   -89.4013 -45.2230 -44.0812 -44.0812  13.2554  16.3370  17.2911  17.2911
    17.5418  17.5418  28.8129  41.3505  42.9557

          k =-0.4444 0.4444-0.4444 (   207 PWs)   bands (ev):

   -89.3967 -45.0325 -44.3748 -44.3748  14.6539  16.8115  16.8115  17.5579
    17.5583  17.5583  25.3448  40.6353  42.9007

          k = 0.0000 0.2222 0.0000 (   186 PWs)   bands (ev):

   -89.3058 -43.3496 -42.1039 -42.1039  10.2767  18.0123  18.7565  18.7565
    18.7888  19.8959  40.9019  42.5675  42.5675

          k =-0.1111 0.3333-0.1111 (   196 PWs)   bands (ev):

   -89.3544 -44.8058 -43.0046 -42.8928  11.3164  16.8191  17.4640  17.7558
    18.3776  19.1216  35.9898  40.6172  41.0826

          k =-0.2222 0.4444-0.2222 (   200 PWs)   bands (ev):

   -89.3712 -45.0170 -43.5930 -43.4291  13.0267  16.2142  17.2111  17.6997
    18.0774  18.7079  30.6620  39.7435  39.8723

          k =-0.3333 0.5556-0.3333 (   205 PWs)   bands (ev):

   -89.3919 -45.0065 -44.2079 -44.1997  14.5795  16.1381  16.9616  17.4876
    17.6512  18.6283  26.4088  38.5319  39.6334

          k = 0.5556-0.3333 0.5556 (   206 PWs)   bands (ev):

   -89.3902 -45.2437 -44.3243 -44.0482  14.6118  16.4963  16.9388  17.2643
    17.7107  19.6320  24.3505  37.4201  40.7407

          k = 0.4444-0.2222 0.4444 (   205 PWs)   bands (ev):

   -89.3936 -45.2021 -44.2471 -43.9391  14.1583  16.2994  16.8687  17.2888
    17.7266  18.2640  27.6617  36.9710  42.3310

          k = 0.3333-0.1111 0.3333 (   200 PWs)   bands (ev):

   -89.3745 -45.0415 -43.6382 -43.2900  12.4076  16.1964  17.2983  17.9095
    18.1942  18.2531  32.3172  37.3020  44.1569

          k = 0.2222-0.0000 0.2222 (   200 PWs)   bands (ev):

   -89.3762 -44.9276 -43.5001 -43.1302  10.8685  16.4264  17.4413  17.6549
    18.2879  18.3981  37.3114  38.6591  45.2306

          k = 0.0000 0.4444 0.0000 (   202 PWs)   bands (ev):

   -89.3913 -44.9228 -43.7993 -43.7993  12.0024  17.0111  17.0111  17.3579
    17.4904  18.0842  38.0990  38.0990  39.2553

          k =-0.1111 0.5556-0.1111 (   206 PWs)   bands (ev):

   -89.4059 -45.4454 -44.3489 -43.9079  13.2912  16.2203  17.0378  17.1030
    17.4158  17.9365  33.1110  36.7972  36.9304

          k =-0.2222 0.6667-0.2222 (   204 PWs)   bands (ev):

   -89.3864 -44.8314 -44.2545 -44.1384  14.6875  15.7277  16.8539  17.4724
    18.0345  19.6985  28.3403  34.6139  36.5974

          k = 0.6667-0.2222 0.6667 (   204 PWs)   bands (ev):

   -89.3795 -44.9011 -44.1757 -44.1121  15.2897  15.6944  16.8906  17.6830
    17.7696  21.7030  24.8715  32.9164  37.5963

          k = 0.5556-0.1111 0.5556 (   204 PWs)   bands (ev):

   -89.3834 -44.7425 -44.2759 -44.1824  15.1552  16.1297  16.4962  17.2410
    17.7959  20.5742  26.9416  32.0464  39.5812

          k = 0.4444 0.0000 0.4444 (   202 PWs)   bands (ev):

   -89.3752 -45.3909 -43.9217 -43.3118  13.9219  15.8472  16.8488  17.4198
    18.5577  18.7614  30.8972  32.5703  42.4805

          k = 0.0000 0.6667 0.0000 (   202 PWs)   bands (ev):

   -89.3820 -44.9122 -43.9791 -43.9791  14.0547  16.7548  17.3371  17.3371
    18.1100  18.1710  33.6549  35.0459  35.0459

          k =-0.1111 0.7778-0.1111 (   205 PWs)   bands (ev):

   -89.3993 -44.9144 -44.4815 -44.4000  14.7015  15.7899  17.2047  17.4427
    17.9813  19.5860  30.6924  31.7114  34.3500

          k = 0.7778-0.1111 0.7778 (   208 PWs)   bands (ev):

   -89.4093 -45.0404 -44.8656 -44.5934  14.8442  15.3927  16.5704  17.5739
    17.8166  22.2431  26.9350  29.4716  34.9107

          k = 0.6667-0.0000 0.6667 (   212 PWs)   bands (ev):

   -89.4276 -45.2064 -45.1387 -45.0046  15.0125  15.2518  15.9310  16.9314
    17.7992  22.8549  25.3396  28.9557  36.7554

          k = 0.0000 0.8889 0.0000 (   206 PWs)   bands (ev):

   -89.3988 -45.0744 -44.4964 -44.4964  14.7135  15.4718  17.7006  17.7006
    18.1657  19.8510  28.8001  33.2830  33.2830

          k = 0.8889 0.0000 0.8889 (   208 PWs)   bands (ev):

   -89.4118 -45.2094 -44.8224 -44.5934  14.3866  15.3160  17.2952  17.8503
    17.9587  21.5007  27.5515  30.5173  33.4535

          k =-0.2222 0.4444 0.0000 (   203 PWs)   bands (ev):

   -89.3930 -45.0192 -44.2829 -43.4780  12.5426  16.1681  16.9609  17.7028
    17.8083  18.0622  34.2002  35.3603  41.0019

          k =-0.3333 0.5556-0.1111 (   204 PWs)   bands (ev):

   -89.3905 -45.1995 -44.3051 -43.7019  14.1387  15.8524  16.7081  17.6333
    17.9854  18.6985  29.5444  34.4086  38.4399

          k = 0.5556-0.3333 0.7778 (   202 PWs)   bands (ev):

   -89.3699 -44.8912 -44.1685 -43.6298  15.2525  15.9820  17.0551  17.5829
    18.0855  20.5733  25.5733  34.7390  36.5528

          k =-0.2222 0.6667 0.0000 (   204 PWs)   bands (ev):

   -89.3925 -44.9110 -44.5806 -43.8667  14.4107  15.9188  16.7330  17.4943
    18.1122  19.1392  31.8268  32.6688  34.6618

          k = 0.6667-0.2222 0.8889 (   204 PWs)   bands (ev):

   -89.3871 -44.8542 -44.4743 -44.0798  15.2158  15.8442  16.7148  17.6670
    17.8476  21.1810  27.7015  31.7198  33.1559

          k = 0.5556-0.1111 0.7778 (   204 PWs)   bands (ev):

   -89.3827 -44.9879 -44.5708 -43.8346  15.3956  15.7814  16.6374  17.6873
    17.8746  23.1739  25.0643  30.5162  34.0445

          k = 0.4444 0.0000 0.6667 (   205 PWs)   bands (ev):

   -89.3944 -44.8142 -44.6225 -44.1986  15.1846  16.2192  16.2788  17.1226
    17.6699  20.6170  28.4435  30.5740  35.8576

          k = 0.7778-0.1111 1.0000 (   206 PWs)   bands (ev):

   -89.4035 -45.1785 -44.5764 -44.3743  14.6760  15.8402  17.0075  17.7918
    17.8241  21.2608  28.7188  30.4618  31.8707

          k = 0.6667-0.0000 0.8889 (   206 PWs)   bands (ev):

   -89.4002 -45.0072 -44.6982 -44.4077  15.0941  15.8935  16.5425  17.4526
    17.7402  23.7770  26.7401  28.4737  32.1696

          k = 0.5556-0.1111 1.0000 (   206 PWs)   bands (ev):

   -89.4022 -44.9793 -44.8863 -44.2768  15.1940  15.9743  16.0993  17.6313
    17.6420  23.9525  26.9004  28.8906  30.7335

     the Fermi energy is    18.2452 ev

!    total energy              =    -424.77280441 Ry
     Harris-Foulkes estimate   =    -424.77280441 Ry
     estimated scf accuracy    <          1.6E-09 Ry

     total all-electron energy =     -3037.204912 Ry

     The total energy is the sum of the following terms:

     one-electron contribution =    -177.76561036 Ry
     hartree contribution      =     101.06162667 Ry
     xc contribution           =     -34.04487378 Ry
     ewald contribution        =    -223.38275371 Ry
     one-center paw contrib.   =     -90.63992486 Ry
     smearing contrib. (-TS)   =      -0.00126837 Ry

     convergence has been achieved in   8 iterations

     Forces acting on atoms (cartesian axes, Ry/au):

     atom    1 type  1   force =     0.00000000    0.00000000    0.00000000

     Total force =     0.000000     Total SCF correction =     0.000000


     Computing stress (Cartesian axis) and pressure

          total   stress  (Ry/bohr**3)                   (kbar)     P=********
  -0.23832552  -0.00000000   0.00000000     -35058.89     -0.00      0.00
  -0.00000000  -0.23832552   0.00000000         -0.00 -35058.89      0.00
  -0.00000000   0.00000000  -0.23832552         -0.00      0.00 -35058.89


     Writing output data file Ni.save/

     init_run     :      0.26s CPU      0.28s WALL (       1 calls)
     electrons    :      1.99s CPU      2.25s WALL (       1 calls)
     forces       :      0.02s CPU      0.02s WALL (       1 calls)
     stress       :      0.05s CPU      0.05s WALL (       1 calls)

     Called by init_run:
     wfcinit      :      0.06s CPU      0.06s WALL (       1 calls)
     potinit      :      0.10s CPU      0.11s WALL (       1 calls)
     hinit0       :      0.09s CPU      0.09s WALL (       1 calls)

     Called by electrons:
     c_bands      :      1.11s CPU      1.22s WALL (       8 calls)
     sum_band     :      0.18s CPU      0.20s WALL (       8 calls)
     v_of_rho     :      0.01s CPU      0.01s WALL (       9 calls)
     newd         :      0.02s CPU      0.02s WALL (       9 calls)
     PAW_pot      :      0.77s CPU      0.90s WALL (       9 calls)
     mix_rho      :      0.00s CPU      0.00s WALL (       8 calls)

     Called by c_bands:
     init_us_2    :      0.02s CPU      0.02s WALL (     665 calls)
     cegterg      :      1.08s CPU      1.19s WALL (     280 calls)

     Called by sum_band:
     sum_band:bec :      0.00s CPU      0.00s WALL (     280 calls)
     addusdens    :      0.01s CPU      0.01s WALL (       8 calls)

     Called by *egterg:
     h_psi        :      0.71s CPU      0.79s WALL (     916 calls)
     s_psi        :      0.02s CPU      0.02s WALL (     916 calls)
     g_psi        :      0.00s CPU      0.00s WALL (     601 calls)
     cdiaghg      :      0.26s CPU      0.28s WALL (     881 calls)

     Called by h_psi:
     h_psi:pot    :      0.71s CPU      0.79s WALL (     916 calls)
     h_psi:calbec :      0.03s CPU      0.04s WALL (     916 calls)
     vloc_psi     :      0.66s CPU      0.73s WALL (     916 calls)
     add_vuspsi   :      0.02s CPU      0.02s WALL (     916 calls)

     General routines
     calbec       :      0.05s CPU      0.05s WALL (    1371 calls)
     fft          :      0.01s CPU      0.01s WALL (     125 calls)
     ffts         :      0.00s CPU      0.00s WALL (       8 calls)
     fftw         :      0.73s CPU      0.81s WALL (   21934 calls)

     Parallel routines
     fft_scatt_xy :      0.07s CPU      0.08s WALL (   22067 calls)
     fft_scatt_yz :      0.23s CPU      0.26s WALL (   22067 calls)

     PWSCF        :     3.06s CPU         3.40s WALL


   This run was terminated on:  22:31:37  26Mar2024            

=------------------------------------------------------------------------------=
   JOB DONE.
=------------------------------------------------------------------------------=
