
     Program PWSCF v.6.3MaX starts on 26Mar2024 at 22:28:28 

     This program is part of the open-source Quantum ESPRESSO suite
     for quantum simulation of materials; please cite
         "P. Giannozzi et al., J. Phys.:Condens. Matter 21 395502 (2009);
         "P. Giannozzi et al., J. Phys.:Condens. Matter 29 465901 (2017);
          URL http://www.quantum-espresso.org", 
     in publications or presentations arising from this work. More details at
     http://www.quantum-espresso.org/quote

     Parallel version (MPI), running on     5 processors

     MPI processes distributed on     1 nodes
     R & G space division:  proc/nbgrp/npool/nimage =       5
     Waiting for input...
     Reading input from standard input

     Current dimensions of program PWSCF are:
     Max number of different atomic species (ntypx) = 10
     Max number of k-points (npk) =  40000
     Max angular momentum in pseudopotentials (lmaxx) =  3
               file Ni.pbesol-spn-kjpaw_psl.1.0.0.UPF: wavefunction(s)  3P 3D renormalized

     Subspace diagonalization in iterative solution of the eigenvalue problem:
     a serial algorithm will be used


     Parallelization info
     --------------------
     sticks:   dense  smooth     PW     G-vecs:    dense   smooth      PW
     Min          30      30     11                  248      248      51
     Max          31      31     11                  251      251      52
     Sum         151     151     55                 1243     1243     259



     bravais-lattice index     =            2
     lattice parameter (alat)  =       6.6500  a.u.
     unit-cell volume          =      73.5199 (a.u.)^3
     number of atoms/cell      =            1
     number of atomic types    =            1
     number of electrons       =        18.00
     number of Kohn-Sham states=           13
     kinetic-energy cutoff     =      25.0000  Ry
     charge density cutoff     =     100.0000  Ry
     convergence threshold     =      1.0E-08
     mixing beta               =       0.7000
     number of iterations used =            8  plain     mixing
     Exchange-correlation      = SLA PW PSX PSC ( 1  4 10  8 0 0)

     celldm(1)=   6.650000  celldm(2)=   0.000000  celldm(3)=   0.000000
     celldm(4)=   0.000000  celldm(5)=   0.000000  celldm(6)=   0.000000

     crystal axes: (cart. coord. in units of alat)
               a(1) = (  -0.500000   0.000000   0.500000 )  
               a(2) = (   0.000000   0.500000   0.500000 )  
               a(3) = (  -0.500000   0.500000   0.000000 )  

     reciprocal axes: (cart. coord. in units 2 pi/alat)
               b(1) = ( -1.000000 -1.000000  1.000000 )  
               b(2) = (  1.000000  1.000000  1.000000 )  
               b(3) = ( -1.000000  1.000000 -1.000000 )  


     PseudoPot. # 1 for Ni read from file:
     /home/lorenzo/pseudos/Ni/Ni.pbesol-spn-kjpaw_psl.1.0.0.UPF
     MD5 check sum: ef06ee83099c2673f0516457bd731f51
     Pseudo is Projector augmented-wave + core cor, Zval = 18.0
     Generated using "atomic" code by A. Dal Corso v.6.3
     Shape of augmentation charge: PSQ
     Using radial grid of 1195 points,  6 beta functions with: 
                l(1) =   0
                l(2) =   0
                l(3) =   1
                l(4) =   1
                l(5) =   2
                l(6) =   2
     Q(r) pseudized with 0 coefficients 


     atomic species   valence    mass     pseudopotential
        Ni            18.00    58.69340     Ni( 1.00)

     48 Sym. Ops., with inversion, found



   Cartesian axes

     site n.     atom                  positions (alat units)
         1           Ni  tau(   1) = (   0.0000000   0.0000000   0.0000000  )

     number of k points=     4  gaussian smearing, width (Ry)=  0.0100
                       cart. coord. in units 2pi/alat
        k(    1) = (   0.0000000   0.0000000   0.0000000), wk =   0.0740741
        k(    2) = (  -0.3333333   0.3333333  -0.3333333), wk =   0.5925926
        k(    3) = (   0.0000000   0.6666667   0.0000000), wk =   0.4444444
        k(    4) = (   0.6666667  -0.0000000   0.6666667), wk =   0.8888889

     Dense  grid:     1243 G-vectors     FFT dimensions: (  15,  15,  15)

     Estimated max dynamical RAM per process >       1.81 MB

     Estimated total dynamical RAM >       9.05 MB

     Check: negative/imaginary core charge=   -0.000245    0.000000

     Initial potential from superposition of free atoms
     Check: negative starting charge=   -0.002896

     starting charge   17.99977, renormalised to   18.00000

     negative rho (up, down):  2.896E-03 0.000E+00
     Starting wfcs are   10 randomized atomic wfcs +    3 random wfcs
     Checking if some PAW data can be deallocated... 

     total cpu time spent up to now is        0.9 secs

     Self-consistent Calculation

     iteration #  1     ecut=    25.00 Ry     beta= 0.70
     Davidson diagonalization with overlap
     ethr =  1.00E-02,  avg # of iterations =  4.5

     total cpu time spent up to now is        1.1 secs

     total energy              =    -412.27196052 Ry
     Harris-Foulkes estimate   =    -417.50484700 Ry
     estimated scf accuracy    <       6.23942729 Ry

     iteration #  2     ecut=    25.00 Ry     beta= 0.70
     Davidson diagonalization with overlap
     ethr =  1.00E-02,  avg # of iterations =  2.0

     negative rho (up, down):  4.492E-04 0.000E+00

     total cpu time spent up to now is        1.2 secs

     total energy              =    -414.26560698 Ry
     Harris-Foulkes estimate   =    -418.70585880 Ry
     estimated scf accuracy    <       9.37648855 Ry

     iteration #  3     ecut=    25.00 Ry     beta= 0.70
     Davidson diagonalization with overlap
     ethr =  1.00E-02,  avg # of iterations =  2.0

     negative rho (up, down):  4.054E-04 0.000E+00

     total cpu time spent up to now is        1.3 secs

     total energy              =    -415.50674121 Ry
     Harris-Foulkes estimate   =    -415.54744579 Ry
     estimated scf accuracy    <       0.07504331 Ry

     iteration #  4     ecut=    25.00 Ry     beta= 0.70
     Davidson diagonalization with overlap
     ethr =  4.17E-04,  avg # of iterations =  2.0

     negative rho (up, down):  1.638E-04 0.000E+00

     total cpu time spent up to now is        1.4 secs

     total energy              =    -415.51715106 Ry
     Harris-Foulkes estimate   =    -415.52656381 Ry
     estimated scf accuracy    <       0.01992303 Ry

     iteration #  5     ecut=    25.00 Ry     beta= 0.70
     Davidson diagonalization with overlap
     ethr =  1.11E-04,  avg # of iterations =  2.0

     negative rho (up, down):  8.284E-05 0.000E+00

     total cpu time spent up to now is        1.6 secs

     total energy              =    -415.52100686 Ry
     Harris-Foulkes estimate   =    -415.52104915 Ry
     estimated scf accuracy    <       0.00017622 Ry

     iteration #  6     ecut=    25.00 Ry     beta= 0.70
     Davidson diagonalization with overlap
     ethr =  9.79E-07,  avg # of iterations =  2.0

     negative rho (up, down):  7.224E-05 0.000E+00

     total cpu time spent up to now is        1.8 secs

     total energy              =    -415.52103244 Ry
     Harris-Foulkes estimate   =    -415.52103285 Ry
     estimated scf accuracy    <       0.00000248 Ry

     iteration #  7     ecut=    25.00 Ry     beta= 0.70
     Davidson diagonalization with overlap
     ethr =  1.38E-08,  avg # of iterations =  1.2

     negative rho (up, down):  7.000E-05 0.000E+00

     total cpu time spent up to now is        1.9 secs

     total energy              =    -415.52103205 Ry
     Harris-Foulkes estimate   =    -415.52103257 Ry
     estimated scf accuracy    <       0.00000129 Ry

     iteration #  8     ecut=    25.00 Ry     beta= 0.70
     Davidson diagonalization with overlap
     ethr =  7.17E-09,  avg # of iterations =  2.0

     negative rho (up, down):  7.006E-05 0.000E+00

     total cpu time spent up to now is        2.1 secs

     End of self-consistent calculation

          k = 0.0000 0.0000 0.0000 (   169 PWs)   bands (ev):

   -97.9525 -48.0232 -48.0232 -48.0232   9.8517  14.0253  14.0253  15.3339
    15.3339  15.3339  42.5028  46.1077  46.1077

          k =-0.3333 0.3333-0.3333 (   153 PWs)   bands (ev):

   -97.5540 -44.9048 -44.9048 -43.0631  13.9032  17.6389  17.6389  18.4237
    19.8789  19.8789  30.5639  41.8004  43.3300

          k = 0.0000 0.6667 0.0000 (   153 PWs)   bands (ev):

   -97.4883 -44.4235 -44.4235 -43.0822  15.0525  16.8287  19.2177  19.2408
    20.0496  20.0496  34.9765  35.8927  35.8927

          k = 0.6667-0.0000 0.6667 (   164 PWs)   bands (ev):

   -97.6782 -46.5534 -46.4080 -45.8250  14.6641  15.2503  16.1802  16.4524
    17.3588  23.0448  26.3417  29.1281  37.4358

     the Fermi energy is    19.9359 ev

!    total energy              =    -415.52103225 Ry
     Harris-Foulkes estimate   =    -415.52103225 Ry
     estimated scf accuracy    <          2.1E-09 Ry

     total all-electron energy =     -3027.979377 Ry

     The total energy is the sum of the following terms:

     one-electron contribution =    -164.20008899 Ry
     hartree contribution      =      93.13838050 Ry
     xc contribution           =     -32.80934592 Ry
     ewald contribution        =    -223.38275373 Ry
     one-center paw contrib.   =     -88.26317212 Ry
     smearing contrib. (-TS)   =      -0.00405199 Ry

     convergence has been achieved in   8 iterations

     negative rho (up, down):  7.006E-05 0.000E+00

     Forces acting on atoms (cartesian axes, Ry/au):

     atom    1 type  1   force =     0.00000000    0.00000000    0.00000000

     Total force =     0.000000     Total SCF correction =     0.000000


     Computing stress (Cartesian axis) and pressure


     negative rho (up, down):  7.006E-05 0.000E+00
          total   stress  (Ry/bohr**3)                   (kbar)     P=********
  -0.51392645   0.00000000   0.00000000     -75601.18      0.00      0.00
   0.00000000  -0.51392645  -0.00000000          0.00 -75601.18     -0.00
   0.00000000  -0.00000000  -0.51392645          0.00     -0.00 -75601.18


     Writing output data file Ni.save/

     init_run     :      0.20s CPU      0.22s WALL (       1 calls)
     electrons    :      1.05s CPU      1.18s WALL (       1 calls)
     forces       :      0.01s CPU      0.01s WALL (       1 calls)
     stress       :      0.02s CPU      0.02s WALL (       1 calls)

     Called by init_run:
     wfcinit      :      0.00s CPU      0.00s WALL (       1 calls)
     potinit      :      0.09s CPU      0.10s WALL (       1 calls)
     hinit0       :      0.09s CPU      0.09s WALL (       1 calls)

     Called by electrons:
     c_bands      :      0.17s CPU      0.19s WALL (       8 calls)
     sum_band     :      0.03s CPU      0.04s WALL (       8 calls)
     v_of_rho     :      0.01s CPU      0.01s WALL (       9 calls)
     newd         :      0.04s CPU      0.04s WALL (       9 calls)
     PAW_pot      :      0.88s CPU      0.99s WALL (       9 calls)
     mix_rho      :      0.00s CPU      0.00s WALL (       8 calls)

     Called by c_bands:
     init_us_2    :      0.00s CPU      0.00s WALL (      76 calls)
     cegterg      :      0.16s CPU      0.18s WALL (      32 calls)

     Called by sum_band:
     sum_band:bec :      0.00s CPU      0.00s WALL (      32 calls)
     addusdens    :      0.01s CPU      0.01s WALL (       8 calls)

     Called by *egterg:
     h_psi        :      0.11s CPU      0.12s WALL (     107 calls)
     s_psi        :      0.00s CPU      0.00s WALL (     107 calls)
     g_psi        :      0.00s CPU      0.00s WALL (      71 calls)
     cdiaghg      :      0.04s CPU      0.04s WALL (     103 calls)

     Called by h_psi:
     h_psi:pot    :      0.11s CPU      0.12s WALL (     107 calls)
     h_psi:calbec :      0.01s CPU      0.01s WALL (     107 calls)
     vloc_psi     :      0.10s CPU      0.11s WALL (     107 calls)
     add_vuspsi   :      0.00s CPU      0.00s WALL (     107 calls)

     General routines
     calbec       :      0.01s CPU      0.01s WALL (     159 calls)
     fft          :      0.02s CPU      0.02s WALL (     125 calls)
     ffts         :      0.00s CPU      0.00s WALL (       8 calls)
     fftw         :      0.10s CPU      0.11s WALL (    2524 calls)

     Parallel routines
     fft_scatt_xy :      0.01s CPU      0.01s WALL (    2657 calls)
     fft_scatt_yz :      0.09s CPU      0.09s WALL (    2657 calls)

     PWSCF        :     2.00s CPU         2.18s WALL


   This run was terminated on:  22:28:30  26Mar2024            

=------------------------------------------------------------------------------=
   JOB DONE.
=------------------------------------------------------------------------------=
