
     Program PWSCF v.6.3MaX starts on 26Mar2024 at 22:35:14 

     This program is part of the open-source Quantum ESPRESSO suite
     for quantum simulation of materials; please cite
         "P. Giannozzi et al., J. Phys.:Condens. Matter 21 395502 (2009);
         "P. Giannozzi et al., J. Phys.:Condens. Matter 29 465901 (2017);
          URL http://www.quantum-espresso.org", 
     in publications or presentations arising from this work. More details at
     http://www.quantum-espresso.org/quote

     Parallel version (MPI), running on     5 processors

     MPI processes distributed on     1 nodes
     R & G space division:  proc/nbgrp/npool/nimage =       5
     Waiting for input...
     Reading input from standard input

     Current dimensions of program PWSCF are:
     Max number of different atomic species (ntypx) = 10
     Max number of k-points (npk) =  40000
     Max angular momentum in pseudopotentials (lmaxx) =  3
               file Ni.pbe-spn-kjpaw_psl.1.0.0.UPF: wavefunction(s)  3P 3D renormalized

     Subspace diagonalization in iterative solution of the eigenvalue problem:
     a serial algorithm will be used


     Parallelization info
     --------------------
     sticks:   dense  smooth     PW     G-vecs:    dense   smooth      PW
     Min          49      49     17                  513      513     106
     Max          51      51     17                  513      513     107
     Sum         253     253     85                 2565     2565     531



     bravais-lattice index     =            2
     lattice parameter (alat)  =       6.6500  a.u.
     unit-cell volume          =      73.5199 (a.u.)^3
     number of atoms/cell      =            1
     number of atomic types    =            1
     number of electrons       =        18.00
     number of Kohn-Sham states=           13
     kinetic-energy cutoff     =      40.0000  Ry
     charge density cutoff     =     160.0000  Ry
     convergence threshold     =      1.0E-08
     mixing beta               =       0.7000
     number of iterations used =            8  plain     mixing
     Exchange-correlation      = SLA PW PBX PBC ( 1  4  3  4 0 0)

     celldm(1)=   6.650000  celldm(2)=   0.000000  celldm(3)=   0.000000
     celldm(4)=   0.000000  celldm(5)=   0.000000  celldm(6)=   0.000000

     crystal axes: (cart. coord. in units of alat)
               a(1) = (  -0.500000   0.000000   0.500000 )  
               a(2) = (   0.000000   0.500000   0.500000 )  
               a(3) = (  -0.500000   0.500000   0.000000 )  

     reciprocal axes: (cart. coord. in units 2 pi/alat)
               b(1) = ( -1.000000 -1.000000  1.000000 )  
               b(2) = (  1.000000  1.000000  1.000000 )  
               b(3) = ( -1.000000  1.000000 -1.000000 )  


     PseudoPot. # 1 for Ni read from file:
     /home/lorenzo/pseudos/Ni/Ni.pbe-spn-kjpaw_psl.1.0.0.UPF
     MD5 check sum: 6e86b733589c3ad8389697b807d86aa7
     Pseudo is Projector augmented-wave + core cor, Zval = 18.0
     Generated using "atomic" code by A. Dal Corso v.6.3
     Shape of augmentation charge: PSQ
     Using radial grid of 1195 points,  6 beta functions with: 
                l(1) =   0
                l(2) =   0
                l(3) =   1
                l(4) =   1
                l(5) =   2
                l(6) =   2
     Q(r) pseudized with 0 coefficients 


     atomic species   valence    mass     pseudopotential
        Ni            18.00    58.69340     Ni( 1.00)

     48 Sym. Ops., with inversion, found



   Cartesian axes

     site n.     atom                  positions (alat units)
         1           Ni  tau(   1) = (   0.0000000   0.0000000   0.0000000  )

     number of k points=    20  gaussian smearing, width (Ry)=  0.0100
                       cart. coord. in units 2pi/alat
        k(    1) = (   0.0000000   0.0000000   0.0000000), wk =   0.0058309
        k(    2) = (  -0.1428571   0.1428571  -0.1428571), wk =   0.0466472
        k(    3) = (  -0.2857143   0.2857143  -0.2857143), wk =   0.0466472
        k(    4) = (  -0.4285714   0.4285714  -0.4285714), wk =   0.0466472
        k(    5) = (   0.0000000   0.2857143   0.0000000), wk =   0.0349854
        k(    6) = (  -0.1428571   0.4285714  -0.1428571), wk =   0.1399417
        k(    7) = (  -0.2857143   0.5714286  -0.2857143), wk =   0.1399417
        k(    8) = (   0.5714286  -0.2857143   0.5714286), wk =   0.1399417
        k(    9) = (   0.4285714  -0.1428571   0.4285714), wk =   0.1399417
        k(   10) = (   0.2857143  -0.0000000   0.2857143), wk =   0.0699708
        k(   11) = (   0.0000000   0.5714286   0.0000000), wk =   0.0349854
        k(   12) = (  -0.1428571   0.7142857  -0.1428571), wk =   0.1399417
        k(   13) = (   0.7142857  -0.1428571   0.7142857), wk =   0.1399417
        k(   14) = (   0.5714286   0.0000000   0.5714286), wk =   0.0699708
        k(   15) = (   0.0000000   0.8571429   0.0000000), wk =   0.0349854
        k(   16) = (   0.8571429  -0.0000000   0.8571429), wk =   0.0699708
        k(   17) = (  -0.2857143   0.5714286   0.0000000), wk =   0.1399417
        k(   18) = (   0.5714286  -0.2857143   0.8571429), wk =   0.2798834
        k(   19) = (   0.7142857  -0.1428571   1.0000000), wk =   0.1399417
        k(   20) = (   0.5714286   0.0000000   0.8571429), wk =   0.1399417

     Dense  grid:     2565 G-vectors     FFT dimensions: (  20,  20,  20)

     Estimated max dynamical RAM per process >       3.25 MB

     Estimated total dynamical RAM >      16.23 MB

     Check: negative/imaginary core charge=   -0.000044    0.000000

     Initial potential from superposition of free atoms

     starting charge   17.99975, renormalised to   18.00000
     Starting wfcs are   10 randomized atomic wfcs +    3 random wfcs
     Checking if some PAW data can be deallocated... 

     total cpu time spent up to now is        1.0 secs

     Self-consistent Calculation

     iteration #  1     ecut=    40.00 Ry     beta= 0.70
     Davidson diagonalization with overlap
     ethr =  1.00E-02,  avg # of iterations =  4.6

     Threshold (ethr) on eigenvalues was too large:
     Diagonalizing with lowered threshold

     Davidson diagonalization with overlap
     ethr =  1.61E-04,  avg # of iterations =  1.6

     total cpu time spent up to now is        1.4 secs

     total energy              =    -428.63237395 Ry
     Harris-Foulkes estimate   =    -428.64599298 Ry
     estimated scf accuracy    <       0.03021940 Ry

     iteration #  2     ecut=    40.00 Ry     beta= 0.70
     Davidson diagonalization with overlap
     ethr =  1.68E-04,  avg # of iterations =  2.0

     total cpu time spent up to now is        1.7 secs

     total energy              =    -428.62685453 Ry
     Harris-Foulkes estimate   =    -428.64771041 Ry
     estimated scf accuracy    <       0.04555222 Ry

     iteration #  3     ecut=    40.00 Ry     beta= 0.70
     Davidson diagonalization with overlap
     ethr =  1.68E-04,  avg # of iterations =  2.0

     total cpu time spent up to now is        1.9 secs

     total energy              =    -428.63818807 Ry
     Harris-Foulkes estimate   =    -428.64065245 Ry
     estimated scf accuracy    <       0.00837136 Ry

     iteration #  4     ecut=    40.00 Ry     beta= 0.70
     Davidson diagonalization with overlap
     ethr =  4.65E-05,  avg # of iterations =  1.9

     total cpu time spent up to now is        2.1 secs

     total energy              =    -428.63929757 Ry
     Harris-Foulkes estimate   =    -428.63929552 Ry
     estimated scf accuracy    <       0.00003562 Ry

     iteration #  5     ecut=    40.00 Ry     beta= 0.70
     Davidson diagonalization with overlap
     ethr =  1.98E-07,  avg # of iterations =  2.5

     total cpu time spent up to now is        2.3 secs

     total energy              =    -428.63931734 Ry
     Harris-Foulkes estimate   =    -428.63931848 Ry
     estimated scf accuracy    <       0.00000368 Ry

     iteration #  6     ecut=    40.00 Ry     beta= 0.70
     Davidson diagonalization with overlap
     ethr =  2.04E-08,  avg # of iterations =  1.4

     total cpu time spent up to now is        2.5 secs

     total energy              =    -428.63931783 Ry
     Harris-Foulkes estimate   =    -428.63931781 Ry
     estimated scf accuracy    <       0.00000003 Ry

     iteration #  7     ecut=    40.00 Ry     beta= 0.70
     Davidson diagonalization with overlap
     ethr =  1.75E-10,  avg # of iterations =  2.1

     total cpu time spent up to now is        2.8 secs

     End of self-consistent calculation

          k = 0.0000 0.0000 0.0000 (   331 PWs)   bands (ev):

   -85.7159 -45.5552 -45.5552 -45.5552   8.9527  15.8420  15.8420  15.8420
    16.8800  16.8800  41.4617  45.4028  45.4028

          k =-0.1429 0.1429-0.1429 (   320 PWs)   bands (ev):

   -85.7062 -45.4697 -45.4697 -45.3976   9.7480  15.7401  16.0348  16.0348
    16.9427  16.9427  37.6908  42.4267  44.0579

          k =-0.2857 0.2857-0.2857 (   305 PWs)   bands (ev):

   -85.6865 -45.2949 -45.2949 -45.2596  11.7799  15.6132  16.1354  16.1354
    17.4144  17.4144  30.7104  41.2526  42.9308

          k =-0.4286 0.4286-0.4286 (   317 PWs)   bands (ev):

   -85.6776 -45.4785 -45.3946 -45.3946  13.3099  15.9316  15.9316  16.8930
    17.6877  17.6877  25.1014  40.1465  42.5432

          k = 0.0000 0.2857 0.0000 (   315 PWs)   bands (ev):

   -85.7022 -45.3998 -45.3998 -45.3582  10.0103  15.5561  16.2665  16.2665
    16.6976  17.1300  39.8403  40.7691  40.7691

          k =-0.1429 0.4286-0.1429 (   315 PWs)   bands (ev):

   -85.6903 -45.4606 -45.4168 -45.3339  11.6086  15.2244  16.1474  16.4150
    17.0544  17.4110  33.4190  38.8130  39.4685

          k =-0.2857 0.5714-0.2857 (   319 PWs)   bands (ev):

   -85.6785 -45.5448 -45.4411 -45.3878  13.4469  15.3984  15.8243  16.2798
    17.7507  18.3972  27.0339  37.4510  38.4003

          k = 0.5714-0.2857 0.5714 (   316 PWs)   bands (ev):

   -85.6732 -45.4607 -45.3996 -45.3982  13.8665  15.5363  16.1553  16.1945
    17.6633  19.8448  24.2965  35.7068  39.7964

          k = 0.4286-0.1429 0.4286 (   311 PWs)   bands (ev):

   -85.6801 -45.4454 -45.3532 -45.2874  13.0182  15.4383  15.8321  16.3631
    17.2298  18.2624  29.0384  35.1721  42.3216

          k = 0.2857-0.0000 0.2857 (   317 PWs)   bands (ev):

   -85.6963 -45.4678 -45.4243 -45.3894  10.9572  15.4793  16.1123  16.3038
    16.6939  17.3683  35.4190  36.3738  45.4880

          k = 0.0000 0.5714 0.0000 (   311 PWs)   bands (ev):

   -85.6824 -45.3901 -45.3816 -45.3816  12.4957  14.7783  16.4394  17.1181
    17.1181  17.4688  35.9887  36.0039  36.0039

          k =-0.1429 0.7143-0.1429 (   313 PWs)   bands (ev):

   -85.6723 -45.5095 -45.4022 -45.3099  13.6439  14.5659  16.3694  17.1417
    17.8109  18.8044  30.2763  32.7231  34.9238

          k = 0.7143-0.1429 0.7143 (   309 PWs)   bands (ev):

   -85.6654 -45.3554 -45.3552 -45.3283  14.3902  14.7685  15.9305  16.9580
    17.8324  22.4276  24.9812  30.3088  35.9408

          k = 0.5714 0.0000 0.5714 (   319 PWs)   bands (ev):

   -85.6720 -45.5120 -45.4551 -45.3868  14.4358  15.1190  15.3521  16.6965
    17.2561  20.4715  27.6172  29.7751  38.8064

          k = 0.0000 0.8571 0.0000 (   322 PWs)   bands (ev):

   -85.6698 -45.5822 -45.4934 -45.4934  13.5043  14.1689  17.6568  17.8024
    17.8024  19.0923  28.9480  33.0502  33.0502

          k = 0.8571-0.0000 0.8571 (   314 PWs)   bands (ev):

   -85.6644 -45.4536 -45.4514 -45.3548  13.8398  14.2640  17.0840  17.4982
    17.9416  21.7250  27.4692  29.2024  33.4314

          k =-0.2857 0.5714 0.0000 (   314 PWs)   bands (ev):

   -85.6794 -45.5073 -45.3691 -45.3534  13.2234  14.9658  15.7230  16.9800
    17.1477  18.3359  31.6916  32.6665  37.3056

          k = 0.5714-0.2857 0.8571 (   313 PWs)   bands (ev):

   -85.6693 -45.4157 -45.3963 -45.3601  14.3962  15.0024  15.5268  16.7534
    17.6689  20.8548  26.1144  32.4000  34.4313

          k = 0.7143-0.1429 1.0000 (   311 PWs)   bands (ev):

   -85.6649 -45.4398 -45.3810 -45.3026  14.0690  14.5518  16.2741  17.3734
    17.8965  21.4286  29.3316  29.3527  30.9842

          k = 0.5714 0.0000 0.8571 (   317 PWs)   bands (ev):

   -85.6656 -45.4759 -45.4624 -45.3767  14.4527  14.8822  15.5880  16.9935
    17.8501  24.6257  25.0109  28.4181  31.6779

     the Fermi energy is    17.8401 ev

!    total energy              =    -428.63931784 Ry
     Harris-Foulkes estimate   =    -428.63931784 Ry
     estimated scf accuracy    <          7.1E-10 Ry

     total all-electron energy =     -3041.071425 Ry

     The total energy is the sum of the following terms:

     one-electron contribution =    -184.32823616 Ry
     hartree contribution      =     104.34223629 Ry
     xc contribution           =     -34.30658055 Ry
     ewald contribution        =    -223.38275372 Ry
     one-center paw contrib.   =     -90.96160931 Ry
     smearing contrib. (-TS)   =      -0.00237437 Ry

     convergence has been achieved in   7 iterations

     Forces acting on atoms (cartesian axes, Ry/au):

     atom    1 type  1   force =     0.00000000    0.00000000    0.00000000

     Total force =     0.000000     Total SCF correction =     0.000000


     Computing stress (Cartesian axis) and pressure

          total   stress  (Ry/bohr**3)                   (kbar)     P=-6195.11
  -0.04211353   0.00000000   0.00000000      -6195.11      0.00      0.00
   0.00000000  -0.04211353   0.00000000          0.00  -6195.11      0.00
  -0.00000000   0.00000000  -0.04211353         -0.00      0.00  -6195.11


     Writing output data file Ni.save/

     init_run     :      0.26s CPU      0.28s WALL (       1 calls)
     electrons    :      1.63s CPU      1.81s WALL (       1 calls)
     forces       :      0.04s CPU      0.04s WALL (       1 calls)
     stress       :      0.07s CPU      0.07s WALL (       1 calls)

     Called by init_run:
     wfcinit      :      0.04s CPU      0.04s WALL (       1 calls)
     potinit      :      0.10s CPU      0.12s WALL (       1 calls)
     hinit0       :      0.10s CPU      0.10s WALL (       1 calls)

     Called by electrons:
     c_bands      :      0.79s CPU      0.87s WALL (       8 calls)
     sum_band     :      0.15s CPU      0.17s WALL (       8 calls)
     v_of_rho     :      0.01s CPU      0.01s WALL (       8 calls)
     newd         :      0.02s CPU      0.02s WALL (       8 calls)
     PAW_pot      :      0.75s CPU      0.85s WALL (       8 calls)
     mix_rho      :      0.00s CPU      0.00s WALL (       8 calls)

     Called by c_bands:
     init_us_2    :      0.02s CPU      0.03s WALL (     380 calls)
     cegterg      :      0.76s CPU      0.83s WALL (     160 calls)

     Called by sum_band:
     sum_band:bec :      0.00s CPU      0.00s WALL (     160 calls)
     addusdens    :      0.02s CPU      0.02s WALL (       8 calls)

     Called by *egterg:
     h_psi        :      0.50s CPU      0.55s WALL (     543 calls)
     s_psi        :      0.01s CPU      0.02s WALL (     543 calls)
     g_psi        :      0.00s CPU      0.00s WALL (     363 calls)
     cdiaghg      :      0.18s CPU      0.19s WALL (     503 calls)

     Called by h_psi:
     h_psi:pot    :      0.50s CPU      0.55s WALL (     543 calls)
     h_psi:calbec :      0.02s CPU      0.03s WALL (     543 calls)
     vloc_psi     :      0.46s CPU      0.50s WALL (     543 calls)
     add_vuspsi   :      0.02s CPU      0.02s WALL (     543 calls)

     General routines
     calbec       :      0.05s CPU      0.05s WALL (     803 calls)
     fft          :      0.01s CPU      0.01s WALL (     115 calls)
     ffts         :      0.00s CPU      0.00s WALL (       8 calls)
     fftw         :      0.51s CPU      0.57s WALL (   12564 calls)

     Parallel routines
     fft_scatt_xy :      0.05s CPU      0.05s WALL (   12687 calls)
     fft_scatt_yz :      0.17s CPU      0.19s WALL (   12687 calls)

     PWSCF        :     2.75s CPU         3.01s WALL


   This run was terminated on:  22:35:17  26Mar2024            

=------------------------------------------------------------------------------=
   JOB DONE.
=------------------------------------------------------------------------------=
