
     Program PWSCF v.6.3MaX starts on 26Mar2024 at 22:19:27 

     This program is part of the open-source Quantum ESPRESSO suite
     for quantum simulation of materials; please cite
         "P. Giannozzi et al., J. Phys.:Condens. Matter 21 395502 (2009);
         "P. Giannozzi et al., J. Phys.:Condens. Matter 29 465901 (2017);
          URL http://www.quantum-espresso.org", 
     in publications or presentations arising from this work. More details at
     http://www.quantum-espresso.org/quote

     Parallel version (MPI), running on     5 processors

     MPI processes distributed on     1 nodes
     R & G space division:  proc/nbgrp/npool/nimage =       5
     Waiting for input...
     Reading input from standard input

     Current dimensions of program PWSCF are:
     Max number of different atomic species (ntypx) = 10
     Max number of k-points (npk) =  40000
     Max angular momentum in pseudopotentials (lmaxx) =  3
               file Ni.pbesol-spn-kjpaw_psl.1.0.0.UPF: wavefunction(s)  3P 3D renormalized

     Subspace diagonalization in iterative solution of the eigenvalue problem:
     a serial algorithm will be used


     Parallelization info
     --------------------
     sticks:   dense  smooth     PW     G-vecs:    dense   smooth      PW
     Min         119     119     37                 1967     1967     327
     Max         119     119     38                 1969     1969     329
     Sum         595     595    187                 9841     9841    1639



     bravais-lattice index     =            2
     lattice parameter (alat)  =       6.6500  a.u.
     unit-cell volume          =      73.5199 (a.u.)^3
     number of atoms/cell      =            1
     number of atomic types    =            1
     number of electrons       =        18.00
     number of Kohn-Sham states=           13
     kinetic-energy cutoff     =     100.0000  Ry
     charge density cutoff     =     400.0000  Ry
     convergence threshold     =      1.0E-08
     mixing beta               =       0.7000
     number of iterations used =            8  plain     mixing
     Exchange-correlation      = SLA PW PSX PSC ( 1  4 10  8 0 0)

     celldm(1)=   6.650000  celldm(2)=   0.000000  celldm(3)=   0.000000
     celldm(4)=   0.000000  celldm(5)=   0.000000  celldm(6)=   0.000000

     crystal axes: (cart. coord. in units of alat)
               a(1) = (  -0.500000   0.000000   0.500000 )  
               a(2) = (   0.000000   0.500000   0.500000 )  
               a(3) = (  -0.500000   0.500000   0.000000 )  

     reciprocal axes: (cart. coord. in units 2 pi/alat)
               b(1) = ( -1.000000 -1.000000  1.000000 )  
               b(2) = (  1.000000  1.000000  1.000000 )  
               b(3) = ( -1.000000  1.000000 -1.000000 )  


     PseudoPot. # 1 for Ni read from file:
     /home/lorenzo/pseudos/Ni/Ni.pbesol-spn-kjpaw_psl.1.0.0.UPF
     MD5 check sum: ef06ee83099c2673f0516457bd731f51
     Pseudo is Projector augmented-wave + core cor, Zval = 18.0
     Generated using "atomic" code by A. Dal Corso v.6.3
     Shape of augmentation charge: PSQ
     Using radial grid of 1195 points,  6 beta functions with: 
                l(1) =   0
                l(2) =   0
                l(3) =   1
                l(4) =   1
                l(5) =   2
                l(6) =   2
     Q(r) pseudized with 0 coefficients 


     atomic species   valence    mass     pseudopotential
        Ni            18.00    58.69340     Ni( 1.00)

     48 Sym. Ops., with inversion, found



   Cartesian axes

     site n.     atom                  positions (alat units)
         1           Ni  tau(   1) = (   0.0000000   0.0000000   0.0000000  )

     number of k points=     4  gaussian smearing, width (Ry)=  0.0100
                       cart. coord. in units 2pi/alat
        k(    1) = (   0.0000000   0.0000000   0.0000000), wk =   0.0740741
        k(    2) = (  -0.3333333   0.3333333  -0.3333333), wk =   0.5925926
        k(    3) = (   0.0000000   0.6666667   0.0000000), wk =   0.4444444
        k(    4) = (   0.6666667  -0.0000000   0.6666667), wk =   0.8888889

     Dense  grid:     9841 G-vectors     FFT dimensions: (  30,  30,  30)

     Estimated max dynamical RAM per process >       9.24 MB

     Estimated total dynamical RAM >      46.20 MB

     Check: negative/imaginary core charge=   -0.000004    0.000000

     Initial potential from superposition of free atoms

     starting charge   17.99977, renormalised to   18.00000
     Starting wfcs are   10 randomized atomic wfcs +    3 random wfcs
     Checking if some PAW data can be deallocated... 

     total cpu time spent up to now is        1.2 secs

     Self-consistent Calculation

     iteration #  1     ecut=   100.00 Ry     beta= 0.70
     Davidson diagonalization with overlap
     ethr =  1.00E-02,  avg # of iterations =  4.0

     Threshold (ethr) on eigenvalues was too large:
     Diagonalizing with lowered threshold

     Davidson diagonalization with overlap
     ethr =  2.39E-05,  avg # of iterations =  4.2

     total cpu time spent up to now is        1.5 secs

     total energy              =    -426.55263965 Ry
     Harris-Foulkes estimate   =    -426.55569416 Ry
     estimated scf accuracy    <       0.00417366 Ry

     iteration #  2     ecut=   100.00 Ry     beta= 0.70
     Davidson diagonalization with overlap
     ethr =  2.32E-05,  avg # of iterations =  3.0

     total cpu time spent up to now is        1.7 secs

     total energy              =    -426.55254319 Ry
     Harris-Foulkes estimate   =    -426.55784705 Ry
     estimated scf accuracy    <       0.01342779 Ry

     iteration #  3     ecut=   100.00 Ry     beta= 0.70
     Davidson diagonalization with overlap
     ethr =  2.32E-05,  avg # of iterations =  2.2

     total cpu time spent up to now is        1.9 secs

     total energy              =    -426.55491727 Ry
     Harris-Foulkes estimate   =    -426.55491583 Ry
     estimated scf accuracy    <       0.00002523 Ry

     iteration #  4     ecut=   100.00 Ry     beta= 0.70
     Davidson diagonalization with overlap
     ethr =  1.40E-07,  avg # of iterations =  2.5

     total cpu time spent up to now is        2.1 secs

     total energy              =    -426.55492689 Ry
     Harris-Foulkes estimate   =    -426.55492701 Ry
     estimated scf accuracy    <       0.00000032 Ry

     iteration #  5     ecut=   100.00 Ry     beta= 0.70
     Davidson diagonalization with overlap
     ethr =  1.78E-09,  avg # of iterations =  2.2

     total cpu time spent up to now is        2.3 secs

     total energy              =    -426.55492699 Ry
     Harris-Foulkes estimate   =    -426.55492700 Ry
     estimated scf accuracy    <       0.00000001 Ry

     iteration #  6     ecut=   100.00 Ry     beta= 0.70
     Davidson diagonalization with overlap
     ethr =  5.95E-11,  avg # of iterations =  2.8

     total cpu time spent up to now is        2.5 secs

     End of self-consistent calculation

          k = 0.0000 0.0000 0.0000 (  1243 PWs)   bands (ev):

   -85.5974 -45.9923 -45.9923 -45.9923   8.5824  15.3946  15.3946  15.3946
    16.4677  16.4677  41.3006  45.1688  45.1688

          k =-0.3333 0.3333-0.3333 (  1236 PWs)   bands (ev):

   -85.5720 -46.1573 -46.0161 -46.0161  12.0623  15.3261  15.4930  15.4930
    16.8512  16.8512  28.1564  40.6206  42.4974

          k = 0.0000 0.6667 0.0000 (  1258 PWs)   bands (ev):

   -85.5637 -46.1496 -46.0542 -46.0542  12.7232  14.0156  16.4915  16.7699
    16.7699  17.0008  33.2229  34.5225  34.5225

          k = 0.6667-0.0000 0.6667 (  1234 PWs)   bands (ev):

   -85.5552 -46.1411 -46.1402 -46.0471  14.0824  14.2567  15.1956  16.3585
    16.9445  22.4042  25.1386  28.1619  36.3635

     the Fermi energy is    16.9316 ev

!    total energy              =    -426.55492699 Ry
     Harris-Foulkes estimate   =    -426.55492699 Ry
     estimated scf accuracy    <          3.6E-10 Ry

     total all-electron energy =     -3039.013272 Ry

     The total energy is the sum of the following terms:

     one-electron contribution =    -184.52071758 Ry
     hartree contribution      =     104.09099924 Ry
     xc contribution           =     -33.87549188 Ry
     ewald contribution        =    -223.38275369 Ry
     one-center paw contrib.   =     -88.86054246 Ry
     smearing contrib. (-TS)   =      -0.00642062 Ry

     convergence has been achieved in   6 iterations

     Forces acting on atoms (cartesian axes, Ry/au):

     atom    1 type  1   force =     0.00000000    0.00000000    0.00000000

     Total force =     0.000000     Total SCF correction =     0.000000


     Computing stress (Cartesian axis) and pressure

          total   stress  (Ry/bohr**3)                   (kbar)     P=  -27.47
  -0.00018672   0.00000000   0.00000000        -27.47      0.00      0.00
   0.00000000  -0.00018672  -0.00000000          0.00    -27.47     -0.00
   0.00000000  -0.00000000  -0.00018672          0.00     -0.00    -27.47


     Writing output data file Ni.save/

     init_run     :      0.32s CPU      0.35s WALL (       1 calls)
     electrons    :      1.24s CPU      1.30s WALL (       1 calls)
     forces       :      0.04s CPU      0.04s WALL (       1 calls)
     stress       :      0.12s CPU      0.12s WALL (       1 calls)

     Called by init_run:
     wfcinit      :      0.02s CPU      0.02s WALL (       1 calls)
     potinit      :      0.10s CPU      0.12s WALL (       1 calls)
     hinit0       :      0.17s CPU      0.18s WALL (       1 calls)

     Called by electrons:
     c_bands      :      0.39s CPU      0.41s WALL (       7 calls)
     sum_band     :      0.16s CPU      0.16s WALL (       7 calls)
     v_of_rho     :      0.04s CPU      0.04s WALL (       7 calls)
     newd         :      0.08s CPU      0.09s WALL (       7 calls)
     PAW_pot      :      0.66s CPU      0.71s WALL (       7 calls)
     mix_rho      :      0.00s CPU      0.00s WALL (       7 calls)

     Called by c_bands:
     init_us_2    :      0.01s CPU      0.01s WALL (      68 calls)
     cegterg      :      0.38s CPU      0.39s WALL (      28 calls)

     Called by sum_band:
     sum_band:bec :      0.00s CPU      0.00s WALL (      28 calls)
     addusdens    :      0.07s CPU      0.07s WALL (       7 calls)

     Called by *egterg:
     h_psi        :      0.28s CPU      0.29s WALL (     116 calls)
     s_psi        :      0.01s CPU      0.01s WALL (     116 calls)
     g_psi        :      0.00s CPU      0.00s WALL (      84 calls)
     cdiaghg      :      0.04s CPU      0.04s WALL (     108 calls)

     Called by h_psi:
     h_psi:pot    :      0.28s CPU      0.29s WALL (     116 calls)
     h_psi:calbec :      0.01s CPU      0.01s WALL (     116 calls)
     vloc_psi     :      0.25s CPU      0.27s WALL (     116 calls)
     add_vuspsi   :      0.01s CPU      0.01s WALL (     116 calls)

     General routines
     calbec       :      0.02s CPU      0.02s WALL (     164 calls)
     fft          :      0.04s CPU      0.04s WALL (     104 calls)
     ffts         :      0.00s CPU      0.00s WALL (       7 calls)
     fftw         :      0.30s CPU      0.31s WALL (    2338 calls)

     Parallel routines
     fft_scatt_xy :      0.03s CPU      0.03s WALL (    2449 calls)
     fft_scatt_yz :      0.11s CPU      0.11s WALL (    2449 calls)

     PWSCF        :     2.53s CPU         2.65s WALL


   This run was terminated on:  22:19:29  26Mar2024            

=------------------------------------------------------------------------------=
   JOB DONE.
=------------------------------------------------------------------------------=
