
     Program PWSCF v.6.3MaX starts on 26Mar2024 at 23: 3:21 

     This program is part of the open-source Quantum ESPRESSO suite
     for quantum simulation of materials; please cite
         "P. Giannozzi et al., J. Phys.:Condens. Matter 21 395502 (2009);
         "P. Giannozzi et al., J. Phys.:Condens. Matter 29 465901 (2017);
          URL http://www.quantum-espresso.org", 
     in publications or presentations arising from this work. More details at
     http://www.quantum-espresso.org/quote

     Parallel version (MPI), running on     5 processors

     MPI processes distributed on     1 nodes
     R & G space division:  proc/nbgrp/npool/nimage =       5
     Waiting for input...
     Reading input from standard input

     Current dimensions of program PWSCF are:
     Max number of different atomic species (ntypx) = 10
     Max number of k-points (npk) =  40000
     Max angular momentum in pseudopotentials (lmaxx) =  3

     Subspace diagonalization in iterative solution of the eigenvalue problem:
     a serial algorithm will be used


     Parallelization info
     --------------------
     sticks:   dense  smooth     PW     G-vecs:    dense   smooth      PW
     Min         111     111     32                 1688     1688     290
     Max         112     112     33                 1689     1689     293
     Sum         559     559    163                 8441     8441    1459



     bravais-lattice index     =            2
     lattice parameter (alat)  =       6.6500  a.u.
     unit-cell volume          =      73.5199 (a.u.)^3
     number of atoms/cell      =            1
     number of atomic types    =            1
     number of electrons       =        18.00
     number of Kohn-Sham states=           13
     kinetic-energy cutoff     =      90.0000  Ry
     charge density cutoff     =     360.0000  Ry
     convergence threshold     =      1.0E-08
     mixing beta               =       0.7000
     number of iterations used =            8  plain     mixing
     Exchange-correlation      = PBESOL ( 1  4 10  8 0 0)

     celldm(1)=   6.650000  celldm(2)=   0.000000  celldm(3)=   0.000000
     celldm(4)=   0.000000  celldm(5)=   0.000000  celldm(6)=   0.000000

     crystal axes: (cart. coord. in units of alat)
               a(1) = (  -0.500000   0.000000   0.500000 )  
               a(2) = (   0.000000   0.500000   0.500000 )  
               a(3) = (  -0.500000   0.500000   0.000000 )  

     reciprocal axes: (cart. coord. in units 2 pi/alat)
               b(1) = ( -1.000000 -1.000000  1.000000 )  
               b(2) = (  1.000000  1.000000  1.000000 )  
               b(3) = ( -1.000000  1.000000 -1.000000 )  


     PseudoPot. # 1 for Ni read from file:
     /home/lorenzo/pseudos/Ni/Ni.pbesol-spn-rrkjus_psl.1.0.0.UPF
     MD5 check sum: 6fc0a587bf949a08f2faed986b854013
     Pseudo is Ultrasoft + core correction, Zval = 18.0
     Generated using "atomic" code by A. Dal Corso v.6.3
     Using radial grid of 1195 points,  6 beta functions with: 
                l(1) =   0
                l(2) =   0
                l(3) =   1
                l(4) =   1
                l(5) =   2
                l(6) =   2
     Q(r) pseudized with 0 coefficients 


     atomic species   valence    mass     pseudopotential
        Ni            18.00    58.69340     Ni( 1.00)

     48 Sym. Ops., with inversion, found



   Cartesian axes

     site n.     atom                  positions (alat units)
         1           Ni  tau(   1) = (   0.0000000   0.0000000   0.0000000  )

     number of k points=    35  gaussian smearing, width (Ry)=  0.0100
                       cart. coord. in units 2pi/alat
        k(    1) = (   0.0000000   0.0000000   0.0000000), wk =   0.0027435
        k(    2) = (  -0.1111111   0.1111111  -0.1111111), wk =   0.0219479
        k(    3) = (  -0.2222222   0.2222222  -0.2222222), wk =   0.0219479
        k(    4) = (  -0.3333333   0.3333333  -0.3333333), wk =   0.0219479
        k(    5) = (  -0.4444444   0.4444444  -0.4444444), wk =   0.0219479
        k(    6) = (   0.0000000   0.2222222   0.0000000), wk =   0.0164609
        k(    7) = (  -0.1111111   0.3333333  -0.1111111), wk =   0.0658436
        k(    8) = (  -0.2222222   0.4444444  -0.2222222), wk =   0.0658436
        k(    9) = (  -0.3333333   0.5555556  -0.3333333), wk =   0.0658436
        k(   10) = (   0.5555556  -0.3333333   0.5555556), wk =   0.0658436
        k(   11) = (   0.4444444  -0.2222222   0.4444444), wk =   0.0658436
        k(   12) = (   0.3333333  -0.1111111   0.3333333), wk =   0.0658436
        k(   13) = (   0.2222222  -0.0000000   0.2222222), wk =   0.0329218
        k(   14) = (   0.0000000   0.4444444   0.0000000), wk =   0.0164609
        k(   15) = (  -0.1111111   0.5555556  -0.1111111), wk =   0.0658436
        k(   16) = (  -0.2222222   0.6666667  -0.2222222), wk =   0.0658436
        k(   17) = (   0.6666667  -0.2222222   0.6666667), wk =   0.0658436
        k(   18) = (   0.5555556  -0.1111111   0.5555556), wk =   0.0658436
        k(   19) = (   0.4444444   0.0000000   0.4444444), wk =   0.0329218
        k(   20) = (   0.0000000   0.6666667   0.0000000), wk =   0.0164609
        k(   21) = (  -0.1111111   0.7777778  -0.1111111), wk =   0.0658436
        k(   22) = (   0.7777778  -0.1111111   0.7777778), wk =   0.0658436
        k(   23) = (   0.6666667  -0.0000000   0.6666667), wk =   0.0329218
        k(   24) = (   0.0000000   0.8888889   0.0000000), wk =   0.0164609
        k(   25) = (   0.8888889   0.0000000   0.8888889), wk =   0.0329218
        k(   26) = (  -0.2222222   0.4444444   0.0000000), wk =   0.0658436
        k(   27) = (  -0.3333333   0.5555556  -0.1111111), wk =   0.1316872
        k(   28) = (   0.5555556  -0.3333333   0.7777778), wk =   0.1316872
        k(   29) = (  -0.2222222   0.6666667   0.0000000), wk =   0.0658436
        k(   30) = (   0.6666667  -0.2222222   0.8888889), wk =   0.1316872
        k(   31) = (   0.5555556  -0.1111111   0.7777778), wk =   0.1316872
        k(   32) = (   0.4444444   0.0000000   0.6666667), wk =   0.0658436
        k(   33) = (   0.7777778  -0.1111111   1.0000000), wk =   0.0658436
        k(   34) = (   0.6666667  -0.0000000   0.8888889), wk =   0.0658436
        k(   35) = (   0.5555556  -0.1111111   1.0000000), wk =   0.0658436

     Dense  grid:     8441 G-vectors     FFT dimensions: (  30,  30,  30)

     Estimated max dynamical RAM per process >       9.43 MB

     Estimated total dynamical RAM >      47.17 MB

     Check: negative/imaginary core charge=   -0.000002    0.000000

     Initial potential from superposition of free atoms

     starting charge   17.99977, renormalised to   18.00000
     Starting wfcs are   10 randomized atomic wfcs +    3 random wfcs

     total cpu time spent up to now is        1.0 secs

     Self-consistent Calculation

     iteration #  1     ecut=    90.00 Ry     beta= 0.70
     Davidson diagonalization with overlap
     ethr =  1.00E-02,  avg # of iterations =  3.5

     Threshold (ethr) on eigenvalues was too large:
     Diagonalizing with lowered threshold

     Davidson diagonalization with overlap
     ethr =  1.10E-05,  avg # of iterations =  3.4

     total cpu time spent up to now is        2.5 secs

     total energy              =    -339.40092592 Ry
     Harris-Foulkes estimate   =    -339.40171713 Ry
     estimated scf accuracy    <       0.00192343 Ry

     iteration #  2     ecut=    90.00 Ry     beta= 0.70
     Davidson diagonalization with overlap
     ethr =  1.07E-05,  avg # of iterations =  2.0

     total cpu time spent up to now is        3.0 secs

     total energy              =    -339.40057124 Ry
     Harris-Foulkes estimate   =    -339.40158650 Ry
     estimated scf accuracy    <       0.00204691 Ry

     iteration #  3     ecut=    90.00 Ry     beta= 0.70
     Davidson diagonalization with overlap
     ethr =  1.07E-05,  avg # of iterations =  2.0

     total cpu time spent up to now is        3.5 secs

     total energy              =    -339.40108830 Ry
     Harris-Foulkes estimate   =    -339.40135071 Ry
     estimated scf accuracy    <       0.00077965 Ry

     iteration #  4     ecut=    90.00 Ry     beta= 0.70
     Davidson diagonalization with overlap
     ethr =  4.33E-06,  avg # of iterations =  1.5

     total cpu time spent up to now is        3.9 secs

     total energy              =    -339.40120349 Ry
     Harris-Foulkes estimate   =    -339.40120335 Ry
     estimated scf accuracy    <       0.00000030 Ry

     iteration #  5     ecut=    90.00 Ry     beta= 0.70
     Davidson diagonalization with overlap
     ethr =  1.68E-09,  avg # of iterations =  3.1

     total cpu time spent up to now is        4.6 secs

     total energy              =    -339.40120586 Ry
     Harris-Foulkes estimate   =    -339.40120596 Ry
     estimated scf accuracy    <       0.00000037 Ry

     iteration #  6     ecut=    90.00 Ry     beta= 0.70
     Davidson diagonalization with overlap
     ethr =  1.68E-09,  avg # of iterations =  1.0

     total cpu time spent up to now is        5.0 secs

     total energy              =    -339.40120586 Ry
     Harris-Foulkes estimate   =    -339.40120588 Ry
     estimated scf accuracy    <       0.00000006 Ry

     iteration #  7     ecut=    90.00 Ry     beta= 0.70
     Davidson diagonalization with overlap
     ethr =  3.58E-10,  avg # of iterations =  1.1

     total cpu time spent up to now is        5.4 secs

     End of self-consistent calculation

          k = 0.0000 0.0000 0.0000 (  1067 PWs)   bands (ev):

   -85.1776 -45.5873 -45.5873 -45.5873   8.6032  15.6997  15.6997  15.6997
    16.8268  16.8268  41.2801  45.1993  45.1993

          k =-0.1111 0.1111-0.1111 (  1046 PWs)   bands (ev):

   -85.1735 -45.6129 -45.5907 -45.5907   9.0828  15.5732  15.8006  15.8006
    16.7889  16.7889  39.0666  42.4568  44.2663

          k =-0.2222 0.2222-0.2222 (  1059 PWs)   bands (ev):

   -85.1634 -45.6802 -45.6004 -45.6004  10.4255  15.3395  15.9181  15.9181
    16.8512  16.8512  33.5139  41.6310  43.1953

          k =-0.3333 0.3333-0.3333 (  1059 PWs)   bands (ev):

   -85.1518 -45.7557 -45.6112 -45.6112  12.1387  15.5271  15.8113  15.8113
    17.2024  17.2024  28.2717  40.6067  42.5692

          k =-0.4444 0.4444-0.4444 (  1062 PWs)   bands (ev):

   -85.1442 -45.8046 -45.6183 -45.6183  13.0104  15.6810  15.6810  16.8983
    17.5174  17.5174  24.2910  39.8862  42.3393

          k = 0.0000 0.2222 0.0000 (  1046 PWs)   bands (ev):

   -85.1722 -45.6123 -45.5966 -45.5966   9.2409  15.4651  15.8826  15.8826
    16.6155  16.9101  40.1907  41.8160  41.8160

          k =-0.1111 0.3333-0.1111 (  1048 PWs)   bands (ev):

   -85.1641 -45.6619 -45.6079 -45.6042  10.2951  15.2085  15.9986  16.0628
    16.5650  17.0176  35.6950  40.1047  40.3898

          k =-0.2222 0.4444-0.2222 (  1058 PWs)   bands (ev):

   -85.1530 -45.7318 -45.6193 -45.6167  11.9406  15.0898  15.7638  16.0481
    17.1380  17.3001  30.2266  39.2082  39.3737

          k =-0.3333 0.5556-0.3333 (  1059 PWs)   bands (ev):

   -85.1440 -45.7864 -45.6302 -45.6254  13.1479  15.4259  15.7713  15.9079
    17.5568  18.2460  25.5888  38.1239  39.2444

          k = 0.5556-0.3333 0.5556 (  1060 PWs)   bands (ev):

   -85.1415 -45.8018 -45.6380 -45.6232  13.3561  15.4364  15.8382  16.1775
    17.5004  19.1430  23.7424  36.9896  40.3529

          k = 0.4444-0.2222 0.4444 (  1060 PWs)   bands (ev):

   -85.1466 -45.7705 -45.6365 -45.6142  12.8937  15.4725  15.6147  15.9148
    17.1131  18.0902  27.0070  36.4942  41.5985

          k = 0.3333-0.1111 0.3333 (  1060 PWs)   bands (ev):

   -85.1568 -45.7086 -45.6251 -45.6022  11.3756  15.1561  15.8371  16.0779
    16.6348  17.3786  32.0026  36.7737  43.4851

          k = 0.2222-0.0000 0.2222 (  1043 PWs)   bands (ev):

   -85.1675 -45.6457 -45.6070 -45.5928   9.8536  15.3677  15.9164  15.9631
    16.5869  16.9616  37.2294  38.1657  44.4806

          k = 0.0000 0.4444 0.0000 (  1054 PWs)   bands (ev):

   -85.1587 -45.6768 -45.6215 -45.6215  10.9890  14.8938  16.1992  16.3971
    16.3971  17.1236  37.8074  37.8074  38.7477

          k =-0.1111 0.5556-0.1111 (  1055 PWs)   bands (ev):

   -85.1496 -45.7235 -45.6370 -45.6346  12.2764  14.6305  15.8728  16.5599
    17.1668  17.3504  32.7999  36.4461  36.6357

          k =-0.2222 0.6667-0.2222 (  1054 PWs)   bands (ev):

   -85.1412 -45.7656 -45.6585 -45.6409  13.4862  14.6182  15.6079  16.4562
    17.5964  18.7967  27.7792  34.2645  36.1902

          k = 0.6667-0.2222 0.6667 (  1069 PWs)   bands (ev):

   -85.1373 -45.7804 -45.6797 -45.6381  13.9589  14.7794  15.5970  16.3256
    17.5199  21.1433  24.0807  32.4607  37.1458

          k = 0.5556-0.1111 0.5556 (  1062 PWs)   bands (ev):

   -85.1398 -45.7649 -45.6856 -45.6267  13.8965  15.0420  15.2814  16.2893
    17.1069  19.8854  26.3522  31.4805  39.2198

          k = 0.4444 0.0000 0.4444 (  1061 PWs)   bands (ev):

   -85.1475 -45.7369 -45.6639 -45.6125  12.8602  14.9758  15.4976  16.3440
    16.6052  18.3106  30.7614  31.7793  42.1358

          k = 0.0000 0.6667 0.0000 (  1058 PWs)   bands (ev):

   -85.1433 -45.7475 -45.6500 -45.6500  12.8490  14.2801  16.6897  17.1010
    17.1010  17.3714  33.3204  34.5773  34.5773

          k =-0.1111 0.7778-0.1111 (  1054 PWs)   bands (ev):

   -85.1369 -45.7728 -45.6690 -45.6577  13.3801  14.1390  16.5541  17.1290
    17.6149  18.9200  30.4387  30.9574  33.8845

          k = 0.7778-0.1111 0.7778 (  1065 PWs)   bands (ev):

   -85.1335 -45.7714 -45.7020 -45.6552  13.8649  14.2532  16.0465  16.9618
    17.5815  21.9153  26.2753  28.8014  34.5425

          k = 0.6667-0.0000 0.6667 (  1063 PWs)   bands (ev):

   -85.1346 -45.7388 -45.7378 -45.6429  14.3315  14.4883  15.4507  16.7070
    17.2832  22.5548  25.2567  28.2789  36.4307

          k = 0.0000 0.8889 0.0000 (  1066 PWs)   bands (ev):

   -85.1332 -45.7932 -45.6684 -45.6684  13.2557  13.8983  17.5362  17.6582
    17.6582  19.3085  28.0886  32.7027  32.7027

          k = 0.8889 0.0000 0.8889 (  1063 PWs)   bands (ev):

   -85.1319 -45.7914 -45.6823 -45.6672  13.4245  13.9512  17.0815  17.4192
    17.6895  21.0531  27.1027  29.9313  32.9416

          k =-0.2222 0.4444 0.0000 (  1058 PWs)   bands (ev):

   -85.1555 -45.7018 -45.6335 -45.6113  11.5189  14.9421  15.8123  16.4132
    16.5640  17.4017  34.1382  34.7997  40.5517

          k =-0.3333 0.5556-0.1111 (  1058 PWs)   bands (ev):

   -85.1457 -45.7495 -45.6556 -45.6228  13.0443  14.8794  15.4601  16.3524
    17.0592  18.2968  29.1411  33.9978  37.9381

          k = 0.5556-0.3333 0.7778 (  1065 PWs)   bands (ev):

   -85.1393 -45.7822 -45.6662 -45.6328  13.7818  15.0065  15.5313  16.2048
    17.4464  20.0450  24.8224  34.2975  35.9356

          k =-0.2222 0.6667 0.0000 (  1056 PWs)   bands (ev):

   -85.1419 -45.7519 -45.6636 -45.6435  13.2680  14.4330  15.7370  17.0772
    17.0986  18.3928  31.6286  32.2348  34.0437

          k = 0.6667-0.2222 0.8889 (  1059 PWs)   bands (ev):

   -85.1360 -45.7659 -45.6900 -45.6520  13.9739  14.4808  15.4957  16.8203
    17.5035  20.6279  27.1627  31.4237  32.3663

          k = 0.5556-0.1111 0.7778 (  1070 PWs)   bands (ev):

   -85.1346 -45.7590 -45.7118 -45.6492  14.4273  14.4889  15.2885  16.6236
    17.4592  22.6853  24.5601  29.9679  33.3913

          k = 0.4444 0.0000 0.6667 (  1058 PWs)   bands (ev):

   -85.1385 -45.7533 -45.6983 -45.6361  14.1248  14.8705  14.9665  16.6348
    17.1213  20.0832  28.1315  29.7691  35.3502

          k = 0.7778-0.1111 1.0000 (  1055 PWs)   bands (ev):

   -85.1330 -45.7803 -45.6830 -45.6678  13.5902  14.1081  16.4441  17.2886
    17.6575  20.9168  28.3556  30.1068  30.9990

          k = 0.6667-0.0000 0.8889 (  1070 PWs)   bands (ev):

   -85.1321 -45.7636 -45.7114 -45.6649  13.9613  14.3467  15.8251  16.9694
    17.6542  23.4121  26.2411  27.6829  31.5741

          k = 0.5556-0.1111 1.0000 (  1056 PWs)   bands (ev):

   -85.1326 -45.7486 -45.7206 -45.6663  14.1911  14.7505  15.1508  16.7830
    17.6550  23.4131  26.5581  28.6050  29.6870

     the Fermi energy is    17.5668 ev

!    total energy              =    -339.40120587 Ry
     Harris-Foulkes estimate   =    -339.40120587 Ry
     estimated scf accuracy    <          3.6E-10 Ry

     The total energy is the sum of the following terms:

     one-electron contribution =    -186.62825491 Ry
     hartree contribution      =     104.53566842 Ry
     xc contribution           =     -33.92343249 Ry
     ewald contribution        =    -223.38275369 Ry
     smearing contrib. (-TS)   =      -0.00243320 Ry

     convergence has been achieved in   7 iterations

     Forces acting on atoms (cartesian axes, Ry/au):

     atom    1 type  1   force =     0.00000000    0.00000000    0.00000000

     Total force =     0.000000     Total SCF correction =     0.000000


     Computing stress (Cartesian axis) and pressure

          total   stress  (Ry/bohr**3)                   (kbar)     P= -131.99
  -0.00089728   0.00000000  -0.00000000       -131.99      0.00     -0.00
   0.00000000  -0.00089728  -0.00000000          0.00   -131.99     -0.00
  -0.00000000  -0.00000000  -0.00089728         -0.00     -0.00   -131.99


     Writing output data file Ni.save/

     init_run     :      0.32s CPU      0.33s WALL (       1 calls)
     electrons    :      4.24s CPU      4.40s WALL (       1 calls)
     forces       :      0.08s CPU      0.08s WALL (       1 calls)
     stress       :      0.24s CPU      0.24s WALL (       1 calls)

     Called by init_run:
     wfcinit      :      0.13s CPU      0.14s WALL (       1 calls)
     potinit      :      0.01s CPU      0.01s WALL (       1 calls)
     hinit0       :      0.16s CPU      0.17s WALL (       1 calls)

     Called by electrons:
     c_bands      :      3.46s CPU      3.58s WALL (       8 calls)
     sum_band     :      0.68s CPU      0.71s WALL (       8 calls)
     v_of_rho     :      0.04s CPU      0.04s WALL (       8 calls)
     newd         :      0.07s CPU      0.07s WALL (       8 calls)
     mix_rho      :      0.00s CPU      0.00s WALL (       8 calls)

     Called by c_bands:
     init_us_2    :      0.09s CPU      0.10s WALL (     665 calls)
     cegterg      :      3.33s CPU      3.45s WALL (     280 calls)

     Called by sum_band:
     sum_band:bec :      0.00s CPU      0.00s WALL (     280 calls)
     addusdens    :      0.06s CPU      0.07s WALL (       8 calls)

     Called by *egterg:
     h_psi        :      2.55s CPU      2.65s WALL (     930 calls)
     s_psi        :      0.08s CPU      0.09s WALL (     930 calls)
     g_psi        :      0.01s CPU      0.01s WALL (     615 calls)
     cdiaghg      :      0.33s CPU      0.34s WALL (     860 calls)

     Called by h_psi:
     h_psi:pot    :      2.54s CPU      2.64s WALL (     930 calls)
     h_psi:calbec :      0.11s CPU      0.12s WALL (     930 calls)
     vloc_psi     :      2.33s CPU      2.42s WALL (     930 calls)
     add_vuspsi   :      0.09s CPU      0.09s WALL (     930 calls)

     General routines
     calbec       :      0.20s CPU      0.20s WALL (    1385 calls)
     fft          :      0.03s CPU      0.03s WALL (     115 calls)
     ffts         :      0.00s CPU      0.00s WALL (       8 calls)
     fftw         :      2.64s CPU      2.74s WALL (   22024 calls)

     Parallel routines
     fft_scatt_xy :      0.23s CPU      0.24s WALL (   22147 calls)
     fft_scatt_yz :      0.55s CPU      0.57s WALL (   22147 calls)

     PWSCF        :     5.61s CPU         5.84s WALL


   This run was terminated on:  23: 3:26  26Mar2024            

=------------------------------------------------------------------------------=
   JOB DONE.
=------------------------------------------------------------------------------=
