
     Program PWSCF v.6.3MaX starts on 26Mar2024 at 22:55:21 

     This program is part of the open-source Quantum ESPRESSO suite
     for quantum simulation of materials; please cite
         "P. Giannozzi et al., J. Phys.:Condens. Matter 21 395502 (2009);
         "P. Giannozzi et al., J. Phys.:Condens. Matter 29 465901 (2017);
          URL http://www.quantum-espresso.org", 
     in publications or presentations arising from this work. More details at
     http://www.quantum-espresso.org/quote

     Parallel version (MPI), running on     5 processors

     MPI processes distributed on     1 nodes
     R & G space division:  proc/nbgrp/npool/nimage =       5
     Waiting for input...
     Reading input from standard input

     Current dimensions of program PWSCF are:
     Max number of different atomic species (ntypx) = 10
     Max number of k-points (npk) =  40000
     Max angular momentum in pseudopotentials (lmaxx) =  3
               file Ni.pbe-spn-kjpaw_psl.1.0.0.UPF: wavefunction(s)  3P 3D renormalized

     Subspace diagonalization in iterative solution of the eigenvalue problem:
     a serial algorithm will be used


     Parallelization info
     --------------------
     sticks:   dense  smooth     PW     G-vecs:    dense   smooth      PW
     Min          99      99     30                 1423     1423     248
     Max         100     100     31                 1424     1424     251
     Sum         499     499    151                 7119     7119    1243



     bravais-lattice index     =            2
     lattice parameter (alat)  =       6.6500  a.u.
     unit-cell volume          =      73.5199 (a.u.)^3
     number of atoms/cell      =            1
     number of atomic types    =            1
     number of electrons       =        18.00
     number of Kohn-Sham states=           13
     kinetic-energy cutoff     =      80.0000  Ry
     charge density cutoff     =     320.0000  Ry
     convergence threshold     =      1.0E-08
     mixing beta               =       0.7000
     number of iterations used =            8  plain     mixing
     Exchange-correlation      = SLA PW PBX PBC ( 1  4  3  4 0 0)

     celldm(1)=   6.650000  celldm(2)=   0.000000  celldm(3)=   0.000000
     celldm(4)=   0.000000  celldm(5)=   0.000000  celldm(6)=   0.000000

     crystal axes: (cart. coord. in units of alat)
               a(1) = (  -0.500000   0.000000   0.500000 )  
               a(2) = (   0.000000   0.500000   0.500000 )  
               a(3) = (  -0.500000   0.500000   0.000000 )  

     reciprocal axes: (cart. coord. in units 2 pi/alat)
               b(1) = ( -1.000000 -1.000000  1.000000 )  
               b(2) = (  1.000000  1.000000  1.000000 )  
               b(3) = ( -1.000000  1.000000 -1.000000 )  


     PseudoPot. # 1 for Ni read from file:
     /home/lorenzo/pseudos/Ni/Ni.pbe-spn-kjpaw_psl.1.0.0.UPF
     MD5 check sum: 6e86b733589c3ad8389697b807d86aa7
     Pseudo is Projector augmented-wave + core cor, Zval = 18.0
     Generated using "atomic" code by A. Dal Corso v.6.3
     Shape of augmentation charge: PSQ
     Using radial grid of 1195 points,  6 beta functions with: 
                l(1) =   0
                l(2) =   0
                l(3) =   1
                l(4) =   1
                l(5) =   2
                l(6) =   2
     Q(r) pseudized with 0 coefficients 


     atomic species   valence    mass     pseudopotential
        Ni            18.00    58.69340     Ni( 1.00)

     48 Sym. Ops., with inversion, found



   Cartesian axes

     site n.     atom                  positions (alat units)
         1           Ni  tau(   1) = (   0.0000000   0.0000000   0.0000000  )

     number of k points=     4  gaussian smearing, width (Ry)=  0.0100
                       cart. coord. in units 2pi/alat
        k(    1) = (   0.0000000   0.0000000   0.0000000), wk =   0.0740741
        k(    2) = (  -0.3333333   0.3333333  -0.3333333), wk =   0.5925926
        k(    3) = (   0.0000000   0.6666667   0.0000000), wk =   0.4444444
        k(    4) = (   0.6666667  -0.0000000   0.6666667), wk =   0.8888889

     Dense  grid:     7119 G-vectors     FFT dimensions: (  27,  27,  27)

     Estimated max dynamical RAM per process >       7.00 MB

     Estimated total dynamical RAM >      35.00 MB

     Check: negative/imaginary core charge=   -0.000005    0.000000

     Initial potential from superposition of free atoms

     starting charge   17.99975, renormalised to   18.00000
     Starting wfcs are   10 randomized atomic wfcs +    3 random wfcs
     Checking if some PAW data can be deallocated... 

     total cpu time spent up to now is        1.1 secs

     Self-consistent Calculation

     iteration #  1     ecut=    80.00 Ry     beta= 0.70
     Davidson diagonalization with overlap
     ethr =  1.00E-02,  avg # of iterations =  4.0

     Threshold (ethr) on eigenvalues was too large:
     Diagonalizing with lowered threshold

     Davidson diagonalization with overlap
     ethr =  1.32E-05,  avg # of iterations =  3.8

     total cpu time spent up to now is        1.3 secs

     total energy              =    -429.12945532 Ry
     Harris-Foulkes estimate   =    -429.13083790 Ry
     estimated scf accuracy    <       0.00229164 Ry

     iteration #  2     ecut=    80.00 Ry     beta= 0.70
     Davidson diagonalization with overlap
     ethr =  1.27E-05,  avg # of iterations =  3.0

     total cpu time spent up to now is        1.5 secs

     total energy              =    -429.12940951 Ry
     Harris-Foulkes estimate   =    -429.13204817 Ry
     estimated scf accuracy    <       0.00654231 Ry

     iteration #  3     ecut=    80.00 Ry     beta= 0.70
     Davidson diagonalization with overlap
     ethr =  1.27E-05,  avg # of iterations =  2.2

     total cpu time spent up to now is        1.7 secs

     total energy              =    -429.13061409 Ry
     Harris-Foulkes estimate   =    -429.13060688 Ry
     estimated scf accuracy    <       0.00003185 Ry

     iteration #  4     ecut=    80.00 Ry     beta= 0.70
     Davidson diagonalization with overlap
     ethr =  1.77E-07,  avg # of iterations =  2.5

     total cpu time spent up to now is        1.9 secs

     total energy              =    -429.13062023 Ry
     Harris-Foulkes estimate   =    -429.13062031 Ry
     estimated scf accuracy    <       0.00000019 Ry

     iteration #  5     ecut=    80.00 Ry     beta= 0.70
     Davidson diagonalization with overlap
     ethr =  1.06E-09,  avg # of iterations =  3.0

     total cpu time spent up to now is        2.1 secs

     total energy              =    -429.13062037 Ry
     Harris-Foulkes estimate   =    -429.13062038 Ry
     estimated scf accuracy    <       0.00000001 Ry

     iteration #  6     ecut=    80.00 Ry     beta= 0.70
     Davidson diagonalization with overlap
     ethr =  6.23E-11,  avg # of iterations =  2.0

     total cpu time spent up to now is        2.3 secs

     End of self-consistent calculation

          k = 0.0000 0.0000 0.0000 (   893 PWs)   bands (ev):

   -85.7408 -45.9810 -45.9810 -45.9810   8.7970  15.5769  15.5769  15.5769
    16.6413  16.6413  41.4955  45.4024  45.4024

          k =-0.3333 0.3333-0.3333 (   896 PWs)   bands (ev):

   -85.7158 -46.1437 -46.0047 -46.0047  12.2716  15.5191  15.6731  15.6731
    17.0249  17.0249  28.3637  40.8182  42.7353

          k = 0.0000 0.6667 0.0000 (   866 PWs)   bands (ev):

   -85.7074 -46.1346 -46.0410 -46.0410  12.9258  14.2038  16.6863  16.9477
    16.9477  17.1718  33.4273  34.7549  34.7549

          k = 0.6667-0.0000 0.6667 (   893 PWs)   bands (ev):

   -85.6992 -46.1278 -46.1271 -46.0346  14.2716  14.4453  15.3824  16.5332
    17.1199  22.6038  25.3433  28.3718  36.5957

     the Fermi energy is    17.1060 ev

!    total energy              =    -429.13062037 Ry
     Harris-Foulkes estimate   =    -429.13062037 Ry
     estimated scf accuracy    <          1.7E-09 Ry

     total all-electron energy =     -3041.562728 Ry

     The total energy is the sum of the following terms:

     one-electron contribution =    -184.67816068 Ry
     hartree contribution      =     104.31253823 Ry
     xc contribution           =     -34.27309807 Ry
     ewald contribution        =    -223.38275369 Ry
     one-center paw contrib.   =     -91.10268097 Ry
     smearing contrib. (-TS)   =      -0.00646520 Ry

     convergence has been achieved in   6 iterations

     Forces acting on atoms (cartesian axes, Ry/au):

     atom    1 type  1   force =     0.00000000    0.00000000    0.00000000

     Total force =     0.000000     Total SCF correction =     0.000000


     Computing stress (Cartesian axis) and pressure

          total   stress  (Ry/bohr**3)                   (kbar)     P=   16.69
   0.00011345   0.00000000   0.00000000         16.69      0.00      0.00
   0.00000000   0.00011345   0.00000000          0.00     16.69      0.00
  -0.00000000  -0.00000000   0.00011345         -0.00     -0.00     16.69


     Writing output data file Ni.save/

     init_run     :      0.30s CPU      0.32s WALL (       1 calls)
     electrons    :      1.09s CPU      1.20s WALL (       1 calls)
     forces       :      0.03s CPU      0.03s WALL (       1 calls)
     stress       :      0.07s CPU      0.07s WALL (       1 calls)

     Called by init_run:
     wfcinit      :      0.02s CPU      0.02s WALL (       1 calls)
     potinit      :      0.11s CPU      0.12s WALL (       1 calls)
     hinit0       :      0.16s CPU      0.16s WALL (       1 calls)

     Called by electrons:
     c_bands      :      0.32s CPU      0.34s WALL (       7 calls)
     sum_band     :      0.12s CPU      0.12s WALL (       7 calls)
     v_of_rho     :      0.04s CPU      0.04s WALL (       7 calls)
     newd         :      0.05s CPU      0.06s WALL (       7 calls)
     PAW_pot      :      0.66s CPU      0.74s WALL (       7 calls)
     mix_rho      :      0.00s CPU      0.00s WALL (       7 calls)

     Called by c_bands:
     init_us_2    :      0.01s CPU      0.01s WALL (      68 calls)
     cegterg      :      0.31s CPU      0.33s WALL (      28 calls)

     Called by sum_band:
     sum_band:bec :      0.00s CPU      0.00s WALL (      28 calls)
     addusdens    :      0.05s CPU      0.05s WALL (       7 calls)

     Called by *egterg:
     h_psi        :      0.23s CPU      0.24s WALL (     114 calls)
     s_psi        :      0.01s CPU      0.01s WALL (     114 calls)
     g_psi        :      0.00s CPU      0.00s WALL (      82 calls)
     cdiaghg      :      0.04s CPU      0.04s WALL (     106 calls)

     Called by h_psi:
     h_psi:pot    :      0.23s CPU      0.24s WALL (     114 calls)
     h_psi:calbec :      0.01s CPU      0.01s WALL (     114 calls)
     vloc_psi     :      0.21s CPU      0.22s WALL (     114 calls)
     add_vuspsi   :      0.01s CPU      0.01s WALL (     114 calls)

     General routines
     calbec       :      0.02s CPU      0.02s WALL (     162 calls)
     fft          :      0.03s CPU      0.03s WALL (     104 calls)
     ffts         :      0.00s CPU      0.00s WALL (       7 calls)
     fftw         :      0.24s CPU      0.25s WALL (    2340 calls)

     Parallel routines
     fft_scatt_xy :      0.02s CPU      0.02s WALL (    2451 calls)
     fft_scatt_yz :      0.08s CPU      0.08s WALL (    2451 calls)

     PWSCF        :     2.24s CPU         2.41s WALL


   This run was terminated on:  22:55:23  26Mar2024            

=------------------------------------------------------------------------------=
   JOB DONE.
=------------------------------------------------------------------------------=
