
     Program PWSCF v.6.3MaX starts on 26Mar2024 at 22:30:42 

     This program is part of the open-source Quantum ESPRESSO suite
     for quantum simulation of materials; please cite
         "P. Giannozzi et al., J. Phys.:Condens. Matter 21 395502 (2009);
         "P. Giannozzi et al., J. Phys.:Condens. Matter 29 465901 (2017);
          URL http://www.quantum-espresso.org", 
     in publications or presentations arising from this work. More details at
     http://www.quantum-espresso.org/quote

     Parallel version (MPI), running on     5 processors

     MPI processes distributed on     1 nodes
     R & G space division:  proc/nbgrp/npool/nimage =       5
     Waiting for input...
     Reading input from standard input

     Current dimensions of program PWSCF are:
     Max number of different atomic species (ntypx) = 10
     Max number of k-points (npk) =  40000
     Max angular momentum in pseudopotentials (lmaxx) =  3

     Subspace diagonalization in iterative solution of the eigenvalue problem:
     a serial algorithm will be used


     Parallelization info
     --------------------
     sticks:   dense  smooth     PW     G-vecs:    dense   smooth      PW
     Min          37      37     12                  327      327      66
     Max          38      38     13                  329      329      67
     Sum         187     187     61                 1639     1639     331



     bravais-lattice index     =            2
     lattice parameter (alat)  =       6.6500  a.u.
     unit-cell volume          =      73.5199 (a.u.)^3
     number of atoms/cell      =            1
     number of atomic types    =            1
     number of electrons       =        18.00
     number of Kohn-Sham states=           13
     kinetic-energy cutoff     =      30.0000  Ry
     charge density cutoff     =     120.0000  Ry
     convergence threshold     =      1.0E-08
     mixing beta               =       0.7000
     number of iterations used =            8  plain     mixing
     Exchange-correlation      = PBE ( 1  4  3  4 0 0)

     celldm(1)=   6.650000  celldm(2)=   0.000000  celldm(3)=   0.000000
     celldm(4)=   0.000000  celldm(5)=   0.000000  celldm(6)=   0.000000

     crystal axes: (cart. coord. in units of alat)
               a(1) = (  -0.500000   0.000000   0.500000 )  
               a(2) = (   0.000000   0.500000   0.500000 )  
               a(3) = (  -0.500000   0.500000   0.000000 )  

     reciprocal axes: (cart. coord. in units 2 pi/alat)
               b(1) = ( -1.000000 -1.000000  1.000000 )  
               b(2) = (  1.000000  1.000000  1.000000 )  
               b(3) = ( -1.000000  1.000000 -1.000000 )  


     PseudoPot. # 1 for Ni read from file:
     /home/lorenzo/pseudos/Ni/Ni.pbe-spn-rrkjus_psl.1.0.0.UPF
     MD5 check sum: 8b3fc9aac6dafe35f580d41bb18c3945
     Pseudo is Ultrasoft + core correction, Zval = 18.0
     Generated using "atomic" code by A. Dal Corso v.6.3
     Using radial grid of 1195 points,  6 beta functions with: 
                l(1) =   0
                l(2) =   0
                l(3) =   1
                l(4) =   1
                l(5) =   2
                l(6) =   2
     Q(r) pseudized with 0 coefficients 


     atomic species   valence    mass     pseudopotential
        Ni            18.00    58.69340     Ni( 1.00)

     48 Sym. Ops., with inversion, found



   Cartesian axes

     site n.     atom                  positions (alat units)
         1           Ni  tau(   1) = (   0.0000000   0.0000000   0.0000000  )

     number of k points=     8  gaussian smearing, width (Ry)=  0.0100
                       cart. coord. in units 2pi/alat
        k(    1) = (   0.0000000   0.0000000   0.0000000), wk =   0.0312500
        k(    2) = (  -0.2500000   0.2500000  -0.2500000), wk =   0.2500000
        k(    3) = (   0.5000000  -0.5000000   0.5000000), wk =   0.1250000
        k(    4) = (   0.0000000   0.5000000   0.0000000), wk =   0.1875000
        k(    5) = (   0.7500000  -0.2500000   0.7500000), wk =   0.7500000
        k(    6) = (   0.5000000   0.0000000   0.5000000), wk =   0.3750000
        k(    7) = (   0.0000000  -1.0000000   0.0000000), wk =   0.0937500
        k(    8) = (  -0.5000000  -1.0000000   0.0000000), wk =   0.1875000

     Dense  grid:     1639 G-vectors     FFT dimensions: (  18,  18,  18)

     Estimated max dynamical RAM per process >       2.25 MB

     Estimated total dynamical RAM >      11.23 MB

     Check: negative/imaginary core charge=   -0.000069    0.000000

     Initial potential from superposition of free atoms

     starting charge   17.99975, renormalised to   18.00000
     Starting wfcs are   10 randomized atomic wfcs +    3 random wfcs

     total cpu time spent up to now is        1.1 secs

     Self-consistent Calculation

     iteration #  1     ecut=    30.00 Ry     beta= 0.70
     Davidson diagonalization with overlap
     ethr =  1.00E-02,  avg # of iterations =  4.4

     total cpu time spent up to now is        1.1 secs

     total energy              =    -334.74845222 Ry
     Harris-Foulkes estimate   =    -335.62958998 Ry
     estimated scf accuracy    <       1.17034755 Ry

     iteration #  2     ecut=    30.00 Ry     beta= 0.70
     Davidson diagonalization with overlap
     ethr =  6.50E-03,  avg # of iterations =  2.0

     total cpu time spent up to now is        1.2 secs

     total energy              =    -334.71087290 Ry
     Harris-Foulkes estimate   =    -336.06242161 Ry
     estimated scf accuracy    <       3.51853856 Ry

     iteration #  3     ecut=    30.00 Ry     beta= 0.70
     Davidson diagonalization with overlap
     ethr =  6.50E-03,  avg # of iterations =  1.9

     total cpu time spent up to now is        1.2 secs

     total energy              =    -335.29252423 Ry
     Harris-Foulkes estimate   =    -335.29910064 Ry
     estimated scf accuracy    <       0.01740938 Ry

     iteration #  4     ecut=    30.00 Ry     beta= 0.70
     Davidson diagonalization with overlap
     ethr =  9.67E-05,  avg # of iterations =  2.0

     total cpu time spent up to now is        1.3 secs

     total energy              =    -335.29482261 Ry
     Harris-Foulkes estimate   =    -335.29480676 Ry
     estimated scf accuracy    <       0.00012512 Ry

     iteration #  5     ecut=    30.00 Ry     beta= 0.70
     Davidson diagonalization with overlap
     ethr =  6.95E-07,  avg # of iterations =  1.9

     total cpu time spent up to now is        1.3 secs

     total energy              =    -335.29482905 Ry
     Harris-Foulkes estimate   =    -335.29482915 Ry
     estimated scf accuracy    <       0.00000115 Ry

     iteration #  6     ecut=    30.00 Ry     beta= 0.70
     Davidson diagonalization with overlap
     ethr =  6.41E-09,  avg # of iterations =  1.9

     total cpu time spent up to now is        1.3 secs

     total energy              =    -335.29482920 Ry
     Harris-Foulkes estimate   =    -335.29482918 Ry
     estimated scf accuracy    <       0.00000004 Ry

     iteration #  7     ecut=    30.00 Ry     beta= 0.70
     Davidson diagonalization with overlap
     ethr =  2.24E-10,  avg # of iterations =  1.2

     total cpu time spent up to now is        1.4 secs

     End of self-consistent calculation

          k = 0.0000 0.0000 0.0000 (   181 PWs)   bands (ev):

   -89.0019 -41.8029 -41.8029 -41.8029   9.6539  19.0418  19.0418  19.0418
    19.5886  19.5886  42.0265  46.0243  46.0243

          k =-0.2500 0.2500-0.2500 (   199 PWs)   bands (ev):

   -89.0732 -44.8437 -43.0081 -43.0081  11.8798  16.6953  17.4372  17.4372
    18.2716  18.2716  32.4222  42.1406  43.3777

          k = 0.5000-0.5000 0.5000 (   210 PWs)   bands (ev):

   -89.1159 -45.4984 -44.1587 -44.1587  14.2731  16.7169  16.7169  17.5214
    17.5214  17.8283  24.0166  40.5200  42.8806

          k = 0.0000 0.5000 0.0000 (   202 PWs)   bands (ev):

   -89.0917 -44.6423 -43.5878 -43.5878  12.5640  17.0940  17.0940  17.1497
    17.4321  18.0950  37.1844  37.1844  38.0366

          k = 0.7500-0.2500 0.7500 (   204 PWs)   bands (ev):

   -89.0854 -44.6679 -43.9671 -43.8406  15.0994  15.6222  16.9488  17.5884
    18.0327  20.7180  26.7803  32.7315  36.1986

          k = 0.5000 0.0000 0.5000 (   210 PWs)   bands (ev):

   -89.1267 -45.1001 -44.5393 -44.3312  14.4113  15.8032  15.9371  16.8306
    17.8167  18.7998  29.3404  31.2685  40.7677

          k = 0.0000-1.0000 0.0000 (   206 PWs)   bands (ev):

   -89.0950 -45.0878 -44.0596 -44.0596  14.3065  15.6402  17.9769  17.9769
    18.1835  20.5681  27.4069  33.0215  33.0215

          k =-0.5000-1.0000 0.0000 (   208 PWs)   bands (ev):

   -89.1202 -44.7999 -44.7999 -44.3606  15.1741  15.8100  15.8100  17.4474
    17.6178  25.7346  25.7346  27.8938  30.0700

     the Fermi energy is    18.2154 ev

!    total energy              =    -335.29482921 Ry
     Harris-Foulkes estimate   =    -335.29482921 Ry
     estimated scf accuracy    <          1.9E-09 Ry

     The total energy is the sum of the following terms:

     one-electron contribution =    -178.92914951 Ry
     hartree contribution      =     101.06191817 Ry
     xc contribution           =     -34.04278981 Ry
     ewald contribution        =    -223.38275371 Ry
     smearing contrib. (-TS)   =      -0.00205434 Ry

     convergence has been achieved in   7 iterations

     Forces acting on atoms (cartesian axes, Ry/au):

     atom    1 type  1   force =     0.00000000    0.00000000    0.00000000

     Total force =     0.000000     Total SCF correction =     0.000000


     Computing stress (Cartesian axis) and pressure

          total   stress  (Ry/bohr**3)                   (kbar)     P=********
  -0.23393356   0.00000000  -0.00000000     -34412.81      0.00     -0.00
   0.00000000  -0.23393356   0.00000000          0.00 -34412.81      0.00
  -0.00000000   0.00000000  -0.23393356         -0.00      0.00 -34412.81


     Writing output data file Ni.save/

     init_run     :      0.12s CPU      0.12s WALL (       1 calls)
     electrons    :      0.28s CPU      0.32s WALL (       1 calls)
     forces       :      0.01s CPU      0.01s WALL (       1 calls)
     stress       :      0.02s CPU      0.02s WALL (       1 calls)

     Called by init_run:
     wfcinit      :      0.02s CPU      0.02s WALL (       1 calls)
     potinit      :      0.00s CPU      0.00s WALL (       1 calls)
     hinit0       :      0.09s CPU      0.09s WALL (       1 calls)

     Called by electrons:
     c_bands      :      0.22s CPU      0.24s WALL (       7 calls)
     sum_band     :      0.04s CPU      0.05s WALL (       7 calls)
     v_of_rho     :      0.01s CPU      0.01s WALL (       8 calls)
     newd         :      0.01s CPU      0.01s WALL (       8 calls)
     mix_rho      :      0.00s CPU      0.00s WALL (       7 calls)

     Called by c_bands:
     init_us_2    :      0.00s CPU      0.01s WALL (     136 calls)
     cegterg      :      0.21s CPU      0.24s WALL (      56 calls)

     Called by sum_band:
     sum_band:bec :      0.00s CPU      0.00s WALL (      56 calls)
     addusdens    :      0.01s CPU      0.01s WALL (       7 calls)

     Called by *egterg:
     h_psi        :      0.15s CPU      0.17s WALL (     186 calls)
     s_psi        :      0.00s CPU      0.00s WALL (     186 calls)
     g_psi        :      0.00s CPU      0.00s WALL (     122 calls)
     cdiaghg      :      0.05s CPU      0.06s WALL (     178 calls)

     Called by h_psi:
     h_psi:pot    :      0.15s CPU      0.17s WALL (     186 calls)
     h_psi:calbec :      0.01s CPU      0.01s WALL (     186 calls)
     vloc_psi     :      0.14s CPU      0.15s WALL (     186 calls)
     add_vuspsi   :      0.00s CPU      0.00s WALL (     186 calls)

     General routines
     calbec       :      0.01s CPU      0.01s WALL (     282 calls)
     fft          :      0.01s CPU      0.01s WALL (     114 calls)
     ffts         :      0.00s CPU      0.00s WALL (       7 calls)
     fftw         :      0.15s CPU      0.17s WALL (    4430 calls)

     Parallel routines
     fft_scatt_xy :      0.01s CPU      0.02s WALL (    4551 calls)
     fft_scatt_yz :      0.05s CPU      0.05s WALL (    4551 calls)

     PWSCF        :     1.38s CPU         1.46s WALL


   This run was terminated on:  22:30:43  26Mar2024            

=------------------------------------------------------------------------------=
   JOB DONE.
=------------------------------------------------------------------------------=
