
     Program PWSCF v.6.3MaX starts on 26Mar2024 at 22:59: 6 

     This program is part of the open-source Quantum ESPRESSO suite
     for quantum simulation of materials; please cite
         "P. Giannozzi et al., J. Phys.:Condens. Matter 21 395502 (2009);
         "P. Giannozzi et al., J. Phys.:Condens. Matter 29 465901 (2017);
          URL http://www.quantum-espresso.org", 
     in publications or presentations arising from this work. More details at
     http://www.quantum-espresso.org/quote

     Parallel version (MPI), running on     5 processors

     MPI processes distributed on     1 nodes
     R & G space division:  proc/nbgrp/npool/nimage =       5
     Waiting for input...
     Reading input from standard input

     Current dimensions of program PWSCF are:
     Max number of different atomic species (ntypx) = 10
     Max number of k-points (npk) =  40000
     Max angular momentum in pseudopotentials (lmaxx) =  3
               file Ni.pbe-spn-kjpaw_psl.1.0.0.UPF: wavefunction(s)  3P 3D renormalized

     Subspace diagonalization in iterative solution of the eigenvalue problem:
     a serial algorithm will be used


     Parallelization info
     --------------------
     sticks:   dense  smooth     PW     G-vecs:    dense   smooth      PW
     Min         102     102     32                 1559     1559     280
     Max         103     103     33                 1562     1562     283
     Sum         511     511    163                 7799     7799    1411



     bravais-lattice index     =            2
     lattice parameter (alat)  =       6.6500  a.u.
     unit-cell volume          =      73.5199 (a.u.)^3
     number of atoms/cell      =            1
     number of atomic types    =            1
     number of electrons       =        18.00
     number of Kohn-Sham states=           13
     kinetic-energy cutoff     =      85.0000  Ry
     charge density cutoff     =     340.0000  Ry
     convergence threshold     =      1.0E-08
     mixing beta               =       0.7000
     number of iterations used =            8  plain     mixing
     Exchange-correlation      = SLA PW PBX PBC ( 1  4  3  4 0 0)

     celldm(1)=   6.650000  celldm(2)=   0.000000  celldm(3)=   0.000000
     celldm(4)=   0.000000  celldm(5)=   0.000000  celldm(6)=   0.000000

     crystal axes: (cart. coord. in units of alat)
               a(1) = (  -0.500000   0.000000   0.500000 )  
               a(2) = (   0.000000   0.500000   0.500000 )  
               a(3) = (  -0.500000   0.500000   0.000000 )  

     reciprocal axes: (cart. coord. in units 2 pi/alat)
               b(1) = ( -1.000000 -1.000000  1.000000 )  
               b(2) = (  1.000000  1.000000  1.000000 )  
               b(3) = ( -1.000000  1.000000 -1.000000 )  


     PseudoPot. # 1 for Ni read from file:
     /home/lorenzo/pseudos/Ni/Ni.pbe-spn-kjpaw_psl.1.0.0.UPF
     MD5 check sum: 6e86b733589c3ad8389697b807d86aa7
     Pseudo is Projector augmented-wave + core cor, Zval = 18.0
     Generated using "atomic" code by A. Dal Corso v.6.3
     Shape of augmentation charge: PSQ
     Using radial grid of 1195 points,  6 beta functions with: 
                l(1) =   0
                l(2) =   0
                l(3) =   1
                l(4) =   1
                l(5) =   2
                l(6) =   2
     Q(r) pseudized with 0 coefficients 


     atomic species   valence    mass     pseudopotential
        Ni            18.00    58.69340     Ni( 1.00)

     48 Sym. Ops., with inversion, found



   Cartesian axes

     site n.     atom                  positions (alat units)
         1           Ni  tau(   1) = (   0.0000000   0.0000000   0.0000000  )

     number of k points=    16  gaussian smearing, width (Ry)=  0.0100
                       cart. coord. in units 2pi/alat
        k(    1) = (   0.0000000   0.0000000   0.0000000), wk =   0.0092593
        k(    2) = (  -0.1666667   0.1666667  -0.1666667), wk =   0.0740741
        k(    3) = (  -0.3333333   0.3333333  -0.3333333), wk =   0.0740741
        k(    4) = (   0.5000000  -0.5000000   0.5000000), wk =   0.0370370
        k(    5) = (   0.0000000   0.3333333   0.0000000), wk =   0.0555556
        k(    6) = (  -0.1666667   0.5000000  -0.1666667), wk =   0.2222222
        k(    7) = (   0.6666667  -0.3333333   0.6666667), wk =   0.2222222
        k(    8) = (   0.5000000  -0.1666667   0.5000000), wk =   0.2222222
        k(    9) = (   0.3333333   0.0000000   0.3333333), wk =   0.1111111
        k(   10) = (   0.0000000   0.6666667   0.0000000), wk =   0.0555556
        k(   11) = (   0.8333333  -0.1666667   0.8333333), wk =   0.2222222
        k(   12) = (   0.6666667  -0.0000000   0.6666667), wk =   0.1111111
        k(   13) = (   0.0000000  -1.0000000   0.0000000), wk =   0.0277778
        k(   14) = (   0.6666667  -0.3333333   1.0000000), wk =   0.2222222
        k(   15) = (   0.5000000  -0.1666667   0.8333333), wk =   0.2222222
        k(   16) = (  -0.3333333  -1.0000000   0.0000000), wk =   0.1111111

     Dense  grid:     7799 G-vectors     FFT dimensions: (  27,  27,  27)

     Estimated max dynamical RAM per process >       8.01 MB

     Estimated total dynamical RAM >      40.04 MB

     Check: negative/imaginary core charge=   -0.000003    0.000000

     Initial potential from superposition of free atoms

     starting charge   17.99975, renormalised to   18.00000
     Starting wfcs are   10 randomized atomic wfcs +    3 random wfcs
     Checking if some PAW data can be deallocated... 

     total cpu time spent up to now is        1.2 secs

     Self-consistent Calculation

     iteration #  1     ecut=    85.00 Ry     beta= 0.70
     Davidson diagonalization with overlap
     ethr =  1.00E-02,  avg # of iterations =  3.6

     Threshold (ethr) on eigenvalues was too large:
     Diagonalizing with lowered threshold

     Davidson diagonalization with overlap
     ethr =  1.63E-05,  avg # of iterations =  3.4

     total cpu time spent up to now is        1.8 secs

     total energy              =    -429.15772182 Ry
     Harris-Foulkes estimate   =    -429.15921736 Ry
     estimated scf accuracy    <       0.00293358 Ry

     iteration #  2     ecut=    85.00 Ry     beta= 0.70
     Davidson diagonalization with overlap
     ethr =  1.63E-05,  avg # of iterations =  2.2

     total cpu time spent up to now is        2.2 secs

     total energy              =    -429.15712480 Ry
     Harris-Foulkes estimate   =    -429.16050638 Ry
     estimated scf accuracy    <       0.00922312 Ry

     iteration #  3     ecut=    85.00 Ry     beta= 0.70
     Davidson diagonalization with overlap
     ethr =  1.63E-05,  avg # of iterations =  2.1

     total cpu time spent up to now is        2.6 secs

     total energy              =    -429.15872897 Ry
     Harris-Foulkes estimate   =    -429.15876378 Ry
     estimated scf accuracy    <       0.00015593 Ry

     iteration #  4     ecut=    85.00 Ry     beta= 0.70
     Davidson diagonalization with overlap
     ethr =  8.66E-07,  avg # of iterations =  1.4

     total cpu time spent up to now is        2.9 secs

     total energy              =    -429.15875078 Ry
     Harris-Foulkes estimate   =    -429.15875055 Ry
     estimated scf accuracy    <       0.00000081 Ry

     iteration #  5     ecut=    85.00 Ry     beta= 0.70
     Davidson diagonalization with overlap
     ethr =  4.48E-09,  avg # of iterations =  3.1

     total cpu time spent up to now is        3.2 secs

     total energy              =    -429.15875148 Ry
     Harris-Foulkes estimate   =    -429.15875149 Ry
     estimated scf accuracy    <       0.00000005 Ry

     iteration #  6     ecut=    85.00 Ry     beta= 0.70
     Davidson diagonalization with overlap
     ethr =  2.87E-10,  avg # of iterations =  2.0

     total cpu time spent up to now is        3.5 secs

     End of self-consistent calculation

          k = 0.0000 0.0000 0.0000 (   941 PWs)   bands (ev):

   -85.3795 -45.6349 -45.6349 -45.6349   8.8186  15.8436  15.8436  15.8436
    16.9457  16.9457  41.4884  45.4310  45.4310

          k =-0.1667 0.1667-0.1667 (   956 PWs)   bands (ev):

   -85.3711 -45.6911 -45.6431 -45.6431   9.8766  15.5960  16.0236  16.0236
    16.9049  16.9049  36.5388  42.2552  43.9062

          k =-0.3333 0.3333-0.3333 (   968 PWs)   bands (ev):

   -85.3542 -45.8016 -45.6593 -45.6593  12.3420  15.6952  15.9473  15.9473
    17.3263  17.3263  28.4661  40.8138  42.7994

          k = 0.5000-0.5000 0.5000 (   978 PWs)   bands (ev):

   -85.3458 -45.8567 -45.6675 -45.6675  13.2602  15.7975  15.7975  17.5415
    17.6858  17.6858  23.7422  39.9953  42.5612

          k = 0.0000 0.3333 0.0000 (   966 PWs)   bands (ev):

   -85.3683 -45.6892 -45.6563 -45.6563  10.2186  15.3524  16.2446  16.2446
    16.5225  17.1227  39.6132  39.9744  39.9744

          k =-0.1667 0.5000-0.1667 (   977 PWs)   bands (ev):

   -85.3543 -45.7706 -45.6750 -45.6749  12.2627  15.0015  15.8953  16.4141
    17.3068  17.4533  31.6575  37.9572  38.3871

          k = 0.6667-0.3333 0.6667 (   972 PWs)   bands (ev):

   -85.3430 -45.8338 -45.6996 -45.6803  13.7629  15.2410  15.8579  16.2198
    17.7119  19.7278  24.8386  35.5871  38.2556

          k = 0.5000-0.1667 0.5000 (   975 PWs)   bands (ev):

   -85.3458 -45.8167 -45.7067 -45.6674  13.5856  15.4481  15.5782  16.2094
    17.2224  19.0291  26.8084  34.1108  41.0673

          k = 0.3333 0.0000 0.3333 (   961 PWs)   bands (ev):

   -85.3599 -45.7442 -45.6796 -45.6484  11.4787  15.2628  15.9706  16.3956
    16.5389  17.5442  34.1113  34.8730  44.4704

          k = 0.0000 0.6667 0.0000 (   974 PWs)   bands (ev):

   -85.3459 -45.7939 -45.6975 -45.6975  13.0363  14.4348  16.8551  17.2347
    17.2347  17.4859  33.5134  34.8045  34.8045

          k = 0.8333-0.1667 0.8333 (   975 PWs)   bands (ev):

   -85.3375 -45.8219 -45.7313 -45.7057  13.7829  14.3273  16.4706  17.1763
    17.7725  20.4991  28.5855  29.8615  34.2728

          k = 0.6667-0.0000 0.6667 (   981 PWs)   bands (ev):

   -85.3374 -45.7852 -45.7845 -45.6907  14.4900  14.6439  15.6059  16.8288
    17.4144  22.7353  25.4486  28.4726  36.6553

          k = 0.0000-1.0000 0.0000 (   982 PWs)   bands (ev):

   -85.3347 -45.8443 -45.7188 -45.7188  13.4146  14.0045  17.6714  17.8702
    17.8702  20.2868  27.2076  32.6830  32.6830

          k = 0.6667-0.3333 1.0000 (   974 PWs)   bands (ev):

   -85.3430 -45.8004 -45.7265 -45.6863  13.8870  14.7756  15.4480  16.9705
    17.2355  19.3351  30.0192  31.1139  34.7662

          k = 0.5000-0.1667 0.8333 (   976 PWs)   bands (ev):

   -85.3374 -45.8075 -45.7532 -45.6992  14.6321  14.6377  15.3831  16.7299
    17.6364  22.9224  24.5523  31.4174  32.1220

          k =-0.3333-1.0000 0.0000 (   978 PWs)   bands (ev):

   -85.3347 -45.8130 -45.7499 -45.7196  14.0444  14.4972  16.0239  17.1216
    17.8712  23.3332  27.5828  28.2989  29.9049

     the Fermi energy is    17.6761 ev

!    total energy              =    -429.15875148 Ry
     Harris-Foulkes estimate   =    -429.15875148 Ry
     estimated scf accuracy    <          2.9E-09 Ry

     total all-electron energy =     -3041.590859 Ry

     The total energy is the sum of the following terms:

     one-electron contribution =    -185.06576908 Ry
     hartree contribution      =     104.70045008 Ry
     xc contribution           =     -34.31683208 Ry
     ewald contribution        =    -223.38275369 Ry
     one-center paw contrib.   =     -91.09172414 Ry
     smearing contrib. (-TS)   =      -0.00212257 Ry

     convergence has been achieved in   6 iterations

     Forces acting on atoms (cartesian axes, Ry/au):

     atom    1 type  1   force =     0.00000000    0.00000000    0.00000000

     Total force =     0.000000     Total SCF correction =     0.000000


     Computing stress (Cartesian axis) and pressure

          total   stress  (Ry/bohr**3)                   (kbar)     P=  -63.82
  -0.00043381   0.00000000   0.00000000        -63.82      0.00      0.00
   0.00000000  -0.00043381  -0.00000000          0.00    -63.82     -0.00
   0.00000000  -0.00000000  -0.00043381          0.00     -0.00    -63.82


     Writing output data file Ni.save/

     init_run     :      0.34s CPU      0.37s WALL (       1 calls)
     electrons    :      2.21s CPU      2.37s WALL (       1 calls)
     forces       :      0.04s CPU      0.04s WALL (       1 calls)
     stress       :      0.12s CPU      0.13s WALL (       1 calls)

     Called by init_run:
     wfcinit      :      0.06s CPU      0.06s WALL (       1 calls)
     potinit      :      0.10s CPU      0.12s WALL (       1 calls)
     hinit0       :      0.16s CPU      0.16s WALL (       1 calls)

     Called by electrons:
     c_bands      :      1.30s CPU      1.36s WALL (       7 calls)
     sum_band     :      0.29s CPU      0.29s WALL (       7 calls)
     v_of_rho     :      0.03s CPU      0.03s WALL (       7 calls)
     newd         :      0.05s CPU      0.07s WALL (       7 calls)
     PAW_pot      :      0.64s CPU      0.73s WALL (       7 calls)
     mix_rho      :      0.00s CPU      0.00s WALL (       7 calls)

     Called by c_bands:
     init_us_2    :      0.04s CPU      0.04s WALL (     272 calls)
     cegterg      :      1.25s CPU      1.31s WALL (     112 calls)

     Called by sum_band:
     sum_band:bec :      0.00s CPU      0.00s WALL (     112 calls)
     addusdens    :      0.05s CPU      0.05s WALL (       7 calls)

     Called by *egterg:
     h_psi        :      0.93s CPU      0.98s WALL (     414 calls)
     s_psi        :      0.03s CPU      0.03s WALL (     414 calls)
     g_psi        :      0.00s CPU      0.00s WALL (     286 calls)
     cdiaghg      :      0.14s CPU      0.15s WALL (     382 calls)

     Called by h_psi:
     h_psi:pot    :      0.92s CPU      0.97s WALL (     414 calls)
     h_psi:calbec :      0.04s CPU      0.05s WALL (     414 calls)
     vloc_psi     :      0.84s CPU      0.89s WALL (     414 calls)
     add_vuspsi   :      0.03s CPU      0.03s WALL (     414 calls)

     General routines
     calbec       :      0.07s CPU      0.08s WALL (     606 calls)
     fft          :      0.02s CPU      0.02s WALL (     104 calls)
     ffts         :      0.00s CPU      0.00s WALL (       7 calls)
     fftw         :      0.97s CPU      1.01s WALL (    8974 calls)

     Parallel routines
     fft_scatt_xy :      0.08s CPU      0.08s WALL (    9085 calls)
     fft_scatt_yz :      0.29s CPU      0.30s WALL (    9085 calls)

     PWSCF        :     3.56s CPU         3.78s WALL


   This run was terminated on:  22:59: 9  26Mar2024            

=------------------------------------------------------------------------------=
   JOB DONE.
=------------------------------------------------------------------------------=
