
     Program PWSCF v.6.3MaX starts on 26Mar2024 at 22:39:31 

     This program is part of the open-source Quantum ESPRESSO suite
     for quantum simulation of materials; please cite
         "P. Giannozzi et al., J. Phys.:Condens. Matter 21 395502 (2009);
         "P. Giannozzi et al., J. Phys.:Condens. Matter 29 465901 (2017);
          URL http://www.quantum-espresso.org", 
     in publications or presentations arising from this work. More details at
     http://www.quantum-espresso.org/quote

     Parallel version (MPI), running on     5 processors

     MPI processes distributed on     1 nodes
     R & G space division:  proc/nbgrp/npool/nimage =       5
     Waiting for input...
     Reading input from standard input

     Current dimensions of program PWSCF are:
     Max number of different atomic species (ntypx) = 10
     Max number of k-points (npk) =  40000
     Max angular momentum in pseudopotentials (lmaxx) =  3

     Subspace diagonalization in iterative solution of the eigenvalue problem:
     a serial algorithm will be used


     Parallelization info
     --------------------
     sticks:   dense  smooth     PW     G-vecs:    dense   smooth      PW
     Min          62      62     21                  705      705     140
     Max          63      63     22                  706      706     141
     Sum         313     313    109                 3527     3527     701



     bravais-lattice index     =            2
     lattice parameter (alat)  =       6.6500  a.u.
     unit-cell volume          =      73.5199 (a.u.)^3
     number of atoms/cell      =            1
     number of atomic types    =            1
     number of electrons       =        18.00
     number of Kohn-Sham states=           13
     kinetic-energy cutoff     =      50.0000  Ry
     charge density cutoff     =     200.0000  Ry
     convergence threshold     =      1.0E-08
     mixing beta               =       0.7000
     number of iterations used =            8  plain     mixing
     Exchange-correlation      = PBE ( 1  4  3  4 0 0)

     celldm(1)=   6.650000  celldm(2)=   0.000000  celldm(3)=   0.000000
     celldm(4)=   0.000000  celldm(5)=   0.000000  celldm(6)=   0.000000

     crystal axes: (cart. coord. in units of alat)
               a(1) = (  -0.500000   0.000000   0.500000 )  
               a(2) = (   0.000000   0.500000   0.500000 )  
               a(3) = (  -0.500000   0.500000   0.000000 )  

     reciprocal axes: (cart. coord. in units 2 pi/alat)
               b(1) = ( -1.000000 -1.000000  1.000000 )  
               b(2) = (  1.000000  1.000000  1.000000 )  
               b(3) = ( -1.000000  1.000000 -1.000000 )  


     PseudoPot. # 1 for Ni read from file:
     /home/lorenzo/pseudos/Ni/Ni.pbe-spn-rrkjus_psl.1.0.0.UPF
     MD5 check sum: 8b3fc9aac6dafe35f580d41bb18c3945
     Pseudo is Ultrasoft + core correction, Zval = 18.0
     Generated using "atomic" code by A. Dal Corso v.6.3
     Using radial grid of 1195 points,  6 beta functions with: 
                l(1) =   0
                l(2) =   0
                l(3) =   1
                l(4) =   1
                l(5) =   2
                l(6) =   2
     Q(r) pseudized with 0 coefficients 


     atomic species   valence    mass     pseudopotential
        Ni            18.00    58.69340     Ni( 1.00)

     48 Sym. Ops., with inversion, found



   Cartesian axes

     site n.     atom                  positions (alat units)
         1           Ni  tau(   1) = (   0.0000000   0.0000000   0.0000000  )

     number of k points=    10  gaussian smearing, width (Ry)=  0.0100
                       cart. coord. in units 2pi/alat
        k(    1) = (   0.0000000   0.0000000   0.0000000), wk =   0.0160000
        k(    2) = (  -0.2000000   0.2000000  -0.2000000), wk =   0.1280000
        k(    3) = (  -0.4000000   0.4000000  -0.4000000), wk =   0.1280000
        k(    4) = (   0.0000000   0.4000000   0.0000000), wk =   0.0960000
        k(    5) = (  -0.2000000   0.6000000  -0.2000000), wk =   0.3840000
        k(    6) = (   0.6000000  -0.2000000   0.6000000), wk =   0.3840000
        k(    7) = (   0.4000000   0.0000000   0.4000000), wk =   0.1920000
        k(    8) = (   0.0000000   0.8000000   0.0000000), wk =   0.0960000
        k(    9) = (   0.8000000   0.0000000   0.8000000), wk =   0.1920000
        k(   10) = (   0.6000000  -0.2000000   1.0000000), wk =   0.3840000

     Dense  grid:     3527 G-vectors     FFT dimensions: (  24,  24,  24)

     Estimated max dynamical RAM per process >       4.07 MB

     Estimated total dynamical RAM >      20.36 MB

     Check: negative/imaginary core charge=   -0.000020    0.000000

     Initial potential from superposition of free atoms

     starting charge   17.99975, renormalised to   18.00000
     Starting wfcs are   10 randomized atomic wfcs +    3 random wfcs

     total cpu time spent up to now is        0.9 secs

     Self-consistent Calculation

     iteration #  1     ecut=    50.00 Ry     beta= 0.70
     Davidson diagonalization with overlap
     ethr =  1.00E-02,  avg # of iterations =  3.9

     Threshold (ethr) on eigenvalues was too large:
     Diagonalizing with lowered threshold

     Davidson diagonalization with overlap
     ethr =  2.92E-05,  avg # of iterations =  2.7

     total cpu time spent up to now is        1.1 secs

     total energy              =    -339.54773150 Ry
     Harris-Foulkes estimate   =    -339.55085186 Ry
     estimated scf accuracy    <       0.00533471 Ry

     iteration #  2     ecut=    50.00 Ry     beta= 0.70
     Davidson diagonalization with overlap
     ethr =  2.96E-05,  avg # of iterations =  2.5

     total cpu time spent up to now is        1.2 secs

     total energy              =    -339.54686260 Ry
     Harris-Foulkes estimate   =    -339.55265127 Ry
     estimated scf accuracy    <       0.01491529 Ry

     iteration #  3     ecut=    50.00 Ry     beta= 0.70
     Davidson diagonalization with overlap
     ethr =  2.96E-05,  avg # of iterations =  2.1

     total cpu time spent up to now is        1.2 secs

     total energy              =    -339.54971093 Ry
     Harris-Foulkes estimate   =    -339.54980164 Ry
     estimated scf accuracy    <       0.00031788 Ry

     iteration #  4     ecut=    50.00 Ry     beta= 0.70
     Davidson diagonalization with overlap
     ethr =  1.77E-06,  avg # of iterations =  1.8

     total cpu time spent up to now is        1.3 secs

     total energy              =    -339.54976314 Ry
     Harris-Foulkes estimate   =    -339.54976250 Ry
     estimated scf accuracy    <       0.00000076 Ry

     iteration #  5     ecut=    50.00 Ry     beta= 0.70
     Davidson diagonalization with overlap
     ethr =  4.23E-09,  avg # of iterations =  3.3

     total cpu time spent up to now is        1.4 secs

     total energy              =    -339.54976411 Ry
     Harris-Foulkes estimate   =    -339.54976415 Ry
     estimated scf accuracy    <       0.00000009 Ry

     iteration #  6     ecut=    50.00 Ry     beta= 0.70
     Davidson diagonalization with overlap
     ethr =  4.73E-10,  avg # of iterations =  1.2

     total cpu time spent up to now is        1.5 secs

     End of self-consistent calculation

          k = 0.0000 0.0000 0.0000 (   459 PWs)   bands (ev):

   -85.2008 -45.4262 -45.4262 -45.4262   8.8801  15.9908  15.9908  15.9908
    17.0938  17.0938  41.4892  45.4403  45.4403

          k =-0.2000 0.2000-0.2000 (   438 PWs)   bands (ev):

   -85.1888 -45.5031 -45.4082 -45.4082  10.3895  15.6703  16.2163  16.2163
    17.0849  17.0849  34.8900  42.0335  43.6256

          k =-0.4000 0.4000-0.4000 (   431 PWs)   bands (ev):

   -85.1696 -45.6159 -45.4337 -45.4337  13.1055  16.0111  16.0111  16.5044
    17.7004  17.7004  25.9375  40.3100  42.6513

          k = 0.0000 0.4000 0.0000 (   443 PWs)   bands (ev):

   -85.1849 -45.4932 -45.4444 -45.4444  10.8543  15.3159  16.5431  16.5631
    16.5631  17.3453  38.8139  38.8139  39.2237

          k =-0.2000 0.6000-0.2000 (   441 PWs)   bands (ev):

   -85.1682 -45.5844 -45.4765 -45.4724  13.2968  14.9805  15.8994  16.6646
    17.7913  18.2693  29.4413  36.1497  36.9352

          k = 0.6000-0.2000 0.6000 (   440 PWs)   bands (ev):

   -85.1618 -45.6184 -45.5004 -45.4682  14.1481  15.2573  15.8746  16.4673
    17.6621  20.8452  24.5820  33.1262  38.7202

          k = 0.4000 0.0000 0.4000 (   433 PWs)   bands (ev):

   -85.1745 -45.5487 -45.4728 -45.4204  12.5131  15.2969  15.9394  16.6343
    16.7615  18.1747  32.2346  33.1403  43.1576

          k = 0.0000 0.8000 0.0000 (   448 PWs)   bands (ev):

   -85.1595 -45.6205 -45.5084 -45.5084  13.4748  14.2923  17.7462  17.7711
    17.7711  18.4058  30.1935  33.4968  33.4968

          k = 0.8000 0.0000 0.8000 (   434 PWs)   bands (ev):

   -85.1555 -45.6080 -45.5227 -45.4898  14.0225  14.4416  16.5976  17.4263
    17.8665  22.7823  26.8230  27.9644  34.2336

          k = 0.6000-0.2000 1.0000 (   446 PWs)   bands (ev):

   -85.1580 -45.5987 -45.5466 -45.4908  14.4194  14.9260  15.4682  17.1120
    17.7653  21.7416  27.9474  29.6572  31.6887

     the Fermi energy is    17.8491 ev

!    total energy              =    -339.54976412 Ry
     Harris-Foulkes estimate   =    -339.54976412 Ry
     estimated scf accuracy    <          3.2E-09 Ry

     The total energy is the sum of the following terms:

     one-electron contribution =    -186.69928559 Ry
     hartree contribution      =     104.87495161 Ry
     xc contribution           =     -34.33957083 Ry
     ewald contribution        =    -223.38275374 Ry
     smearing contrib. (-TS)   =      -0.00310556 Ry

     convergence has been achieved in   6 iterations

     Forces acting on atoms (cartesian axes, Ry/au):

     atom    1 type  1   force =     0.00000000    0.00000000    0.00000000

     Total force =     0.000000     Total SCF correction =     0.000000


     Computing stress (Cartesian axis) and pressure

          total   stress  (Ry/bohr**3)                   (kbar)     P= -728.71
  -0.00495370  -0.00000000  -0.00000000       -728.71     -0.00     -0.00
  -0.00000000  -0.00495370   0.00000000         -0.00   -728.71      0.00
  -0.00000000   0.00000000  -0.00495370         -0.00      0.00   -728.71


     Writing output data file Ni.save/

     init_run     :      0.15s CPU      0.16s WALL (       1 calls)
     electrons    :      0.58s CPU      0.62s WALL (       1 calls)
     forces       :      0.01s CPU      0.02s WALL (       1 calls)
     stress       :      0.04s CPU      0.04s WALL (       1 calls)

     Called by init_run:
     wfcinit      :      0.02s CPU      0.02s WALL (       1 calls)
     potinit      :      0.01s CPU      0.01s WALL (       1 calls)
     hinit0       :      0.12s CPU      0.12s WALL (       1 calls)

     Called by electrons:
     c_bands      :      0.45s CPU      0.48s WALL (       7 calls)
     sum_band     :      0.10s CPU      0.10s WALL (       7 calls)
     v_of_rho     :      0.02s CPU      0.02s WALL (       7 calls)
     newd         :      0.02s CPU      0.02s WALL (       7 calls)
     mix_rho      :      0.00s CPU      0.00s WALL (       7 calls)

     Called by c_bands:
     init_us_2    :      0.01s CPU      0.01s WALL (     170 calls)
     cegterg      :      0.43s CPU      0.46s WALL (      70 calls)

     Called by sum_band:
     sum_band:bec :      0.00s CPU      0.00s WALL (      70 calls)
     addusdens    :      0.02s CPU      0.02s WALL (       7 calls)

     Called by *egterg:
     h_psi        :      0.31s CPU      0.33s WALL (     255 calls)
     s_psi        :      0.01s CPU      0.01s WALL (     255 calls)
     g_psi        :      0.00s CPU      0.00s WALL (     175 calls)
     cdiaghg      :      0.08s CPU      0.08s WALL (     235 calls)

     Called by h_psi:
     h_psi:pot    :      0.30s CPU      0.33s WALL (     255 calls)
     h_psi:calbec :      0.01s CPU      0.01s WALL (     255 calls)
     vloc_psi     :      0.28s CPU      0.30s WALL (     255 calls)
     add_vuspsi   :      0.01s CPU      0.01s WALL (     255 calls)

     General routines
     calbec       :      0.02s CPU      0.02s WALL (     375 calls)
     fft          :      0.01s CPU      0.01s WALL (     104 calls)
     ffts         :      0.00s CPU      0.00s WALL (       7 calls)
     fftw         :      0.31s CPU      0.34s WALL (    5572 calls)

     Parallel routines
     fft_scatt_xy :      0.03s CPU      0.03s WALL (    5683 calls)
     fft_scatt_yz :      0.08s CPU      0.09s WALL (    5683 calls)

     PWSCF        :     1.51s CPU         1.61s WALL


   This run was terminated on:  22:39:33  26Mar2024            

=------------------------------------------------------------------------------=
   JOB DONE.
=------------------------------------------------------------------------------=
