
     Program PWSCF v.6.3MaX starts on 26Mar2024 at 22:35:33 

     This program is part of the open-source Quantum ESPRESSO suite
     for quantum simulation of materials; please cite
         "P. Giannozzi et al., J. Phys.:Condens. Matter 21 395502 (2009);
         "P. Giannozzi et al., J. Phys.:Condens. Matter 29 465901 (2017);
          URL http://www.quantum-espresso.org", 
     in publications or presentations arising from this work. More details at
     http://www.quantum-espresso.org/quote

     Parallel version (MPI), running on     5 processors

     MPI processes distributed on     1 nodes
     R & G space division:  proc/nbgrp/npool/nimage =       5
     Waiting for input...
     Reading input from standard input

     Current dimensions of program PWSCF are:
     Max number of different atomic species (ntypx) = 10
     Max number of k-points (npk) =  40000
     Max angular momentum in pseudopotentials (lmaxx) =  3
               file Ni.pbesol-spn-kjpaw_psl.1.0.0.UPF: wavefunction(s)  3P 3D renormalized

     Subspace diagonalization in iterative solution of the eigenvalue problem:
     a serial algorithm will be used


     Parallelization info
     --------------------
     sticks:   dense  smooth     PW     G-vecs:    dense   smooth      PW
     Min          49      49     17                  513      513     106
     Max          51      51     17                  513      513     107
     Sum         253     253     85                 2565     2565     531



     bravais-lattice index     =            2
     lattice parameter (alat)  =       6.6500  a.u.
     unit-cell volume          =      73.5199 (a.u.)^3
     number of atoms/cell      =            1
     number of atomic types    =            1
     number of electrons       =        18.00
     number of Kohn-Sham states=           13
     kinetic-energy cutoff     =      40.0000  Ry
     charge density cutoff     =     160.0000  Ry
     convergence threshold     =      1.0E-08
     mixing beta               =       0.7000
     number of iterations used =            8  plain     mixing
     Exchange-correlation      = SLA PW PSX PSC ( 1  4 10  8 0 0)

     celldm(1)=   6.650000  celldm(2)=   0.000000  celldm(3)=   0.000000
     celldm(4)=   0.000000  celldm(5)=   0.000000  celldm(6)=   0.000000

     crystal axes: (cart. coord. in units of alat)
               a(1) = (  -0.500000   0.000000   0.500000 )  
               a(2) = (   0.000000   0.500000   0.500000 )  
               a(3) = (  -0.500000   0.500000   0.000000 )  

     reciprocal axes: (cart. coord. in units 2 pi/alat)
               b(1) = ( -1.000000 -1.000000  1.000000 )  
               b(2) = (  1.000000  1.000000  1.000000 )  
               b(3) = ( -1.000000  1.000000 -1.000000 )  


     PseudoPot. # 1 for Ni read from file:
     /home/lorenzo/pseudos/Ni/Ni.pbesol-spn-kjpaw_psl.1.0.0.UPF
     MD5 check sum: ef06ee83099c2673f0516457bd731f51
     Pseudo is Projector augmented-wave + core cor, Zval = 18.0
     Generated using "atomic" code by A. Dal Corso v.6.3
     Shape of augmentation charge: PSQ
     Using radial grid of 1195 points,  6 beta functions with: 
                l(1) =   0
                l(2) =   0
                l(3) =   1
                l(4) =   1
                l(5) =   2
                l(6) =   2
     Q(r) pseudized with 0 coefficients 


     atomic species   valence    mass     pseudopotential
        Ni            18.00    58.69340     Ni( 1.00)

     48 Sym. Ops., with inversion, found



   Cartesian axes

     site n.     atom                  positions (alat units)
         1           Ni  tau(   1) = (   0.0000000   0.0000000   0.0000000  )

     number of k points=    35  gaussian smearing, width (Ry)=  0.0100
                       cart. coord. in units 2pi/alat
        k(    1) = (   0.0000000   0.0000000   0.0000000), wk =   0.0027435
        k(    2) = (  -0.1111111   0.1111111  -0.1111111), wk =   0.0219479
        k(    3) = (  -0.2222222   0.2222222  -0.2222222), wk =   0.0219479
        k(    4) = (  -0.3333333   0.3333333  -0.3333333), wk =   0.0219479
        k(    5) = (  -0.4444444   0.4444444  -0.4444444), wk =   0.0219479
        k(    6) = (   0.0000000   0.2222222   0.0000000), wk =   0.0164609
        k(    7) = (  -0.1111111   0.3333333  -0.1111111), wk =   0.0658436
        k(    8) = (  -0.2222222   0.4444444  -0.2222222), wk =   0.0658436
        k(    9) = (  -0.3333333   0.5555556  -0.3333333), wk =   0.0658436
        k(   10) = (   0.5555556  -0.3333333   0.5555556), wk =   0.0658436
        k(   11) = (   0.4444444  -0.2222222   0.4444444), wk =   0.0658436
        k(   12) = (   0.3333333  -0.1111111   0.3333333), wk =   0.0658436
        k(   13) = (   0.2222222  -0.0000000   0.2222222), wk =   0.0329218
        k(   14) = (   0.0000000   0.4444444   0.0000000), wk =   0.0164609
        k(   15) = (  -0.1111111   0.5555556  -0.1111111), wk =   0.0658436
        k(   16) = (  -0.2222222   0.6666667  -0.2222222), wk =   0.0658436
        k(   17) = (   0.6666667  -0.2222222   0.6666667), wk =   0.0658436
        k(   18) = (   0.5555556  -0.1111111   0.5555556), wk =   0.0658436
        k(   19) = (   0.4444444   0.0000000   0.4444444), wk =   0.0329218
        k(   20) = (   0.0000000   0.6666667   0.0000000), wk =   0.0164609
        k(   21) = (  -0.1111111   0.7777778  -0.1111111), wk =   0.0658436
        k(   22) = (   0.7777778  -0.1111111   0.7777778), wk =   0.0658436
        k(   23) = (   0.6666667  -0.0000000   0.6666667), wk =   0.0329218
        k(   24) = (   0.0000000   0.8888889   0.0000000), wk =   0.0164609
        k(   25) = (   0.8888889   0.0000000   0.8888889), wk =   0.0329218
        k(   26) = (  -0.2222222   0.4444444   0.0000000), wk =   0.0658436
        k(   27) = (  -0.3333333   0.5555556  -0.1111111), wk =   0.1316872
        k(   28) = (   0.5555556  -0.3333333   0.7777778), wk =   0.1316872
        k(   29) = (  -0.2222222   0.6666667   0.0000000), wk =   0.0658436
        k(   30) = (   0.6666667  -0.2222222   0.8888889), wk =   0.1316872
        k(   31) = (   0.5555556  -0.1111111   0.7777778), wk =   0.1316872
        k(   32) = (   0.4444444   0.0000000   0.6666667), wk =   0.0658436
        k(   33) = (   0.7777778  -0.1111111   1.0000000), wk =   0.0658436
        k(   34) = (   0.6666667  -0.0000000   0.8888889), wk =   0.0658436
        k(   35) = (   0.5555556  -0.1111111   1.0000000), wk =   0.0658436

     Dense  grid:     2565 G-vectors     FFT dimensions: (  20,  20,  20)

     Estimated max dynamical RAM per process >       3.43 MB

     Estimated total dynamical RAM >      17.16 MB

     Check: negative/imaginary core charge=   -0.000044    0.000000

     Initial potential from superposition of free atoms

     starting charge   17.99977, renormalised to   18.00000
     Starting wfcs are   10 randomized atomic wfcs +    3 random wfcs
     Checking if some PAW data can be deallocated... 

     total cpu time spent up to now is        1.0 secs

     Self-consistent Calculation

     iteration #  1     ecut=    40.00 Ry     beta= 0.70
     Davidson diagonalization with overlap
     ethr =  1.00E-02,  avg # of iterations =  4.5

     Threshold (ethr) on eigenvalues was too large:
     Diagonalizing with lowered threshold

     Davidson diagonalization with overlap
     ethr =  1.93E-04,  avg # of iterations =  1.2

     total cpu time spent up to now is        1.6 secs

     total energy              =    -426.05021107 Ry
     Harris-Foulkes estimate   =    -426.07016523 Ry
     estimated scf accuracy    <       0.03609214 Ry

     iteration #  2     ecut=    40.00 Ry     beta= 0.70
     Davidson diagonalization with overlap
     ethr =  2.01E-04,  avg # of iterations =  2.1

     total cpu time spent up to now is        1.9 secs

     total energy              =    -426.04117562 Ry
     Harris-Foulkes estimate   =    -426.07739944 Ry
     estimated scf accuracy    <       0.09096402 Ry

     iteration #  3     ecut=    40.00 Ry     beta= 0.70
     Davidson diagonalization with overlap
     ethr =  2.01E-04,  avg # of iterations =  2.0

     total cpu time spent up to now is        2.2 secs

     total energy              =    -426.06066185 Ry
     Harris-Foulkes estimate   =    -426.06219948 Ry
     estimated scf accuracy    <       0.00563525 Ry

     iteration #  4     ecut=    40.00 Ry     beta= 0.70
     Davidson diagonalization with overlap
     ethr =  3.13E-05,  avg # of iterations =  1.6

     total cpu time spent up to now is        2.6 secs

     total energy              =    -426.06134653 Ry
     Harris-Foulkes estimate   =    -426.06135475 Ry
     estimated scf accuracy    <       0.00005505 Ry

     iteration #  5     ecut=    40.00 Ry     beta= 0.70
     Davidson diagonalization with overlap
     ethr =  3.06E-07,  avg # of iterations =  2.3

     total cpu time spent up to now is        2.9 secs

     total energy              =    -426.06136817 Ry
     Harris-Foulkes estimate   =    -426.06136965 Ry
     estimated scf accuracy    <       0.00000535 Ry

     iteration #  6     ecut=    40.00 Ry     beta= 0.70
     Davidson diagonalization with overlap
     ethr =  2.97E-08,  avg # of iterations =  1.1

     total cpu time spent up to now is        3.2 secs

     total energy              =    -426.06136858 Ry
     Harris-Foulkes estimate   =    -426.06136867 Ry
     estimated scf accuracy    <       0.00000028 Ry

     iteration #  7     ecut=    40.00 Ry     beta= 0.70
     Davidson diagonalization with overlap
     ethr =  1.57E-09,  avg # of iterations =  2.0

     total cpu time spent up to now is        3.5 secs

     End of self-consistent calculation

          k = 0.0000 0.0000 0.0000 (   331 PWs)   bands (ev):

   -85.6171 -45.6023 -45.6023 -45.6023   8.7414  15.6232  15.6232  15.6232
    16.7037  16.7037  41.2598  45.1761  45.1761

          k =-0.1111 0.1111-0.1111 (   319 PWs)   bands (ev):

   -85.6091 -45.5166 -45.5166 -45.3942   9.2382  15.6288  15.7726  15.7726
    16.7676  16.7676  38.9969  42.4726  44.1821

          k =-0.2222 0.2222-0.2222 (   311 PWs)   bands (ev):

   -85.5967 -45.4286 -45.3913 -45.3913  10.5761  15.3703  15.9655  15.9655
    16.9223  16.9223  33.5037  41.6369  43.0993

          k =-0.3333 0.3333-0.3333 (   308 PWs)   bands (ev):

   -85.5833 -45.4050 -45.3532 -45.3532  12.2631  15.5480  15.8726  15.8726
    17.3654  17.3654  28.3571  40.5992  42.4952

          k =-0.4444 0.4444-0.4444 (   317 PWs)   bands (ev):

   -85.5774 -45.5310 -45.4412 -45.4412  13.1511  15.7247  15.7247  16.8859
    17.5185  17.5185  24.4826  39.8763  42.3008

          k = 0.0000 0.2222 0.0000 (   315 PWs)   bands (ev):

   -85.6063 -45.4421 -45.4421 -45.3994   9.4030  15.4769  15.9316  15.9316
    16.6345  16.9053  40.1031  41.7252  41.7252

          k =-0.1111 0.3333-0.1111 (   316 PWs)   bands (ev):

   -85.5989 -45.5093 -45.4647 -45.4032  10.4328  15.2252  16.0427  16.0805
    16.5740  17.0220  35.6395  40.0178  40.3466

          k =-0.2222 0.4444-0.2222 (   315 PWs)   bands (ev):

   -85.5866 -45.5009 -45.4548 -45.3975  12.0574  15.1097  15.8163  16.0616
    17.1948  17.3585  30.2559  39.1217  39.2983

          k =-0.3333 0.5556-0.3333 (   312 PWs)   bands (ev):

   -85.5762 -45.5104 -45.4262 -45.3267  13.2791  15.5095  15.8325  15.9815
    17.5820  18.2888  25.7367  38.0518  39.1683

          k = 0.5556-0.3333 0.5556 (   316 PWs)   bands (ev):

   -85.5746 -45.5136 -45.4473 -45.4368  13.4946  15.4916  15.8892  16.1774
    17.4992  19.1285  23.9564  36.9359  40.2761

          k = 0.4444-0.2222 0.4444 (   313 PWs)   bands (ev):

   -85.5793 -45.5424 -45.3790 -45.3771  13.0076  15.5246  15.6643  15.9711
    17.2384  18.0924  27.0973  36.4525  41.6097

          k = 0.3333-0.1111 0.3333 (   313 PWs)   bands (ev):

   -85.5905 -45.4562 -45.4421 -45.3953  11.5063  15.1975  15.8633  16.1055
    16.7340  17.4211  31.9993  36.7398  43.4702

          k = 0.2222-0.0000 0.2222 (   317 PWs)   bands (ev):

   -85.6029 -45.5041 -45.4784 -45.4248  10.0000  15.4217  15.9241  15.9299
    16.6070  16.9439  37.1074  38.1856  44.4607

          k = 0.0000 0.4444 0.0000 (   307 PWs)   bands (ev):

   -85.5906 -45.4134 -45.4134 -45.2650  11.1328  14.9342  16.3665  16.5075
    16.5075  17.1430  37.7308  37.7308  38.5970

          k =-0.1111 0.5556-0.1111 (   316 PWs)   bands (ev):

   -85.5842 -45.5600 -45.4556 -45.4250  12.3822  14.6608  15.9264  16.6124
    17.1851  17.3486  32.7545  36.3767  36.5425

          k =-0.2222 0.6667-0.2222 (   318 PWs)   bands (ev):

   -85.5759 -45.6120 -45.4710 -45.4395  13.5699  14.6643  15.6344  16.5160
    17.5777  18.7684  27.8269  34.2375  36.1222

          k = 0.6667-0.2222 0.6667 (   311 PWs)   bands (ev):

   -85.5691 -45.4313 -45.4221 -45.4017  14.0773  14.8657  15.6258  16.4246
    17.5728  21.1464  24.2902  32.4888  37.0716

          k = 0.5556-0.1111 0.5556 (   313 PWs)   bands (ev):

   -85.5721 -45.5012 -45.4411 -45.3595  14.0086  15.0776  15.3363  16.3953
    17.1815  19.9122  26.4144  31.5366  39.1425

          k = 0.4444 0.0000 0.4444 (   315 PWs)   bands (ev):

   -85.5814 -45.5387 -45.4941 -45.3575  12.9622  15.0366  15.5226  16.4457
    16.6613  18.2671  30.6633  31.8950  42.0399

          k = 0.0000 0.6667 0.0000 (   323 PWs)   bands (ev):

   -85.5803 -45.6516 -45.5368 -45.5368  12.9252  14.3004  16.6862  17.0678
    17.0678  17.3276  33.2470  34.5124  34.5124

          k =-0.1111 0.7778-0.1111 (   318 PWs)   bands (ev):

   -85.5717 -45.5888 -45.4950 -45.4733  13.4495  14.1629  16.5986  17.1363
    17.6403  18.9154  30.3414  31.0793  33.8325

          k = 0.7778-0.1111 0.7778 (   311 PWs)   bands (ev):

   -85.5652 -45.4504 -45.4469 -45.3740  13.9474  14.3402  16.1385  17.0246
    17.6664  21.9482  26.3080  28.9763  34.4850

          k = 0.6667-0.0000 0.6667 (   309 PWs)   bands (ev):

   -85.5652 -45.4108 -45.3917 -45.3620  14.4023  14.5748  15.5605  16.8240
    17.4032  22.6382  25.2200  28.5077  36.3659

          k = 0.0000 0.8889 0.0000 (   322 PWs)   bands (ev):

   -85.5691 -45.6265 -45.5389 -45.5389  13.3182  13.9192  17.5002  17.6452
    17.6452  19.2670  28.1803  32.6629  32.6629

          k = 0.8889 0.0000 0.8889 (   314 PWs)   bands (ev):

   -85.5649 -45.5054 -45.5039 -45.4079  13.5469  13.9809  17.1426  17.4011
    17.7616  21.0257  27.2935  29.9647  32.8977

          k =-0.2222 0.4444 0.0000 (   314 PWs)   bands (ev):

   -85.5894 -45.4892 -45.4498 -45.3974  11.6452  14.9749  15.8596  16.4785
    16.6200  17.4059  34.0201  34.8416  40.5097

          k =-0.3333 0.5556-0.1111 (   315 PWs)   bands (ev):

   -85.5796 -45.5531 -45.4502 -45.3967  13.1435  14.9261  15.4865  16.4169
    17.1468  18.2721  29.1650  33.9754  37.9385

          k = 0.5556-0.3333 0.7778 (   315 PWs)   bands (ev):

   -85.5724 -45.5300 -45.4496 -45.4070  13.8934  15.0547  15.5787  16.2622
    17.4693  20.0390  24.9717  34.2335  35.9974

          k =-0.2222 0.6667 0.0000 (   318 PWs)   bands (ev):

   -85.5767 -45.6202 -45.4757 -45.4339  13.3406  14.4692  15.7848  17.0636
    17.1571  18.3754  31.5270  32.2200  34.1299

          k = 0.6667-0.2222 0.8889 (   311 PWs)   bands (ev):

   -85.5678 -45.4576 -45.4372 -45.3689  14.0665  14.5526  15.5587  16.8973
    17.5887  20.7158  27.2096  31.3681  32.5246

          k = 0.5556-0.1111 0.7778 (   314 PWs)   bands (ev):

   -85.5673 -45.5064 -45.4543 -45.4025  14.5039  14.5711  15.3443  16.6661
    17.5037  22.6857  24.6677  30.0388  33.4428

          k = 0.4444 0.0000 0.6667 (   314 PWs)   bands (ev):

   -85.5713 -45.4704 -45.4690 -45.4177  14.2261  14.9248  14.9902  16.6735
    17.1909  20.1811  28.0555  29.9250  35.3755

          k = 0.7778-0.1111 1.0000 (   314 PWs)   bands (ev):

   -85.5660 -45.4972 -45.4630 -45.4399  13.6734  14.1503  16.5119  17.2941
    17.7345  20.9589  28.4243  30.0281  31.1601

          k = 0.6667-0.0000 0.8889 (   316 PWs)   bands (ev):

   -85.5652 -45.5291 -45.5156 -45.3870  14.0064  14.4028  15.8783  17.0449
    17.6917  23.3747  26.1955  27.8883  31.6400

          k = 0.5556-0.1111 1.0000 (   313 PWs)   bands (ev):

   -85.5649 -45.4968 -45.4504 -45.3858  14.2655  14.8261  15.2525  16.8260
    17.7077  23.4406  26.4976  28.5672  30.0165

     the Fermi energy is    17.6050 ev

!    total energy              =    -426.06136863 Ry
     Harris-Foulkes estimate   =    -426.06136863 Ry
     estimated scf accuracy    <          1.9E-09 Ry

     total all-electron energy =     -3038.519713 Ry

     The total energy is the sum of the following terms:

     one-electron contribution =    -184.13408317 Ry
     hartree contribution      =     104.07591160 Ry
     xc contribution           =     -33.89947710 Ry
     ewald contribution        =    -223.38275372 Ry
     one-center paw contrib.   =     -88.71867432 Ry
     smearing contrib. (-TS)   =      -0.00229191 Ry

     convergence has been achieved in   7 iterations

     Forces acting on atoms (cartesian axes, Ry/au):

     atom    1 type  1   force =     0.00000000    0.00000000    0.00000000

     Total force =     0.000000     Total SCF correction =     0.000000


     Computing stress (Cartesian axis) and pressure

          total   stress  (Ry/bohr**3)                   (kbar)     P=-6263.50
  -0.04257839   0.00000000   0.00000000      -6263.50      0.00      0.00
   0.00000000  -0.04257839  -0.00000000          0.00  -6263.50     -0.00
   0.00000000  -0.00000000  -0.04257839          0.00     -0.00  -6263.50


     Writing output data file Ni.save/

     init_run     :      0.26s CPU      0.29s WALL (       1 calls)
     electrons    :      2.25s CPU      2.49s WALL (       1 calls)
     forces       :      0.02s CPU      0.02s WALL (       1 calls)
     stress       :      0.06s CPU      0.06s WALL (       1 calls)

     Called by init_run:
     wfcinit      :      0.05s CPU      0.06s WALL (       1 calls)
     potinit      :      0.08s CPU      0.10s WALL (       1 calls)
     hinit0       :      0.10s CPU      0.10s WALL (       1 calls)

     Called by electrons:
     c_bands      :      1.38s CPU      1.49s WALL (       8 calls)
     sum_band     :      0.23s CPU      0.25s WALL (       8 calls)
     v_of_rho     :      0.01s CPU      0.01s WALL (       8 calls)
     newd         :      0.02s CPU      0.02s WALL (       8 calls)
     PAW_pot      :      0.69s CPU      0.81s WALL (       8 calls)
     mix_rho      :      0.00s CPU      0.00s WALL (       8 calls)

     Called by c_bands:
     init_us_2    :      0.03s CPU      0.03s WALL (     665 calls)
     cegterg      :      1.33s CPU      1.44s WALL (     280 calls)

     Called by sum_band:
     sum_band:bec :      0.00s CPU      0.00s WALL (     280 calls)
     addusdens    :      0.02s CPU      0.02s WALL (       8 calls)

     Called by *egterg:
     h_psi        :      0.89s CPU      0.97s WALL (     909 calls)
     s_psi        :      0.03s CPU      0.03s WALL (     909 calls)
     g_psi        :      0.00s CPU      0.00s WALL (     594 calls)
     cdiaghg      :      0.28s CPU      0.30s WALL (     839 calls)

     Called by h_psi:
     h_psi:pot    :      0.89s CPU      0.97s WALL (     909 calls)
     h_psi:calbec :      0.05s CPU      0.05s WALL (     909 calls)
     vloc_psi     :      0.81s CPU      0.88s WALL (     909 calls)
     add_vuspsi   :      0.03s CPU      0.03s WALL (     909 calls)

     General routines
     calbec       :      0.08s CPU      0.08s WALL (    1364 calls)
     fft          :      0.01s CPU      0.01s WALL (     115 calls)
     ffts         :      0.00s CPU      0.00s WALL (       8 calls)
     fftw         :      0.90s CPU      0.98s WALL (   21608 calls)

     Parallel routines
     fft_scatt_xy :      0.08s CPU      0.09s WALL (   21731 calls)
     fft_scatt_yz :      0.29s CPU      0.31s WALL (   21731 calls)

     PWSCF        :     3.33s CPU         3.65s WALL


   This run was terminated on:  22:35:37  26Mar2024            

=------------------------------------------------------------------------------=
   JOB DONE.
=------------------------------------------------------------------------------=
