
     Program PWSCF v.6.3MaX starts on 26Mar2024 at 22:47:16 

     This program is part of the open-source Quantum ESPRESSO suite
     for quantum simulation of materials; please cite
         "P. Giannozzi et al., J. Phys.:Condens. Matter 21 395502 (2009);
         "P. Giannozzi et al., J. Phys.:Condens. Matter 29 465901 (2017);
          URL http://www.quantum-espresso.org", 
     in publications or presentations arising from this work. More details at
     http://www.quantum-espresso.org/quote

     Parallel version (MPI), running on     5 processors

     MPI processes distributed on     1 nodes
     R & G space division:  proc/nbgrp/npool/nimage =       5
     Waiting for input...
     Reading input from standard input

     Current dimensions of program PWSCF are:
     Max number of different atomic species (ntypx) = 10
     Max number of k-points (npk) =  40000
     Max angular momentum in pseudopotentials (lmaxx) =  3
               file Ni.pbe-spn-kjpaw_psl.1.0.0.UPF: wavefunction(s)  3P 3D renormalized

     Subspace diagonalization in iterative solution of the eigenvalue problem:
     a serial algorithm will be used


     Parallelization info
     --------------------
     sticks:   dense  smooth     PW     G-vecs:    dense   smooth      PW
     Min          79      79     24                 1032     1032     187
     Max          80      80     25                 1033     1033     191
     Sum         397     397    121                 5161     5161     941



     bravais-lattice index     =            2
     lattice parameter (alat)  =       6.6500  a.u.
     unit-cell volume          =      73.5199 (a.u.)^3
     number of atoms/cell      =            1
     number of atomic types    =            1
     number of electrons       =        18.00
     number of Kohn-Sham states=           13
     kinetic-energy cutoff     =      65.0000  Ry
     charge density cutoff     =     260.0000  Ry
     convergence threshold     =      1.0E-08
     mixing beta               =       0.7000
     number of iterations used =            8  plain     mixing
     Exchange-correlation      = SLA PW PBX PBC ( 1  4  3  4 0 0)

     celldm(1)=   6.650000  celldm(2)=   0.000000  celldm(3)=   0.000000
     celldm(4)=   0.000000  celldm(5)=   0.000000  celldm(6)=   0.000000

     crystal axes: (cart. coord. in units of alat)
               a(1) = (  -0.500000   0.000000   0.500000 )  
               a(2) = (   0.000000   0.500000   0.500000 )  
               a(3) = (  -0.500000   0.500000   0.000000 )  

     reciprocal axes: (cart. coord. in units 2 pi/alat)
               b(1) = ( -1.000000 -1.000000  1.000000 )  
               b(2) = (  1.000000  1.000000  1.000000 )  
               b(3) = ( -1.000000  1.000000 -1.000000 )  


     PseudoPot. # 1 for Ni read from file:
     /home/lorenzo/pseudos/Ni/Ni.pbe-spn-kjpaw_psl.1.0.0.UPF
     MD5 check sum: 6e86b733589c3ad8389697b807d86aa7
     Pseudo is Projector augmented-wave + core cor, Zval = 18.0
     Generated using "atomic" code by A. Dal Corso v.6.3
     Shape of augmentation charge: PSQ
     Using radial grid of 1195 points,  6 beta functions with: 
                l(1) =   0
                l(2) =   0
                l(3) =   1
                l(4) =   1
                l(5) =   2
                l(6) =   2
     Q(r) pseudized with 0 coefficients 


     atomic species   valence    mass     pseudopotential
        Ni            18.00    58.69340     Ni( 1.00)

     48 Sym. Ops., with inversion, found



   Cartesian axes

     site n.     atom                  positions (alat units)
         1           Ni  tau(   1) = (   0.0000000   0.0000000   0.0000000  )

     number of k points=    16  gaussian smearing, width (Ry)=  0.0100
                       cart. coord. in units 2pi/alat
        k(    1) = (   0.0000000   0.0000000   0.0000000), wk =   0.0092593
        k(    2) = (  -0.1666667   0.1666667  -0.1666667), wk =   0.0740741
        k(    3) = (  -0.3333333   0.3333333  -0.3333333), wk =   0.0740741
        k(    4) = (   0.5000000  -0.5000000   0.5000000), wk =   0.0370370
        k(    5) = (   0.0000000   0.3333333   0.0000000), wk =   0.0555556
        k(    6) = (  -0.1666667   0.5000000  -0.1666667), wk =   0.2222222
        k(    7) = (   0.6666667  -0.3333333   0.6666667), wk =   0.2222222
        k(    8) = (   0.5000000  -0.1666667   0.5000000), wk =   0.2222222
        k(    9) = (   0.3333333   0.0000000   0.3333333), wk =   0.1111111
        k(   10) = (   0.0000000   0.6666667   0.0000000), wk =   0.0555556
        k(   11) = (   0.8333333  -0.1666667   0.8333333), wk =   0.2222222
        k(   12) = (   0.6666667  -0.0000000   0.6666667), wk =   0.1111111
        k(   13) = (   0.0000000  -1.0000000   0.0000000), wk =   0.0277778
        k(   14) = (   0.6666667  -0.3333333   1.0000000), wk =   0.2222222
        k(   15) = (   0.5000000  -0.1666667   0.8333333), wk =   0.2222222
        k(   16) = (  -0.3333333  -1.0000000   0.0000000), wk =   0.1111111

     Dense  grid:     5161 G-vectors     FFT dimensions: (  25,  25,  25)

     Estimated max dynamical RAM per process >       5.65 MB

     Estimated total dynamical RAM >      28.26 MB

     Check: negative/imaginary core charge=   -0.000011    0.000000

     Initial potential from superposition of free atoms

     starting charge   17.99975, renormalised to   18.00000
     Starting wfcs are   10 randomized atomic wfcs +    3 random wfcs
     Checking if some PAW data can be deallocated... 

     total cpu time spent up to now is        1.0 secs

     Self-consistent Calculation

     iteration #  1     ecut=    65.00 Ry     beta= 0.70
     Davidson diagonalization with overlap
     ethr =  1.00E-02,  avg # of iterations =  3.6

     Threshold (ethr) on eigenvalues was too large:
     Diagonalizing with lowered threshold

     Davidson diagonalization with overlap
     ethr =  1.50E-05,  avg # of iterations =  3.3

     total cpu time spent up to now is        1.6 secs

     total energy              =    -429.14736962 Ry
     Harris-Foulkes estimate   =    -429.14862060 Ry
     estimated scf accuracy    <       0.00274626 Ry

     iteration #  2     ecut=    65.00 Ry     beta= 0.70
     Davidson diagonalization with overlap
     ethr =  1.53E-05,  avg # of iterations =  2.2

     total cpu time spent up to now is        1.9 secs

     total energy              =    -429.14680721 Ry
     Harris-Foulkes estimate   =    -429.15002695 Ry
     estimated scf accuracy    <       0.00884148 Ry

     iteration #  3     ecut=    65.00 Ry     beta= 0.70
     Davidson diagonalization with overlap
     ethr =  1.53E-05,  avg # of iterations =  2.1

     total cpu time spent up to now is        2.1 secs

     total energy              =    -429.14833430 Ry
     Harris-Foulkes estimate   =    -429.14835607 Ry
     estimated scf accuracy    <       0.00013633 Ry

     iteration #  4     ecut=    65.00 Ry     beta= 0.70
     Davidson diagonalization with overlap
     ethr =  7.57E-07,  avg # of iterations =  1.4

     total cpu time spent up to now is        2.4 secs

     total energy              =    -429.14835202 Ry
     Harris-Foulkes estimate   =    -429.14835171 Ry
     estimated scf accuracy    <       0.00000052 Ry

     iteration #  5     ecut=    65.00 Ry     beta= 0.70
     Davidson diagonalization with overlap
     ethr =  2.88E-09,  avg # of iterations =  3.1

     total cpu time spent up to now is        2.7 secs

     total energy              =    -429.14835248 Ry
     Harris-Foulkes estimate   =    -429.14835249 Ry
     estimated scf accuracy    <       0.00000005 Ry

     iteration #  6     ecut=    65.00 Ry     beta= 0.70
     Davidson diagonalization with overlap
     ethr =  2.52E-10,  avg # of iterations =  1.2

     total cpu time spent up to now is        2.9 secs

     End of self-consistent calculation

          k = 0.0000 0.0000 0.0000 (   645 PWs)   bands (ev):

   -85.3897 -45.6386 -45.6386 -45.6386   8.8230  15.8454  15.8454  15.8454
    16.9478  16.9478  41.4897  45.4355  45.4355

          k =-0.1667 0.1667-0.1667 (   649 PWs)   bands (ev):

   -85.3815 -45.6940 -45.6465 -45.6465   9.8807  15.5980  16.0255  16.0255
    16.9071  16.9071  36.5455  42.2582  43.9127

          k =-0.3333 0.3333-0.3333 (   646 PWs)   bands (ev):

   -85.3645 -45.8040 -45.6625 -45.6625  12.3456  15.6984  15.9492  15.9492
    17.3287  17.3287  28.4737  40.8163  42.8057

          k = 0.5000-0.5000 0.5000 (   652 PWs)   bands (ev):

   -85.3563 -45.8586 -45.6704 -45.6704  13.2609  15.7994  15.7994  17.5448
    17.6889  17.6889  23.7520  39.9974  42.5664

          k = 0.0000 0.3333 0.0000 (   653 PWs)   bands (ev):

   -85.3788 -45.6921 -45.6592 -45.6592  10.2225  15.3541  16.2466  16.2466
    16.5248  17.1250  39.6181  39.9799  39.9799

          k =-0.1667 0.5000-0.1667 (   642 PWs)   bands (ev):

   -85.3644 -45.7728 -45.6779 -45.6775  12.2671  15.0035  15.8976  16.4164
    17.3097  17.4561  31.6646  37.9627  38.3925

          k = 0.6667-0.3333 0.6667 (   654 PWs)   bands (ev):

   -85.3536 -45.8364 -45.7025 -45.6831  13.7644  15.2428  15.8603  16.2218
    17.7146  19.7314  24.8467  35.5932  38.2611

          k = 0.5000-0.1667 0.5000 (   647 PWs)   bands (ev):

   -85.3562 -45.8188 -45.7095 -45.6705  13.5881  15.4507  15.5803  16.2116
    17.2248  19.0332  26.8160  34.1175  41.0738

          k = 0.3333 0.0000 0.3333 (   644 PWs)   bands (ev):

   -85.3701 -45.7468 -45.6825 -45.6522  11.4830  15.2651  15.9727  16.3975
    16.5410  17.5468  34.1168  34.8813  44.4749

          k = 0.0000 0.6667 0.0000 (   644 PWs)   bands (ev):

   -85.3562 -45.7961 -45.7004 -45.7004  13.0392  14.4365  16.8590  17.2375
    17.2375  17.4882  33.5205  34.8092  34.8092

          k = 0.8333-0.1667 0.8333 (   660 PWs)   bands (ev):

   -85.3483 -45.8243 -45.7340 -45.7084  13.7843  14.3289  16.4730  17.1785
    17.7751  20.5030  28.5905  29.8702  34.2771

          k = 0.6667-0.0000 0.6667 (   650 PWs)   bands (ev):

   -85.3479 -45.7877 -45.7867 -45.6934  14.4918  14.6459  15.6082  16.8311
    17.4169  22.7407  25.4530  28.4832  36.6605

          k = 0.0000-1.0000 0.0000 (   636 PWs)   bands (ev):

   -85.3447 -45.8467 -45.7210 -45.7210  13.4161  14.0063  17.6745  17.8732
    17.8732  20.2901  27.2195  32.6873  32.6873

          k = 0.6667-0.3333 1.0000 (   656 PWs)   bands (ev):

   -85.3537 -45.8027 -45.7292 -45.6893  13.8892  14.7773  15.4502  16.9729
    17.2379  19.3391  30.0243  31.1210  34.7738

          k = 0.5000-0.1667 0.8333 (   656 PWs)   bands (ev):

   -85.3481 -45.8101 -45.7557 -45.7020  14.6340  14.6394  15.3853  16.7320
    17.6391  22.9262  24.5594  31.4230  32.1303

          k =-0.3333-1.0000 0.0000 (   654 PWs)   bands (ev):

   -85.3453 -45.8154 -45.7525 -45.7221  14.0459  14.4989  16.0262  17.1239
    17.8738  23.3369  27.5912  28.3037  29.9132

     the Fermi energy is    17.6788 ev

!    total energy              =    -429.14835248 Ry
     Harris-Foulkes estimate   =    -429.14835248 Ry
     estimated scf accuracy    <          3.4E-09 Ry

     total all-electron energy =     -3041.580460 Ry

     The total energy is the sum of the following terms:

     one-electron contribution =    -185.05007256 Ry
     hartree contribution      =     104.68980807 Ry
     xc contribution           =     -34.31135801 Ry
     ewald contribution        =    -223.38275369 Ry
     one-center paw contrib.   =     -91.09185376 Ry
     smearing contrib. (-TS)   =      -0.00212253 Ry

     convergence has been achieved in   6 iterations

     Forces acting on atoms (cartesian axes, Ry/au):

     atom    1 type  1   force =     0.00000000    0.00000000    0.00000000

     Total force =     0.000000     Total SCF correction =     0.000000


     Computing stress (Cartesian axis) and pressure

          total   stress  (Ry/bohr**3)                   (kbar)     P=  -41.43
  -0.00028165   0.00000000   0.00000000        -41.43      0.00      0.00
   0.00000000  -0.00028165   0.00000000          0.00    -41.43      0.00
   0.00000000   0.00000000  -0.00028165          0.00      0.00    -41.43


     Writing output data file Ni.save/

     init_run     :      0.30s CPU      0.32s WALL (       1 calls)
     electrons    :      1.73s CPU      1.88s WALL (       1 calls)
     forces       :      0.02s CPU      0.02s WALL (       1 calls)
     stress       :      0.07s CPU      0.08s WALL (       1 calls)

     Called by init_run:
     wfcinit      :      0.05s CPU      0.05s WALL (       1 calls)
     potinit      :      0.09s CPU      0.11s WALL (       1 calls)
     hinit0       :      0.13s CPU      0.14s WALL (       1 calls)

     Called by electrons:
     c_bands      :      0.97s CPU      1.02s WALL (       7 calls)
     sum_band     :      0.20s CPU      0.21s WALL (       7 calls)
     v_of_rho     :      0.02s CPU      0.02s WALL (       7 calls)
     newd         :      0.04s CPU      0.04s WALL (       7 calls)
     PAW_pot      :      0.60s CPU      0.69s WALL (       7 calls)
     mix_rho      :      0.00s CPU      0.00s WALL (       7 calls)

     Called by c_bands:
     init_us_2    :      0.02s CPU      0.03s WALL (     272 calls)
     cegterg      :      0.93s CPU      0.99s WALL (     112 calls)

     Called by sum_band:
     sum_band:bec :      0.00s CPU      0.00s WALL (     112 calls)
     addusdens    :      0.04s CPU      0.04s WALL (       7 calls)

     Called by *egterg:
     h_psi        :      0.70s CPU      0.74s WALL (     400 calls)
     s_psi        :      0.02s CPU      0.02s WALL (     400 calls)
     g_psi        :      0.00s CPU      0.00s WALL (     272 calls)
     cdiaghg      :      0.13s CPU      0.14s WALL (     368 calls)

     Called by h_psi:
     h_psi:pot    :      0.70s CPU      0.74s WALL (     400 calls)
     h_psi:calbec :      0.03s CPU      0.03s WALL (     400 calls)
     vloc_psi     :      0.64s CPU      0.68s WALL (     400 calls)
     add_vuspsi   :      0.02s CPU      0.02s WALL (     400 calls)

     General routines
     calbec       :      0.05s CPU      0.05s WALL (     592 calls)
     fft          :      0.01s CPU      0.01s WALL (     104 calls)
     ffts         :      0.00s CPU      0.00s WALL (       7 calls)
     fftw         :      0.71s CPU      0.76s WALL (    8954 calls)

     Parallel routines
     fft_scatt_xy :      0.06s CPU      0.06s WALL (    9065 calls)
     fft_scatt_yz :      0.16s CPU      0.17s WALL (    9065 calls)

     PWSCF        :     2.87s CPU         3.08s WALL


   This run was terminated on:  22:47:19  26Mar2024            

=------------------------------------------------------------------------------=
   JOB DONE.
=------------------------------------------------------------------------------=
