
     Program PWSCF v.6.3MaX starts on 26Mar2024 at 22:41:55 

     This program is part of the open-source Quantum ESPRESSO suite
     for quantum simulation of materials; please cite
         "P. Giannozzi et al., J. Phys.:Condens. Matter 21 395502 (2009);
         "P. Giannozzi et al., J. Phys.:Condens. Matter 29 465901 (2017);
          URL http://www.quantum-espresso.org", 
     in publications or presentations arising from this work. More details at
     http://www.quantum-espresso.org/quote

     Parallel version (MPI), running on     5 processors

     MPI processes distributed on     1 nodes
     R & G space division:  proc/nbgrp/npool/nimage =       5
     Waiting for input...
     Reading input from standard input

     Current dimensions of program PWSCF are:
     Max number of different atomic species (ntypx) = 10
     Max number of k-points (npk) =  40000
     Max angular momentum in pseudopotentials (lmaxx) =  3

     Subspace diagonalization in iterative solution of the eigenvalue problem:
     a serial algorithm will be used


     Parallelization info
     --------------------
     sticks:   dense  smooth     PW     G-vecs:    dense   smooth      PW
     Min          67      67     21                  802      802     148
     Max          68      68     22                  804      804     151
     Sum         337     337    109                 4015     4015     749



     bravais-lattice index     =            2
     lattice parameter (alat)  =       6.6500  a.u.
     unit-cell volume          =      73.5199 (a.u.)^3
     number of atoms/cell      =            1
     number of atomic types    =            1
     number of electrons       =        18.00
     number of Kohn-Sham states=           13
     kinetic-energy cutoff     =      55.0000  Ry
     charge density cutoff     =     220.0000  Ry
     convergence threshold     =      1.0E-08
     mixing beta               =       0.7000
     number of iterations used =            8  plain     mixing
     Exchange-correlation      = PBE ( 1  4  3  4 0 0)

     celldm(1)=   6.650000  celldm(2)=   0.000000  celldm(3)=   0.000000
     celldm(4)=   0.000000  celldm(5)=   0.000000  celldm(6)=   0.000000

     crystal axes: (cart. coord. in units of alat)
               a(1) = (  -0.500000   0.000000   0.500000 )  
               a(2) = (   0.000000   0.500000   0.500000 )  
               a(3) = (  -0.500000   0.500000   0.000000 )  

     reciprocal axes: (cart. coord. in units 2 pi/alat)
               b(1) = ( -1.000000 -1.000000  1.000000 )  
               b(2) = (  1.000000  1.000000  1.000000 )  
               b(3) = ( -1.000000  1.000000 -1.000000 )  


     PseudoPot. # 1 for Ni read from file:
     /home/lorenzo/pseudos/Ni/Ni.pbe-spn-rrkjus_psl.1.0.0.UPF
     MD5 check sum: 8b3fc9aac6dafe35f580d41bb18c3945
     Pseudo is Ultrasoft + core correction, Zval = 18.0
     Generated using "atomic" code by A. Dal Corso v.6.3
     Using radial grid of 1195 points,  6 beta functions with: 
                l(1) =   0
                l(2) =   0
                l(3) =   1
                l(4) =   1
                l(5) =   2
                l(6) =   2
     Q(r) pseudized with 0 coefficients 


     atomic species   valence    mass     pseudopotential
        Ni            18.00    58.69340     Ni( 1.00)

     48 Sym. Ops., with inversion, found



   Cartesian axes

     site n.     atom                  positions (alat units)
         1           Ni  tau(   1) = (   0.0000000   0.0000000   0.0000000  )

     number of k points=    10  gaussian smearing, width (Ry)=  0.0100
                       cart. coord. in units 2pi/alat
        k(    1) = (   0.0000000   0.0000000   0.0000000), wk =   0.0160000
        k(    2) = (  -0.2000000   0.2000000  -0.2000000), wk =   0.1280000
        k(    3) = (  -0.4000000   0.4000000  -0.4000000), wk =   0.1280000
        k(    4) = (   0.0000000   0.4000000   0.0000000), wk =   0.0960000
        k(    5) = (  -0.2000000   0.6000000  -0.2000000), wk =   0.3840000
        k(    6) = (   0.6000000  -0.2000000   0.6000000), wk =   0.3840000
        k(    7) = (   0.4000000   0.0000000   0.4000000), wk =   0.1920000
        k(    8) = (   0.0000000   0.8000000   0.0000000), wk =   0.0960000
        k(    9) = (   0.8000000   0.0000000   0.8000000), wk =   0.1920000
        k(   10) = (   0.6000000  -0.2000000   1.0000000), wk =   0.3840000

     Dense  grid:     4015 G-vectors     FFT dimensions: (  24,  24,  24)

     Estimated max dynamical RAM per process >       4.51 MB

     Estimated total dynamical RAM >      22.53 MB

     Check: negative/imaginary core charge=   -0.000009    0.000000

     Initial potential from superposition of free atoms

     starting charge   17.99975, renormalised to   18.00000
     Starting wfcs are   10 randomized atomic wfcs +    3 random wfcs

     total cpu time spent up to now is        0.9 secs

     Self-consistent Calculation

     iteration #  1     ecut=    55.00 Ry     beta= 0.70
     Davidson diagonalization with overlap
     ethr =  1.00E-02,  avg # of iterations =  3.6

     Threshold (ethr) on eigenvalues was too large:
     Diagonalizing with lowered threshold

     Davidson diagonalization with overlap
     ethr =  2.96E-05,  avg # of iterations =  3.2

     total cpu time spent up to now is        1.1 secs

     total energy              =    -339.57755992 Ry
     Harris-Foulkes estimate   =    -339.58118507 Ry
     estimated scf accuracy    <       0.00550134 Ry

     iteration #  2     ecut=    55.00 Ry     beta= 0.70
     Davidson diagonalization with overlap
     ethr =  3.06E-05,  avg # of iterations =  2.8

     total cpu time spent up to now is        1.2 secs

     total energy              =    -339.57667040 Ry
     Harris-Foulkes estimate   =    -339.58406369 Ry
     estimated scf accuracy    <       0.02011648 Ry

     iteration #  3     ecut=    55.00 Ry     beta= 0.70
     Davidson diagonalization with overlap
     ethr =  3.06E-05,  avg # of iterations =  2.1

     total cpu time spent up to now is        1.2 secs

     total energy              =    -339.58014390 Ry
     Harris-Foulkes estimate   =    -339.58017049 Ry
     estimated scf accuracy    <       0.00011651 Ry

     iteration #  4     ecut=    55.00 Ry     beta= 0.70
     Davidson diagonalization with overlap
     ethr =  6.47E-07,  avg # of iterations =  2.4

     total cpu time spent up to now is        1.3 secs

     total energy              =    -339.58016593 Ry
     Harris-Foulkes estimate   =    -339.58016575 Ry
     estimated scf accuracy    <       0.00000043 Ry

     iteration #  5     ecut=    55.00 Ry     beta= 0.70
     Davidson diagonalization with overlap
     ethr =  2.39E-09,  avg # of iterations =  2.5

     total cpu time spent up to now is        1.4 secs

     total energy              =    -339.58016613 Ry
     Harris-Foulkes estimate   =    -339.58016614 Ry
     estimated scf accuracy    <       0.00000004 Ry

     iteration #  6     ecut=    55.00 Ry     beta= 0.70
     Davidson diagonalization with overlap
     ethr =  2.00E-10,  avg # of iterations =  1.8

     total cpu time spent up to now is        1.5 secs

     End of self-consistent calculation

          k = 0.0000 0.0000 0.0000 (   531 PWs)   bands (ev):

   -85.1951 -45.4559 -45.4559 -45.4559   8.8471  15.9836  15.9836  15.9836
    17.0933  17.0933  41.4892  45.4440  45.4440

          k =-0.2000 0.2000-0.2000 (   516 PWs)   bands (ev):

   -85.1829 -45.5247 -45.4642 -45.4642  10.3506  15.6594  16.1941  16.1941
    17.0838  17.0838  34.8902  42.0233  43.6389

          k =-0.4000 0.4000-0.4000 (   498 PWs)   bands (ev):

   -85.1634 -45.6489 -45.4753 -45.4753  13.0783  15.9972  15.9972  16.4993
    17.6999  17.6999  25.9144  40.3038  42.6643

          k = 0.0000 0.4000 0.0000 (   520 PWs)   bands (ev):

   -85.1791 -45.5238 -45.4822 -45.4822  10.8228  15.3025  16.5352  16.5578
    16.5578  17.3411  38.8259  38.8259  39.2354

          k =-0.2000 0.6000-0.2000 (   509 PWs)   bands (ev):

   -85.1622 -45.6134 -45.5093 -45.4980  13.2800  14.9690  15.8923  16.6615
    17.7966  18.2628  29.4331  36.1536  36.9471

          k = 0.6000-0.2000 0.6000 (   513 PWs)   bands (ev):

   -85.1560 -45.6426 -45.5381 -45.4950  14.1359  15.2540  15.8688  16.4593
    17.6612  20.8465  24.5613  33.1186  38.7344

          k = 0.4000 0.0000 0.4000 (   509 PWs)   bands (ev):

   -85.1685 -45.5833 -45.5137 -45.4708  12.4839  15.2876  15.9269  16.6219
    16.7477  18.1704  32.2475  33.1158  43.1491

          k = 0.0000 0.8000 0.0000 (   496 PWs)   bands (ev):

   -85.1531 -45.6373 -45.5233 -45.5233  13.4700  14.2877  17.7550  17.7716
    17.7716  18.4067  30.1896  33.5060  33.5060

          k = 0.8000 0.0000 0.8000 (   494 PWs)   bands (ev):

   -85.1491 -45.6343 -45.5630 -45.5193  14.0138  14.4282  16.5938  17.4240
    17.8617  22.7902  26.8311  27.9210  34.2439

          k = 0.6000-0.2000 1.0000 (   503 PWs)   bands (ev):

   -85.1518 -45.6161 -45.5683 -45.5194  14.4159  14.9160  15.4639  17.1138
    17.7652  21.7422  27.9585  29.6447  31.6714

     the Fermi energy is    17.8502 ev

!    total energy              =    -339.58016613 Ry
     Harris-Foulkes estimate   =    -339.58016613 Ry
     estimated scf accuracy    <          4.5E-10 Ry

     The total energy is the sum of the following terms:

     one-electron contribution =    -186.74451322 Ry
     hartree contribution      =     104.88572129 Ry
     xc contribution           =     -34.33549595 Ry
     ewald contribution        =    -223.38275374 Ry
     smearing contrib. (-TS)   =      -0.00312451 Ry

     convergence has been achieved in   6 iterations

     Forces acting on atoms (cartesian axes, Ry/au):

     atom    1 type  1   force =     0.00000000    0.00000000    0.00000000

     Total force =     0.000000     Total SCF correction =     0.000000


     Computing stress (Cartesian axis) and pressure

          total   stress  (Ry/bohr**3)                   (kbar)     P= -153.38
  -0.00104266   0.00000000   0.00000000       -153.38      0.00      0.00
  -0.00000000  -0.00104266  -0.00000000         -0.00   -153.38     -0.00
   0.00000000  -0.00000000  -0.00104266          0.00     -0.00   -153.38


     Writing output data file Ni.save/

     init_run     :      0.15s CPU      0.16s WALL (       1 calls)
     electrons    :      0.62s CPU      0.67s WALL (       1 calls)
     forces       :      0.02s CPU      0.02s WALL (       1 calls)
     stress       :      0.05s CPU      0.05s WALL (       1 calls)

     Called by init_run:
     wfcinit      :      0.02s CPU      0.02s WALL (       1 calls)
     potinit      :      0.01s CPU      0.01s WALL (       1 calls)
     hinit0       :      0.12s CPU      0.12s WALL (       1 calls)

     Called by electrons:
     c_bands      :      0.45s CPU      0.49s WALL (       7 calls)
     sum_band     :      0.12s CPU      0.13s WALL (       7 calls)
     v_of_rho     :      0.02s CPU      0.02s WALL (       7 calls)
     newd         :      0.02s CPU      0.03s WALL (       7 calls)
     mix_rho      :      0.00s CPU      0.00s WALL (       7 calls)

     Called by c_bands:
     init_us_2    :      0.01s CPU      0.01s WALL (     170 calls)
     cegterg      :      0.43s CPU      0.47s WALL (      70 calls)

     Called by sum_band:
     sum_band:bec :      0.00s CPU      0.00s WALL (      70 calls)
     addusdens    :      0.03s CPU      0.03s WALL (       7 calls)

     Called by *egterg:
     h_psi        :      0.30s CPU      0.33s WALL (     264 calls)
     s_psi        :      0.01s CPU      0.01s WALL (     264 calls)
     g_psi        :      0.00s CPU      0.00s WALL (     184 calls)
     cdiaghg      :      0.08s CPU      0.09s WALL (     244 calls)

     Called by h_psi:
     h_psi:pot    :      0.30s CPU      0.33s WALL (     264 calls)
     h_psi:calbec :      0.01s CPU      0.02s WALL (     264 calls)
     vloc_psi     :      0.27s CPU      0.30s WALL (     264 calls)
     add_vuspsi   :      0.01s CPU      0.01s WALL (     264 calls)

     General routines
     calbec       :      0.02s CPU      0.03s WALL (     384 calls)
     fft          :      0.01s CPU      0.01s WALL (     104 calls)
     ffts         :      0.00s CPU      0.00s WALL (       7 calls)
     fftw         :      0.32s CPU      0.35s WALL (    5640 calls)

     Parallel routines
     fft_scatt_xy :      0.03s CPU      0.03s WALL (    5751 calls)
     fft_scatt_yz :      0.09s CPU      0.10s WALL (    5751 calls)

     PWSCF        :     1.54s CPU         1.64s WALL


   This run was terminated on:  22:41:56  26Mar2024            

=------------------------------------------------------------------------------=
   JOB DONE.
=------------------------------------------------------------------------------=
