
     Program PWSCF v.6.3MaX starts on 26Mar2024 at 22:38:31 

     This program is part of the open-source Quantum ESPRESSO suite
     for quantum simulation of materials; please cite
         "P. Giannozzi et al., J. Phys.:Condens. Matter 21 395502 (2009);
         "P. Giannozzi et al., J. Phys.:Condens. Matter 29 465901 (2017);
          URL http://www.quantum-espresso.org", 
     in publications or presentations arising from this work. More details at
     http://www.quantum-espresso.org/quote

     Parallel version (MPI), running on     5 processors

     MPI processes distributed on     1 nodes
     R & G space division:  proc/nbgrp/npool/nimage =       5
     Waiting for input...
     Reading input from standard input

     Current dimensions of program PWSCF are:
     Max number of different atomic species (ntypx) = 10
     Max number of k-points (npk) =  40000
     Max angular momentum in pseudopotentials (lmaxx) =  3

     Subspace diagonalization in iterative solution of the eigenvalue problem:
     a serial algorithm will be used


     Parallelization info
     --------------------
     sticks:   dense  smooth     PW     G-vecs:    dense   smooth      PW
     Min          62      62     21                  705      705     144
     Max          63      63     22                  706      706     146
     Sum         313     313    109                 3527     3527     725



     bravais-lattice index     =            2
     lattice parameter (alat)  =       6.6500  a.u.
     unit-cell volume          =      73.5199 (a.u.)^3
     number of atoms/cell      =            1
     number of atomic types    =            1
     number of electrons       =        18.00
     number of Kohn-Sham states=           13
     kinetic-energy cutoff     =      50.0000  Ry
     charge density cutoff     =     200.0000  Ry
     convergence threshold     =      1.0E-08
     mixing beta               =       0.7000
     number of iterations used =            8  plain     mixing
     Exchange-correlation      = PBESOL ( 1  4 10  8 0 0)

     celldm(1)=   6.650000  celldm(2)=   0.000000  celldm(3)=   0.000000
     celldm(4)=   0.000000  celldm(5)=   0.000000  celldm(6)=   0.000000

     crystal axes: (cart. coord. in units of alat)
               a(1) = (  -0.500000   0.000000   0.500000 )  
               a(2) = (   0.000000   0.500000   0.500000 )  
               a(3) = (  -0.500000   0.500000   0.000000 )  

     reciprocal axes: (cart. coord. in units 2 pi/alat)
               b(1) = ( -1.000000 -1.000000  1.000000 )  
               b(2) = (  1.000000  1.000000  1.000000 )  
               b(3) = ( -1.000000  1.000000 -1.000000 )  


     PseudoPot. # 1 for Ni read from file:
     /home/lorenzo/pseudos/Ni/Ni.pbesol-spn-rrkjus_psl.1.0.0.UPF
     MD5 check sum: 6fc0a587bf949a08f2faed986b854013
     Pseudo is Ultrasoft + core correction, Zval = 18.0
     Generated using "atomic" code by A. Dal Corso v.6.3
     Using radial grid of 1195 points,  6 beta functions with: 
                l(1) =   0
                l(2) =   0
                l(3) =   1
                l(4) =   1
                l(5) =   2
                l(6) =   2
     Q(r) pseudized with 0 coefficients 


     atomic species   valence    mass     pseudopotential
        Ni            18.00    58.69340     Ni( 1.00)

     48 Sym. Ops., with inversion, found



   Cartesian axes

     site n.     atom                  positions (alat units)
         1           Ni  tau(   1) = (   0.0000000   0.0000000   0.0000000  )

     number of k points=    56  gaussian smearing, width (Ry)=  0.0100
                       cart. coord. in units 2pi/alat
        k(    1) = (   0.0000000   0.0000000   0.0000000), wk =   0.0015026
        k(    2) = (  -0.0909091   0.0909091  -0.0909091), wk =   0.0120210
        k(    3) = (  -0.1818182   0.1818182  -0.1818182), wk =   0.0120210
        k(    4) = (  -0.2727273   0.2727273  -0.2727273), wk =   0.0120210
        k(    5) = (  -0.3636364   0.3636364  -0.3636364), wk =   0.0120210
        k(    6) = (  -0.4545455   0.4545455  -0.4545455), wk =   0.0120210
        k(    7) = (   0.0000000   0.1818182   0.0000000), wk =   0.0090158
        k(    8) = (  -0.0909091   0.2727273  -0.0909091), wk =   0.0360631
        k(    9) = (  -0.1818182   0.3636364  -0.1818182), wk =   0.0360631
        k(   10) = (  -0.2727273   0.4545455  -0.2727273), wk =   0.0360631
        k(   11) = (  -0.3636364   0.5454545  -0.3636364), wk =   0.0360631
        k(   12) = (   0.5454545  -0.3636364   0.5454545), wk =   0.0360631
        k(   13) = (   0.4545455  -0.2727273   0.4545455), wk =   0.0360631
        k(   14) = (   0.3636364  -0.1818182   0.3636364), wk =   0.0360631
        k(   15) = (   0.2727273  -0.0909091   0.2727273), wk =   0.0360631
        k(   16) = (   0.1818182  -0.0000000   0.1818182), wk =   0.0180316
        k(   17) = (   0.0000000   0.3636364   0.0000000), wk =   0.0090158
        k(   18) = (  -0.0909091   0.4545455  -0.0909091), wk =   0.0360631
        k(   19) = (  -0.1818182   0.5454545  -0.1818182), wk =   0.0360631
        k(   20) = (  -0.2727273   0.6363636  -0.2727273), wk =   0.0360631
        k(   21) = (   0.6363636  -0.2727273   0.6363636), wk =   0.0360631
        k(   22) = (   0.5454545  -0.1818182   0.5454545), wk =   0.0360631
        k(   23) = (   0.4545455  -0.0909091   0.4545455), wk =   0.0360631
        k(   24) = (   0.3636364   0.0000000   0.3636364), wk =   0.0180316
        k(   25) = (   0.0000000   0.5454545   0.0000000), wk =   0.0090158
        k(   26) = (  -0.0909091   0.6363636  -0.0909091), wk =   0.0360631
        k(   27) = (  -0.1818182   0.7272727  -0.1818182), wk =   0.0360631
        k(   28) = (   0.7272727  -0.1818182   0.7272727), wk =   0.0360631
        k(   29) = (   0.6363636  -0.0909091   0.6363636), wk =   0.0360631
        k(   30) = (   0.5454545   0.0000000   0.5454545), wk =   0.0180316
        k(   31) = (   0.0000000   0.7272727   0.0000000), wk =   0.0090158
        k(   32) = (  -0.0909091   0.8181818  -0.0909091), wk =   0.0360631
        k(   33) = (   0.8181818  -0.0909091   0.8181818), wk =   0.0360631
        k(   34) = (   0.7272727   0.0000000   0.7272727), wk =   0.0180316
        k(   35) = (   0.0000000   0.9090909   0.0000000), wk =   0.0090158
        k(   36) = (   0.9090909  -0.0000000   0.9090909), wk =   0.0180316
        k(   37) = (  -0.1818182   0.3636364   0.0000000), wk =   0.0360631
        k(   38) = (  -0.2727273   0.4545455  -0.0909091), wk =   0.0721262
        k(   39) = (  -0.3636364   0.5454545  -0.1818182), wk =   0.0721262
        k(   40) = (   0.5454545  -0.3636364   0.7272727), wk =   0.0721262
        k(   41) = (  -0.1818182   0.5454545   0.0000000), wk =   0.0360631
        k(   42) = (  -0.2727273   0.6363636  -0.0909091), wk =   0.0721262
        k(   43) = (   0.6363636  -0.2727273   0.8181818), wk =   0.0721262
        k(   44) = (   0.5454545  -0.1818182   0.7272727), wk =   0.0721262
        k(   45) = (   0.4545455  -0.0909091   0.6363636), wk =   0.0721262
        k(   46) = (   0.3636364   0.0000000   0.5454545), wk =   0.0360631
        k(   47) = (  -0.1818182   0.7272727   0.0000000), wk =   0.0360631
        k(   48) = (   0.7272727  -0.1818182   0.9090909), wk =   0.0721262
        k(   49) = (   0.6363636  -0.0909091   0.8181818), wk =   0.0721262
        k(   50) = (   0.5454545   0.0000000   0.7272727), wk =   0.0360631
        k(   51) = (   0.8181818  -0.0909091   1.0000000), wk =   0.0360631
        k(   52) = (   0.7272727   0.0000000   0.9090909), wk =   0.0360631
        k(   53) = (   0.6363636  -0.2727273   1.0000000), wk =   0.0360631
        k(   54) = (   0.5454545  -0.1818182   0.9090909), wk =   0.0721262
        k(   55) = (   0.6363636  -0.0909091   1.0000000), wk =   0.0360631
        k(   56) = (   0.5454545   0.0000000   0.9090909), wk =   0.0360631

     Dense  grid:     3527 G-vectors     FFT dimensions: (  24,  24,  24)

     Estimated max dynamical RAM per process >       4.87 MB

     Estimated total dynamical RAM >      24.33 MB

     Check: negative/imaginary core charge=   -0.000020    0.000000

     Initial potential from superposition of free atoms

     starting charge   17.99977, renormalised to   18.00000
     Starting wfcs are   10 randomized atomic wfcs +    3 random wfcs

     total cpu time spent up to now is        0.9 secs

     Self-consistent Calculation

     iteration #  1     ecut=    50.00 Ry     beta= 0.70
     Davidson diagonalization with overlap
     ethr =  1.00E-02,  avg # of iterations =  3.6

     Threshold (ethr) on eigenvalues was too large:
     Diagonalizing with lowered threshold

     Davidson diagonalization with overlap
     ethr =  1.25E-05,  avg # of iterations =  2.8

     total cpu time spent up to now is        1.9 secs

     total energy              =    -339.34929619 Ry
     Harris-Foulkes estimate   =    -339.34995123 Ry
     estimated scf accuracy    <       0.00220054 Ry

     iteration #  2     ecut=    50.00 Ry     beta= 0.70
     Davidson diagonalization with overlap
     ethr =  1.22E-05,  avg # of iterations =  1.0

     total cpu time spent up to now is        2.3 secs

     total energy              =    -339.34927395 Ry
     Harris-Foulkes estimate   =    -339.34950103 Ry
     estimated scf accuracy    <       0.00038827 Ry

     iteration #  3     ecut=    50.00 Ry     beta= 0.70
     Davidson diagonalization with overlap
     ethr =  2.16E-06,  avg # of iterations =  2.3

     total cpu time spent up to now is        2.7 secs

     total energy              =    -339.34923891 Ry
     Harris-Foulkes estimate   =    -339.34969428 Ry
     estimated scf accuracy    <       0.00132316 Ry

     iteration #  4     ecut=    50.00 Ry     beta= 0.70
     Davidson diagonalization with overlap
     ethr =  2.16E-06,  avg # of iterations =  2.1

     total cpu time spent up to now is        3.2 secs

     total energy              =    -339.34945218 Ry
     Harris-Foulkes estimate   =    -339.34945281 Ry
     estimated scf accuracy    <       0.00000377 Ry

     iteration #  5     ecut=    50.00 Ry     beta= 0.70
     Davidson diagonalization with overlap
     ethr =  2.10E-08,  avg # of iterations =  3.0

     total cpu time spent up to now is        3.6 secs

     total energy              =    -339.34945340 Ry
     Harris-Foulkes estimate   =    -339.34945341 Ry
     estimated scf accuracy    <       0.00000002 Ry

     iteration #  6     ecut=    50.00 Ry     beta= 0.70
     Davidson diagonalization with overlap
     ethr =  1.36E-10,  avg # of iterations =  2.4

     total cpu time spent up to now is        4.1 secs

     End of self-consistent calculation

          k = 0.0000 0.0000 0.0000 (   459 PWs)   bands (ev):

   -85.1977 -45.5621 -45.5621 -45.5621   8.6525  15.7050  15.7050  15.7050
    16.8252  16.8252  41.2792  45.1978  45.1978

          k =-0.0909 0.0909-0.0909 (   429 PWs)   bands (ev):

   -85.1948 -45.5575 -45.5291 -45.5291   8.9929  15.6342  15.7934  15.7934
    16.8057  16.8057  39.9136  42.7320  44.4869

          k =-0.1818 0.1818-0.1818 (   444 PWs)   bands (ev):

   -85.1875 -45.6400 -45.5459 -45.5459   9.9105  15.4225  15.9182  15.9182
    16.7898  16.7898  35.5631  41.9553  43.5263

          k =-0.2727 0.2727-0.2727 (   432 PWs)   bands (ev):

   -85.1777 -45.6802 -45.5520 -45.5520  11.2767  15.3315  15.9084  15.9084
    16.9921  16.9921  31.0633  41.1824  42.8440

          k =-0.3636 0.3636-0.3636 (   431 PWs)   bands (ev):

   -85.1688 -45.7352 -45.5662 -45.5662  12.5484  15.7833  15.7833  15.8024
    17.3102  17.3102  27.0455  40.3592  42.4636

          k =-0.4545 0.4545-0.4545 (   434 PWs)   bands (ev):

   -85.1636 -45.7848 -45.5706 -45.5706  13.0724  15.6912  15.6912  17.0267
    17.5311  17.5311  24.1170  39.8568  42.3264

          k = 0.0000 0.1818 0.0000 (   435 PWs)   bands (ev):

   -85.1939 -45.5549 -45.5464 -45.5464   9.0947  15.5580  15.8398  15.8398
    16.6891  16.8874  40.4728  42.5694  42.5694

          k =-0.0909 0.2727-0.0909 (   448 PWs)   bands (ev):

   -85.1881 -45.6183 -45.5624 -45.5621   9.8103  15.3582  15.9637  15.9779
    16.5743  16.9416  37.3059  40.9891  41.0970

          k =-0.1818 0.3636-0.1818 (   441 PWs)   bands (ev):

   -85.1792 -45.6660 -45.5725 -45.5655  11.0403  15.1751  15.9145  16.0402
    16.7942  17.1049  32.7295  40.1253  40.2384

          k =-0.2727 0.4545-0.2727 (   440 PWs)   bands (ev):

   -85.1700 -45.7190 -45.5859 -45.5846  12.4012  15.2860  15.7260  15.9471
    17.3471  17.3732  28.4908  39.4351  39.6979

          k =-0.3636 0.5455-0.3636 (   438 PWs)   bands (ev):

   -85.1635 -45.7590 -45.5931 -45.5902  13.1641  15.5311  15.8371  16.0186
    17.5588  18.2171  25.0179  38.6003  39.8954

          k = 0.5455-0.3636 0.5455 (   442 PWs)   bands (ev):

   -85.1618 -45.7820 -45.6000 -45.5897  13.2923  15.5172  15.7894  16.3629
    17.5174  18.8125  23.7369  37.8658  40.8006

          k = 0.4545-0.2727 0.4545 (   439 PWs)   bands (ev):

   -85.1653 -45.7463 -45.6053 -45.5793  13.0089  15.6124  15.7959  15.8418
    17.2529  18.0805  26.0535  37.4794  41.3693

          k = 0.3636-0.1818 0.3636 (   437 PWs)   bands (ev):

   -85.1730 -45.6989 -45.5943 -45.5556  11.9840  15.2385  15.7942  15.9753
    16.8732  17.4984  29.8544  37.5653  42.5658

          k = 0.2727-0.0909 0.2727 (   445 PWs)   bands (ev):

   -85.1824 -45.6540 -45.5774 -45.5542  10.5895  15.2603  15.9227  16.0475
    16.5902  17.0982  34.2380  38.1192  44.0104

          k = 0.1818-0.0000 0.1818 (   441 PWs)   bands (ev):

   -85.1905 -45.5979 -45.5551 -45.5431   9.5084  15.4780  15.8915  15.8960
    16.6589  16.8889  38.4111  39.5808  44.1048

          k = 0.0000 0.3636 0.0000 (   443 PWs)   bands (ev):

   -85.1841 -45.6157 -45.5754 -45.5754  10.3073  15.1357  16.1828  16.1828
    16.3467  17.0383  39.1954  39.1954  39.2071

          k =-0.0909 0.4545-0.0909 (   438 PWs)   bands (ev):

   -85.1767 -45.6549 -45.5888 -45.5770  11.3122  14.9000  15.9923  16.3524
    16.6981  17.1784  34.7890  37.8758  38.8225

          k =-0.1818 0.5455-0.1818 (   442 PWs)   bands (ev):

   -85.1683 -45.7112 -45.6012 -45.6010  12.5645  14.7809  15.6889  16.3316
    17.4192  17.4986  30.4043  37.2067  37.2103

          k =-0.2727 0.6364-0.2727 (   440 PWs)   bands (ev):

   -85.1616 -45.7430 -45.6185 -45.6060  13.4811  14.9131  15.5731  16.2186
    17.5908  18.8359  26.5201  35.5334  37.2692

          k = 0.6364-0.2727 0.6364 (   439 PWs)   bands (ev):

   -85.1586 -45.7612 -45.6228 -45.6051  13.7616  15.0359  15.7259  16.1329
    17.5300  20.4030  23.9319  34.1969  38.1131

          k = 0.5455-0.1818 0.5455 (   439 PWs)   bands (ev):

   -85.1604 -45.7460 -45.6315 -45.5964  13.6939  15.1853  15.5210  16.1211
    17.2330  19.6129  25.4612  33.3825  39.7018

          k = 0.4545-0.0909 0.4545 (   438 PWs)   bands (ev):

   -85.1663 -45.7107 -45.6271 -45.5782  13.0263  15.0673  15.4875  16.2110
    16.8020  18.3925  29.0885  33.1647  41.9058

          k = 0.3636 0.0000 0.3636 (   441 PWs)   bands (ev):

   -85.1745 -45.6815 -45.6047 -45.5620  11.7493  15.0627  15.7707  16.3584
    16.3861  17.6189  33.0165  33.8485  43.6335

          k = 0.0000 0.5455 0.0000 (   432 PWs)   bands (ev):

   -85.1711 -45.6699 -45.5914 -45.5914  11.9948  14.6142  16.1886  16.7191
    16.7191  17.2465  36.2013  36.2013  36.5490

          k =-0.0909 0.6364-0.0909 (   439 PWs)   bands (ev):

   -85.1644 -45.7111 -45.6173 -45.6134  12.8495  14.4105  16.1029  16.8433
    17.4311  17.4913  32.6156  34.4077  35.2180

          k =-0.1818 0.7273-0.1818 (   438 PWs)   bands (ev):

   -85.1584 -45.7342 -45.6301 -45.6231  13.5725  14.3837  15.8858  16.7567
    17.6133  19.1273  28.6343  32.3749  35.0428

          k = 0.7273-0.1818 0.7273 (   440 PWs)   bands (ev):

   -85.1552 -45.7411 -45.6590 -45.6211  14.0245  14.4808  15.6825  16.6306
    17.5645  21.4436  25.1778  30.8012  35.7276

          k = 0.6364-0.0909 0.6364 (   443 PWs)   bands (ev):

   -85.1558 -45.7347 -45.6805 -45.6107  14.2606  14.6636  15.3935  16.5246
    17.2832  21.7021  25.0822  29.8005  37.2079

          k = 0.5455 0.0000 0.5455 (   437 PWs)   bands (ev):

   -85.1599 -45.7119 -45.6637 -45.5955  13.9833  15.0578  15.0591  16.4272
    16.9389  19.7532  28.1091  29.8712  39.3278

          k = 0.0000 0.7273 0.0000 (   444 PWs)   bands (ev):

   -85.1594 -45.7309 -45.6369 -45.6369  13.1032  14.1491  17.2775  17.2871
    17.2871  17.4204  31.7412  33.8991  33.8991

          k =-0.0909 0.8182-0.0909 (   445 PWs)   bands (ev):

   -85.1550 -45.7586 -45.6418 -45.6409  13.3663  14.0549  16.9032  17.2785
    17.6271  19.1649  29.6300  31.1963  33.4204

          k = 0.8182-0.0909 0.8182 (   438 PWs)   bands (ev):

   -85.1525 -45.7538 -45.6528 -45.6311  13.6961  14.1505  16.3878  17.1419
    17.6230  21.5578  27.4351  28.4014  33.8751

          k = 0.7273 0.0000 0.7273 (   440 PWs)   bands (ev):

   -85.1528 -45.7273 -45.6923 -45.6236  14.1029  14.3448  15.7950  16.9052
    17.4353  23.9518  24.3545  27.9081  35.1982

          k = 0.0000 0.9091 0.0000 (   448 PWs)   bands (ev):

   -85.1524 -45.7757 -45.6499 -45.6499  13.2626  13.8883  17.5329  17.6846
    17.6846  19.5352  27.8082  32.6140  32.6140

          k = 0.9091-0.0000 0.9091 (   446 PWs)   bands (ev):

   -85.1515 -45.7658 -45.6604 -45.6478  13.3780  13.9239  17.2539  17.4540
    17.7077  20.7645  27.1376  30.6012  32.7750

          k =-0.1818 0.3636 0.0000 (   443 PWs)   bands (ev):

   -85.1815 -45.6451 -45.5786 -45.5654  10.6895  15.1361  15.9567  16.2061
    16.5076  17.1349  35.8668  36.6163  42.5522

          k =-0.2727 0.4545-0.0909 (   442 PWs)   bands (ev):

   -85.1728 -45.6897 -45.6075 -45.5719  11.9666  14.9773  15.7296  16.2627
    16.7719  17.5717  31.6619  35.5798  40.5251

          k =-0.3636 0.5455-0.1818 (   440 PWs)   bands (ev):

   -85.1649 -45.7315 -45.6215 -45.5847  13.1424  15.1156  15.5075  16.1400
    17.2204  18.3460  27.5835  35.3741  38.6176

          k = 0.5455-0.3636 0.7273 (   438 PWs)   bands (ev):

   -85.1602 -45.7644 -45.6189 -45.5892  13.6007  15.2084  15.7525  16.0471
    17.4801  19.6395  24.4078  35.6526  37.2192

          k =-0.1818 0.5455 0.0000 (   441 PWs)   bands (ev):

   -85.1696 -45.6929 -45.6087 -45.5959  12.3125  14.6784  15.7855  16.7202
    16.8276  17.5555  33.5853  34.1397  37.3621

          k =-0.2727 0.6364-0.0909 (   437 PWs)   bands (ev):

   -85.1624 -45.7185 -45.6293 -45.6003  13.3544  14.6119  15.5200  16.6627
    17.2696  18.5277  29.6152  33.4899  35.2431

          k = 0.6364-0.2727 0.8182 (   438 PWs)   bands (ev):

   -85.1575 -45.7443 -45.6402 -45.6106  13.9644  14.6873  15.4320  16.5076
    17.5051  20.2988  25.9176  33.0989  34.1449

          k = 0.5455-0.1818 0.7273 (   434 PWs)   bands (ev):

   -85.1563 -45.7445 -45.6507 -45.5967  14.1656  14.7326  15.4403  16.4109
    17.4490  21.6044  24.2015  31.9982  34.9314

          k = 0.4545-0.0909 0.6364 (   431 PWs)   bands (ev):

   -85.1592 -45.7244 -45.6456 -45.5858  13.9821  14.9217  15.1655  16.4618
    17.1606  19.8433  27.0797  31.3624  36.4201

          k = 0.3636 0.0000 0.5455 (   433 PWs)   bands (ev):

   -85.1654 -45.7071 -45.6259 -45.5721  13.1413  14.8600  15.4027  16.5472
    16.7645  18.4464  30.6317  31.7006  38.3704

          k =-0.1818 0.7273 0.0000 (   442 PWs)   bands (ev):

   -85.1588 -45.7309 -45.6433 -45.6244  13.3731  14.2667  16.1407  17.2530
    17.2864  18.6246  31.7461  31.7662  32.7388

          k = 0.7273-0.1818 0.9091 (   435 PWs)   bands (ev):

   -85.1546 -45.7381 -45.6524 -45.6185  13.7989  14.3136  15.9048  17.0343
    17.5680  20.6234  28.1800  30.2141  32.3103

          k = 0.6364-0.0909 0.8182 (   439 PWs)   bands (ev):

   -85.1531 -45.7275 -45.6852 -45.6217  14.1749  14.4398  15.5696  16.8070
    17.5367  23.1939  24.9132  28.9347  33.1050

          k = 0.5455 0.0000 0.7273 (   438 PWs)   bands (ev):

   -85.1549 -45.7172 -45.6975 -45.6014  14.4585  14.5984  15.1665  16.6591
    17.3120  21.9258  26.1370  28.7220  34.5340

          k = 0.8182-0.0909 1.0000 (   442 PWs)   bands (ev):

   -85.1524 -45.7576 -45.6572 -45.6377  13.4927  14.0315  16.7686  17.3696
    17.6854  20.7397  27.9670  30.6752  31.4017

          k = 0.7273 0.0000 0.9091 (   441 PWs)   bands (ev):

   -85.1517 -45.7480 -45.6694 -45.6376  13.7719  14.2045  16.2085  17.1261
    17.6808  22.5578  27.1271  27.9688  31.7810

          k = 0.6364-0.2727 1.0000 (   434 PWs)   bands (ev):

   -85.1571 -45.7276 -45.6510 -45.6037  14.0207  14.6230  15.2369  16.8723
    17.2894  20.1212  28.7957  30.1882  33.0986

          k = 0.5455-0.1818 0.9091 (   436 PWs)   bands (ev):

   -85.1539 -45.7236 -45.6786 -45.6146  14.3308  14.6726  15.1342  16.7162
    17.5181  22.3976  25.6986  30.1753  31.5093

          k = 0.6364-0.0909 1.0000 (   439 PWs)   bands (ev):

   -85.1522 -45.7354 -45.6810 -45.6262  14.0033  14.4701  15.6158  16.9363
    17.6834  22.7634  27.7417  28.4142  29.7040

          k = 0.5455 0.0000 0.9091 (   439 PWs)   bands (ev):

   -85.1519 -45.7179 -45.6995 -45.6258  14.2002  14.7502  15.1969  16.7648
    17.6828  24.9754  25.0282  28.0792  30.0289

     the Fermi energy is    17.5649 ev

!    total energy              =    -339.34945341 Ry
     Harris-Foulkes estimate   =    -339.34945341 Ry
     estimated scf accuracy    <          6.8E-10 Ry

     The total energy is the sum of the following terms:

     one-electron contribution =    -186.54601527 Ry
     hartree contribution      =     104.50395906 Ry
     xc contribution           =     -33.92183651 Ry
     ewald contribution        =    -223.38275374 Ry
     smearing contrib. (-TS)   =      -0.00280695 Ry

     convergence has been achieved in   6 iterations

     Forces acting on atoms (cartesian axes, Ry/au):

     atom    1 type  1   force =     0.00000000    0.00000000    0.00000000

     Total force =     0.000000     Total SCF correction =     0.000000


     Computing stress (Cartesian axis) and pressure

          total   stress  (Ry/bohr**3)                   (kbar)     P= -873.14
  -0.00593551  -0.00000000  -0.00000000       -873.14     -0.00     -0.00
  -0.00000000  -0.00593551  -0.00000000         -0.00   -873.14     -0.00
  -0.00000000  -0.00000000  -0.00593551         -0.00     -0.00   -873.14


     Writing output data file Ni.save/

     init_run     :      0.25s CPU      0.26s WALL (       1 calls)
     electrons    :      2.97s CPU      3.18s WALL (       1 calls)
     forces       :      0.04s CPU      0.04s WALL (       1 calls)
     stress       :      0.11s CPU      0.11s WALL (       1 calls)

     Called by init_run:
     wfcinit      :      0.12s CPU      0.12s WALL (       1 calls)
     potinit      :      0.01s CPU      0.01s WALL (       1 calls)
     hinit0       :      0.12s CPU      0.12s WALL (       1 calls)

     Called by electrons:
     c_bands      :      2.50s CPU      2.67s WALL (       7 calls)
     sum_band     :      0.43s CPU      0.47s WALL (       7 calls)
     v_of_rho     :      0.02s CPU      0.02s WALL (       7 calls)
     newd         :      0.02s CPU      0.02s WALL (       7 calls)
     mix_rho      :      0.00s CPU      0.00s WALL (       7 calls)

     Called by c_bands:
     init_us_2    :      0.06s CPU      0.06s WALL (     952 calls)
     cegterg      :      2.42s CPU      2.59s WALL (     392 calls)

     Called by sum_band:
     sum_band:bec :      0.00s CPU      0.01s WALL (     392 calls)
     addusdens    :      0.02s CPU      0.03s WALL (       7 calls)

     Called by *egterg:
     h_psi        :      1.75s CPU      1.88s WALL (    1404 calls)
     s_psi        :      0.05s CPU      0.05s WALL (    1404 calls)
     g_psi        :      0.00s CPU      0.01s WALL (     956 calls)
     cdiaghg      :      0.42s CPU      0.44s WALL (    1292 calls)

     Called by h_psi:
     h_psi:pot    :      1.74s CPU      1.87s WALL (    1404 calls)
     h_psi:calbec :      0.07s CPU      0.08s WALL (    1404 calls)
     vloc_psi     :      1.62s CPU      1.73s WALL (    1404 calls)
     add_vuspsi   :      0.05s CPU      0.05s WALL (    1404 calls)

     General routines
     calbec       :      0.13s CPU      0.13s WALL (    2076 calls)
     fft          :      0.01s CPU      0.01s WALL (     104 calls)
     ffts         :      0.00s CPU      0.00s WALL (       7 calls)
     fftw         :      1.81s CPU      1.94s WALL (   31634 calls)

     Parallel routines
     fft_scatt_xy :      0.18s CPU      0.19s WALL (   31745 calls)
     fft_scatt_yz :      0.48s CPU      0.51s WALL (   31745 calls)

     PWSCF        :     4.10s CPU         4.40s WALL


   This run was terminated on:  22:38:36  26Mar2024            

=------------------------------------------------------------------------------=
   JOB DONE.
=------------------------------------------------------------------------------=
