
     Program PWSCF v.6.3MaX starts on 26Mar2024 at 22:35:48 

     This program is part of the open-source Quantum ESPRESSO suite
     for quantum simulation of materials; please cite
         "P. Giannozzi et al., J. Phys.:Condens. Matter 21 395502 (2009);
         "P. Giannozzi et al., J. Phys.:Condens. Matter 29 465901 (2017);
          URL http://www.quantum-espresso.org", 
     in publications or presentations arising from this work. More details at
     http://www.quantum-espresso.org/quote

     Parallel version (MPI), running on     5 processors

     MPI processes distributed on     1 nodes
     R & G space division:  proc/nbgrp/npool/nimage =       5
     Waiting for input...
     Reading input from standard input

     Current dimensions of program PWSCF are:
     Max number of different atomic species (ntypx) = 10
     Max number of k-points (npk) =  40000
     Max angular momentum in pseudopotentials (lmaxx) =  3
               file Ni.pbesol-spn-kjpaw_psl.1.0.0.UPF: wavefunction(s)  3P 3D renormalized

     Subspace diagonalization in iterative solution of the eigenvalue problem:
     a serial algorithm will be used


     Parallelization info
     --------------------
     sticks:   dense  smooth     PW     G-vecs:    dense   smooth      PW
     Min          53      53     18                  595      595     121
     Max          56      56     19                  595      595     123
     Sum         271     271     91                 2975     2975     609



     bravais-lattice index     =            2
     lattice parameter (alat)  =       6.6500  a.u.
     unit-cell volume          =      73.5199 (a.u.)^3
     number of atoms/cell      =            1
     number of atomic types    =            1
     number of electrons       =        18.00
     number of Kohn-Sham states=           13
     kinetic-energy cutoff     =      45.0000  Ry
     charge density cutoff     =     180.0000  Ry
     convergence threshold     =      1.0E-08
     mixing beta               =       0.7000
     number of iterations used =            8  plain     mixing
     Exchange-correlation      = SLA PW PSX PSC ( 1  4 10  8 0 0)

     celldm(1)=   6.650000  celldm(2)=   0.000000  celldm(3)=   0.000000
     celldm(4)=   0.000000  celldm(5)=   0.000000  celldm(6)=   0.000000

     crystal axes: (cart. coord. in units of alat)
               a(1) = (  -0.500000   0.000000   0.500000 )  
               a(2) = (   0.000000   0.500000   0.500000 )  
               a(3) = (  -0.500000   0.500000   0.000000 )  

     reciprocal axes: (cart. coord. in units 2 pi/alat)
               b(1) = ( -1.000000 -1.000000  1.000000 )  
               b(2) = (  1.000000  1.000000  1.000000 )  
               b(3) = ( -1.000000  1.000000 -1.000000 )  


     PseudoPot. # 1 for Ni read from file:
     /home/lorenzo/pseudos/Ni/Ni.pbesol-spn-kjpaw_psl.1.0.0.UPF
     MD5 check sum: ef06ee83099c2673f0516457bd731f51
     Pseudo is Projector augmented-wave + core cor, Zval = 18.0
     Generated using "atomic" code by A. Dal Corso v.6.3
     Shape of augmentation charge: PSQ
     Using radial grid of 1195 points,  6 beta functions with: 
                l(1) =   0
                l(2) =   0
                l(3) =   1
                l(4) =   1
                l(5) =   2
                l(6) =   2
     Q(r) pseudized with 0 coefficients 


     atomic species   valence    mass     pseudopotential
        Ni            18.00    58.69340     Ni( 1.00)

     48 Sym. Ops., with inversion, found



   Cartesian axes

     site n.     atom                  positions (alat units)
         1           Ni  tau(   1) = (   0.0000000   0.0000000   0.0000000  )

     number of k points=    47  gaussian smearing, width (Ry)=  0.0100
                       cart. coord. in units 2pi/alat
        k(    1) = (   0.0000000   0.0000000   0.0000000), wk =   0.0020000
        k(    2) = (  -0.1000000   0.1000000  -0.1000000), wk =   0.0160000
        k(    3) = (  -0.2000000   0.2000000  -0.2000000), wk =   0.0160000
        k(    4) = (  -0.3000000   0.3000000  -0.3000000), wk =   0.0160000
        k(    5) = (  -0.4000000   0.4000000  -0.4000000), wk =   0.0160000
        k(    6) = (   0.5000000  -0.5000000   0.5000000), wk =   0.0080000
        k(    7) = (   0.0000000   0.2000000   0.0000000), wk =   0.0120000
        k(    8) = (  -0.1000000   0.3000000  -0.1000000), wk =   0.0480000
        k(    9) = (  -0.2000000   0.4000000  -0.2000000), wk =   0.0480000
        k(   10) = (  -0.3000000   0.5000000  -0.3000000), wk =   0.0480000
        k(   11) = (   0.6000000  -0.4000000   0.6000000), wk =   0.0480000
        k(   12) = (   0.5000000  -0.3000000   0.5000000), wk =   0.0480000
        k(   13) = (   0.4000000  -0.2000000   0.4000000), wk =   0.0480000
        k(   14) = (   0.3000000  -0.1000000   0.3000000), wk =   0.0480000
        k(   15) = (   0.2000000   0.0000000   0.2000000), wk =   0.0240000
        k(   16) = (   0.0000000   0.4000000   0.0000000), wk =   0.0120000
        k(   17) = (  -0.1000000   0.5000000  -0.1000000), wk =   0.0480000
        k(   18) = (  -0.2000000   0.6000000  -0.2000000), wk =   0.0480000
        k(   19) = (   0.7000000  -0.3000000   0.7000000), wk =   0.0480000
        k(   20) = (   0.6000000  -0.2000000   0.6000000), wk =   0.0480000
        k(   21) = (   0.5000000  -0.1000000   0.5000000), wk =   0.0480000
        k(   22) = (   0.4000000   0.0000000   0.4000000), wk =   0.0240000
        k(   23) = (   0.0000000   0.6000000   0.0000000), wk =   0.0120000
        k(   24) = (  -0.1000000   0.7000000  -0.1000000), wk =   0.0480000
        k(   25) = (   0.8000000  -0.2000000   0.8000000), wk =   0.0480000
        k(   26) = (   0.7000000  -0.1000000   0.7000000), wk =   0.0480000
        k(   27) = (   0.6000000  -0.0000000   0.6000000), wk =   0.0240000
        k(   28) = (   0.0000000   0.8000000   0.0000000), wk =   0.0120000
        k(   29) = (   0.9000000  -0.1000000   0.9000000), wk =   0.0480000
        k(   30) = (   0.8000000   0.0000000   0.8000000), wk =   0.0240000
        k(   31) = (   0.0000000  -1.0000000   0.0000000), wk =   0.0060000
        k(   32) = (  -0.2000000   0.4000000   0.0000000), wk =   0.0480000
        k(   33) = (  -0.3000000   0.5000000  -0.1000000), wk =   0.0960000
        k(   34) = (   0.6000000  -0.4000000   0.8000000), wk =   0.0960000
        k(   35) = (   0.5000000  -0.3000000   0.7000000), wk =   0.0480000
        k(   36) = (  -0.2000000   0.6000000   0.0000000), wk =   0.0480000
        k(   37) = (   0.7000000  -0.3000000   0.9000000), wk =   0.0960000
        k(   38) = (   0.6000000  -0.2000000   0.8000000), wk =   0.0960000
        k(   39) = (   0.5000000  -0.1000000   0.7000000), wk =   0.0960000
        k(   40) = (   0.4000000   0.0000000   0.6000000), wk =   0.0480000
        k(   41) = (   0.8000000  -0.2000000   1.0000000), wk =   0.0480000
        k(   42) = (   0.7000000  -0.1000000   0.9000000), wk =   0.0960000
        k(   43) = (   0.6000000   0.0000000   0.8000000), wk =   0.0480000
        k(   44) = (  -0.2000000  -1.0000000   0.0000000), wk =   0.0240000
        k(   45) = (   0.6000000  -0.2000000   1.0000000), wk =   0.0480000
        k(   46) = (   0.5000000  -0.1000000   0.9000000), wk =   0.0480000
        k(   47) = (  -0.4000000  -1.0000000   0.0000000), wk =   0.0240000

     Dense  grid:     2975 G-vectors     FFT dimensions: (  24,  24,  24)

     Estimated max dynamical RAM per process >       4.14 MB

     Estimated total dynamical RAM >      20.72 MB

     Check: negative/imaginary core charge=   -0.000034    0.000000

     Initial potential from superposition of free atoms

     starting charge   17.99977, renormalised to   18.00000
     Starting wfcs are   10 randomized atomic wfcs +    3 random wfcs
     Checking if some PAW data can be deallocated... 

     total cpu time spent up to now is        1.1 secs

     Self-consistent Calculation

     iteration #  1     ecut=    45.00 Ry     beta= 0.70
     Davidson diagonalization with overlap
     ethr =  1.00E-02,  avg # of iterations =  4.1

     Threshold (ethr) on eigenvalues was too large:
     Diagonalizing with lowered threshold

     Davidson diagonalization with overlap
     ethr =  3.20E-05,  avg # of iterations =  2.0

     total cpu time spent up to now is        1.9 secs

     total energy              =    -426.40880100 Ry
     Harris-Foulkes estimate   =    -426.41085492 Ry
     estimated scf accuracy    <       0.00594063 Ry

     iteration #  2     ecut=    45.00 Ry     beta= 0.70
     Davidson diagonalization with overlap
     ethr =  3.30E-05,  avg # of iterations =  2.0

     total cpu time spent up to now is        2.4 secs

     total energy              =    -426.40876749 Ry
     Harris-Foulkes estimate   =    -426.40941478 Ry
     estimated scf accuracy    <       0.00102841 Ry

     iteration #  3     ecut=    45.00 Ry     beta= 0.70
     Davidson diagonalization with overlap
     ethr =  5.71E-06,  avg # of iterations =  2.4

     total cpu time spent up to now is        2.8 secs

     total energy              =    -426.40872550 Ry
     Harris-Foulkes estimate   =    -426.41004514 Ry
     estimated scf accuracy    <       0.00405457 Ry

     iteration #  4     ecut=    45.00 Ry     beta= 0.70
     Davidson diagonalization with overlap
     ethr =  5.71E-06,  avg # of iterations =  2.1

     total cpu time spent up to now is        3.3 secs

     total energy              =    -426.40930862 Ry
     Harris-Foulkes estimate   =    -426.40930661 Ry
     estimated scf accuracy    <       0.00000389 Ry

     iteration #  5     ecut=    45.00 Ry     beta= 0.70
     Davidson diagonalization with overlap
     ethr =  2.16E-08,  avg # of iterations =  3.0

     total cpu time spent up to now is        3.8 secs

     total energy              =    -426.40931023 Ry
     Harris-Foulkes estimate   =    -426.40931025 Ry
     estimated scf accuracy    <       0.00000007 Ry

     iteration #  6     ecut=    45.00 Ry     beta= 0.70
     Davidson diagonalization with overlap
     ethr =  3.61E-10,  avg # of iterations =  2.0

     total cpu time spent up to now is        4.2 secs

     End of self-consistent calculation

          k = 0.0000 0.0000 0.0000 (   339 PWs)   bands (ev):

   -85.2563 -45.3206 -45.3206 -45.3206   8.7453  15.8183  15.8183  15.8183
    16.9779  16.9779  41.2695  45.1928  45.1928

          k =-0.1000 0.1000-0.1000 (   362 PWs)   bands (ev):

   -85.2535 -45.4735 -45.4027 -45.4027   9.1095  15.6888  15.8678  15.8678
    16.8527  16.8527  39.5325  42.5958  44.3683

          k =-0.2000 0.2000-0.2000 (   362 PWs)   bands (ev):

   -85.2449 -45.5274 -45.4158 -45.4158  10.2095  15.4683  16.0037  16.0037
    16.8565  16.8565  34.6481  41.8218  43.3459

          k =-0.3000 0.3000-0.3000 (   365 PWs)   bands (ev):

   -85.2342 -45.6348 -45.4132 -45.4132  11.7624  15.4122  15.9574  15.9574
    17.1239  17.1239  29.8027  40.9148  42.6830

          k =-0.4000 0.4000-0.4000 (   368 PWs)   bands (ev):

   -85.2255 -45.6853 -45.4366 -45.4366  12.9251  15.8135  15.8135  16.2680
    17.4529  17.4529  25.7116  40.0944  42.3731

          k = 0.5000-0.5000 0.5000 (   368 PWs)   bands (ev):

   -85.2222 -45.7283 -45.4278 -45.4278  13.1977  15.7574  15.7574  17.3066
    17.6034  17.6034  23.6677  39.7784  42.3075

          k = 0.0000 0.2000 0.0000 (   355 PWs)   bands (ev):

   -85.2523 -45.4762 -45.3617 -45.3617   9.2444  15.6248  15.9151  15.9151
    16.7324  17.0258  40.3267  42.2095  42.2095

          k =-0.1000 0.3000-0.1000 (   364 PWs)   bands (ev):

   -85.2456 -45.5094 -45.4594 -45.4010  10.0955  15.3811  16.0480  16.0899
    16.6098  17.0331  36.5750  40.6211  40.7215

          k =-0.2000 0.4000-0.2000 (   369 PWs)   bands (ev):

   -85.2356 -45.5883 -45.4795 -45.4327  11.5111  15.1942  15.9163  16.1105
    16.9607  17.2326  31.6039  39.6654  39.8599

          k =-0.3000 0.5000-0.3000 (   372 PWs)   bands (ev):

   -85.2263 -45.6567 -45.4896 -45.4560  12.8820  15.4359  15.7440  15.9879
    17.5083  17.7094  27.1544  38.8834  39.4088

          k = 0.6000-0.4000 0.6000 (   375 PWs)   bands (ev):

   -85.2213 -45.7288 -45.4860 -45.4634  13.3834  15.5320  15.8876  16.2315
    17.5922  18.8148  24.0197  37.8799  39.9672

          k = 0.5000-0.3000 0.5000 (   374 PWs)   bands (ev):

   -85.2223 -45.7191 -45.4825 -45.4550  13.3118  15.6001  15.8855  16.0806
    17.4079  18.5664  24.8038  37.1807  41.0095

          k = 0.4000-0.2000 0.4000 (   372 PWs)   bands (ev):

   -85.2292 -45.6334 -45.4983 -45.4473  12.5061  15.3505  15.7927  15.9924
    17.0141  17.7653  28.5635  37.0411  42.1243

          k = 0.3000-0.1000 0.3000 (   368 PWs)   bands (ev):

   -85.2392 -45.5646 -45.4599 -45.4412  11.0013  15.2766  15.9841  16.1144
    16.6365  17.2540  33.2323  37.5034  43.8384

          k = 0.2000 0.0000 0.2000 (   363 PWs)   bands (ev):

   -85.2485 -45.4929 -45.4268 -45.4178   9.7332  15.5033  15.9799  15.9948
    16.6676  16.9919  37.8578  38.9569  44.2465

          k = 0.0000 0.4000 0.0000 (   367 PWs)   bands (ev):

   -85.2410 -45.5224 -45.4542 -45.4542  10.6727  15.1176  16.3201  16.3398
    16.3398  17.1210  38.5382  38.5382  38.9594

          k =-0.1000 0.5000-0.1000 (   368 PWs)   bands (ev):

   -85.2327 -45.5738 -45.4681 -45.4524  11.8173  14.8516  15.9860  16.5097
    16.9246  17.3150  33.8745  37.1843  37.9240

          k =-0.2000 0.6000-0.2000 (   384 PWs)   bands (ev):

   -85.2244 -45.6873 -45.5439 -45.5126  13.0943  14.7370  15.6758  16.4207
    17.5333  17.9989  29.1872  35.8984  36.6608

          k = 0.7000-0.3000 0.7000 (   376 PWs)   bands (ev):

   -85.2185 -45.6881 -45.5292 -45.4922  13.8084  14.8924  15.6577  16.3132
    17.6361  19.8498  25.2646  34.1203  37.0789

          k = 0.6000-0.2000 0.6000 (   382 PWs)   bands (ev):

   -85.2179 -45.7123 -45.5587 -45.5160  13.9314  15.0431  15.6324  16.2220
    17.3895  20.5872  24.3505  32.8900  38.4433

          k = 0.5000-0.1000 0.5000 (   375 PWs)   bands (ev):

   -85.2224 -45.6491 -45.5481 -45.4663  13.5579  15.1599  15.4052  16.2615
    16.9713  18.9895  27.8286  32.3696  40.6314

          k = 0.4000 0.0000 0.4000 (   371 PWs)   bands (ev):

   -85.2305 -45.5934 -45.5105 -45.4518  12.3159  15.0668  15.7467  16.4006
    16.5028  17.9445  31.9609  32.9347  42.9327

          k = 0.0000 0.6000 0.0000 (   371 PWs)   bands (ev):

   -85.2268 -45.5857 -45.4902 -45.4902  12.4960  14.5430  16.3756  16.9363
    16.9363  17.3425  35.1020  35.4094  35.4094

          k =-0.1000 0.7000-0.1000 (   373 PWs)   bands (ev):

   -85.2199 -45.6606 -45.4950 -45.4845  13.2449  14.3680  16.3290  17.0352
    17.5624  18.0494  31.6454  32.7626  34.5206

          k = 0.8000-0.2000 0.8000 (   378 PWs)   bands (ev):

   -85.2150 -45.6680 -45.5790 -45.5037  13.8131  14.3582  16.0104  16.9000
    17.6692  20.3109  27.5081  30.6697  34.6707

          k = 0.7000-0.1000 0.7000 (   379 PWs)   bands (ev):

   -85.2136 -45.6579 -45.6205 -45.5048  14.2697  14.4801  15.6429  16.7301
    17.4754  22.8971  24.3417  29.2932  35.8649

          k = 0.6000-0.0000 0.6000 (   385 PWs)   bands (ev):

   -85.2166 -45.6897 -45.6215 -45.5168  14.3175  14.8452  15.2067  16.5372
    17.1257  20.8774  26.7527  29.1192  37.9312

          k = 0.0000 0.8000 0.0000 (   383 PWs)   bands (ev):

   -85.2155 -45.7020 -45.5438 -45.5438  13.2776  14.0966  17.5030  17.5046
    17.5046  18.1702  29.9604  33.2303  33.2303

          k = 0.9000-0.1000 0.9000 (   370 PWs)   bands (ev):

   -85.2120 -45.6681 -45.5036 -45.5012  13.4877  14.0753  17.0989  17.4456
    17.7124  20.2598  28.0799  30.5076  33.0288

          k = 0.8000 0.0000 0.8000 (   373 PWs)   bands (ev):

   -85.2114 -45.6638 -45.5807 -45.4830  13.8355  14.2179  16.3449  17.2239
    17.6145  22.5189  26.5615  27.7883  33.9683

          k = 0.0000-1.0000 0.0000 (   388 PWs)   bands (ev):

   -85.2113 -45.7285 -45.5789 -45.5789  13.3224  13.9160  17.5681  17.7393
    17.7393  20.0451  27.1297  32.4313  32.4313

          k =-0.2000 0.4000 0.0000 (   370 PWs)   bands (ev):

   -85.2381 -45.5582 -45.4751 -45.4571  11.1153  15.1221  15.9666  16.3412
    16.5624  17.2910  35.0567  35.8097  41.6829

          k =-0.3000 0.5000-0.1000 (   375 PWs)   bands (ev):

   -85.2288 -45.6180 -45.5134 -45.4796  12.5308  14.9750  15.6690  16.3474
    16.9375  17.8812  30.5136  34.8369  39.3763

          k = 0.6000-0.4000 0.8000 (   375 PWs)   bands (ev):

   -85.2213 -45.6773 -45.5250 -45.4735  13.5653  15.1533  15.5389  16.2094
    17.3904  19.0250  26.2737  34.8286  37.3871

          k = 0.5000-0.3000 0.7000 (   376 PWs)   bands (ev):

   -85.2185 -45.7034 -45.5212 -45.4914  13.7915  15.1522  15.7844  16.1323
    17.5268  20.3199  23.8752  35.1827  36.3410

          k =-0.2000 0.6000 0.0000 (   369 PWs)   bands (ev):

   -85.2251 -45.6017 -45.4844 -45.4667  12.8611  14.6477  15.8123  16.9478
    16.9985  17.8912  32.6532  33.2599  35.8840

          k = 0.7000-0.3000 0.9000 (   376 PWs)   bands (ev):

   -85.2184 -45.6650 -45.5355 -45.4935  13.7746  14.5936  15.5513  16.7969
    17.4290  19.3555  28.4594  32.6789  33.7433

          k = 0.6000-0.2000 0.8000 (   375 PWs)   bands (ev):

   -85.2149 -45.6733 -45.5513 -45.5038  14.2526  14.6305  15.4753  16.5967
    17.5457  21.6994  24.7967  31.6708  33.6752

          k = 0.5000-0.1000 0.7000 (   379 PWs)   bands (ev):

   -85.2161 -45.6727 -45.5760 -45.5159  14.3029  14.7949  15.2405  16.5491
    17.3338  21.0500  25.8284  30.6750  35.0127

          k = 0.4000 0.0000 0.6000 (   380 PWs)   bands (ev):

   -85.2214 -45.6585 -45.5528 -45.5122  13.6955  14.8886  15.2654  16.6112
    16.9533  19.0932  29.4487  30.8160  36.9895

          k = 0.8000-0.2000 1.0000 (   374 PWs)   bands (ev):

   -85.2148 -45.6771 -45.5080 -45.5029  13.5897  14.2637  16.3427  17.3586
    17.5144  19.5916  30.1801  30.8983  31.8386

          k = 0.7000-0.1000 0.9000 (   377 PWs)   bands (ev):

   -85.2121 -45.6523 -45.5857 -45.5289  13.9454  14.3555  15.9624  17.0696
    17.6582  22.0934  27.1752  28.6986  31.8762

          k = 0.6000 0.0000 0.8000 (   380 PWs)   bands (ev):

   -85.2126 -45.6373 -45.6371 -45.5334  14.3459  14.5392  15.4437  16.7991
    17.5149  23.7675  24.7951  28.2139  33.1196

          k =-0.2000-1.0000 0.0000 (   370 PWs)   bands (ev):

   -85.2109 -45.6823 -45.5233 -45.4840  13.6051  14.1328  16.7774  17.3922
    17.7658  21.4834  27.2515  30.2340  31.1138

          k = 0.6000-0.2000 1.0000 (   383 PWs)   bands (ev):

   -85.2140 -45.6695 -45.5975 -45.5543  14.2069  14.6890  15.2380  16.8697
    17.4935  21.4959  27.6736  29.4399  31.4866

          k = 0.5000-0.1000 0.9000 (   378 PWs)   bands (ev):

   -85.2121 -45.6373 -45.6033 -45.5457  14.3415  14.8213  15.1161  16.7578
    17.6467  24.0340  24.9216  29.4271  30.3320

          k =-0.4000-1.0000 0.0000 (   382 PWs)   bands (ev):

   -85.2111 -45.6500 -45.5969 -45.5941  14.1128  14.6044  15.5053  16.8725
    17.7729  24.0196  27.0005  27.5983  29.3671

     the Fermi energy is    17.6171 ev

!    total energy              =    -426.40931025 Ry
     Harris-Foulkes estimate   =    -426.40931025 Ry
     estimated scf accuracy    <          2.2E-09 Ry

     total all-electron energy =     -3038.867655 Ry

     The total energy is the sum of the following terms:

     one-electron contribution =    -184.75376978 Ry
     hartree contribution      =     104.44547423 Ry
     xc contribution           =     -33.92442640 Ry
     ewald contribution        =    -223.38275378 Ry
     one-center paw contrib.   =     -88.79165545 Ry
     smearing contrib. (-TS)   =      -0.00217908 Ry

     convergence has been achieved in   6 iterations

     Forces acting on atoms (cartesian axes, Ry/au):

     atom    1 type  1   force =     0.00000000    0.00000000    0.00000000

     Total force =     0.000000     Total SCF correction =     0.000000


     Computing stress (Cartesian axis) and pressure

          total   stress  (Ry/bohr**3)                   (kbar)     P=-2484.78
  -0.01689120   0.00000000  -0.00000000      -2484.78      0.00     -0.00
   0.00000000  -0.01689120  -0.00000000          0.00  -2484.78     -0.00
  -0.00000000   0.00000000  -0.01689120         -0.00      0.00  -2484.78


     Writing output data file Ni.save/

     init_run     :      0.31s CPU      0.34s WALL (       1 calls)
     electrons    :      2.90s CPU      3.15s WALL (       1 calls)
     forces       :      0.03s CPU      0.03s WALL (       1 calls)
     stress       :      0.08s CPU      0.08s WALL (       1 calls)

     Called by init_run:
     wfcinit      :      0.09s CPU      0.10s WALL (       1 calls)
     potinit      :      0.09s CPU      0.10s WALL (       1 calls)
     hinit0       :      0.11s CPU      0.11s WALL (       1 calls)

     Called by electrons:
     c_bands      :      2.01s CPU      2.16s WALL (       7 calls)
     sum_band     :      0.33s CPU      0.35s WALL (       7 calls)
     v_of_rho     :      0.02s CPU      0.02s WALL (       7 calls)
     newd         :      0.02s CPU      0.02s WALL (       7 calls)
     PAW_pot      :      0.61s CPU      0.70s WALL (       7 calls)
     mix_rho      :      0.00s CPU      0.00s WALL (       7 calls)

     Called by c_bands:
     init_us_2    :      0.04s CPU      0.04s WALL (     799 calls)
     cegterg      :      1.95s CPU      2.10s WALL (     329 calls)

     Called by sum_band:
     sum_band:bec :      0.00s CPU      0.00s WALL (     329 calls)
     addusdens    :      0.02s CPU      0.02s WALL (       7 calls)

     Called by *egterg:
     h_psi        :      1.40s CPU      1.51s WALL (    1202 calls)
     s_psi        :      0.04s CPU      0.04s WALL (    1202 calls)
     g_psi        :      0.00s CPU      0.00s WALL (     826 calls)
     cdiaghg      :      0.36s CPU      0.38s WALL (    1108 calls)

     Called by h_psi:
     h_psi:pot    :      1.39s CPU      1.51s WALL (    1202 calls)
     h_psi:calbec :      0.06s CPU      0.06s WALL (    1202 calls)
     vloc_psi     :      1.29s CPU      1.40s WALL (    1202 calls)
     add_vuspsi   :      0.04s CPU      0.04s WALL (    1202 calls)

     General routines
     calbec       :      0.09s CPU      0.10s WALL (    1766 calls)
     fft          :      0.01s CPU      0.01s WALL (     104 calls)
     ffts         :      0.00s CPU      0.00s WALL (       7 calls)
     fftw         :      1.42s CPU      1.53s WALL (   26695 calls)

     Parallel routines
     fft_scatt_xy :      0.14s CPU      0.15s WALL (   26806 calls)
     fft_scatt_yz :      0.39s CPU      0.42s WALL (   26806 calls)

     PWSCF        :     4.08s CPU         4.41s WALL


   This run was terminated on:  22:35:52  26Mar2024            

=------------------------------------------------------------------------------=
   JOB DONE.
=------------------------------------------------------------------------------=
