
     Program PWSCF v.6.3MaX starts on 26Mar2024 at 22:45:40 

     This program is part of the open-source Quantum ESPRESSO suite
     for quantum simulation of materials; please cite
         "P. Giannozzi et al., J. Phys.:Condens. Matter 21 395502 (2009);
         "P. Giannozzi et al., J. Phys.:Condens. Matter 29 465901 (2017);
          URL http://www.quantum-espresso.org", 
     in publications or presentations arising from this work. More details at
     http://www.quantum-espresso.org/quote

     Parallel version (MPI), running on     5 processors

     MPI processes distributed on     1 nodes
     R & G space division:  proc/nbgrp/npool/nimage =       5
     Waiting for input...
     Reading input from standard input

     Current dimensions of program PWSCF are:
     Max number of different atomic species (ntypx) = 10
     Max number of k-points (npk) =  40000
     Max angular momentum in pseudopotentials (lmaxx) =  3
               file Ni.pbe-spn-kjpaw_psl.1.0.0.UPF: wavefunction(s)  3P 3D renormalized

     Subspace diagonalization in iterative solution of the eigenvalue problem:
     a serial algorithm will be used


     Parallelization info
     --------------------
     sticks:   dense  smooth     PW     G-vecs:    dense   smooth      PW
     Min          79      79     25                 1032     1032     192
     Max          80      80     26                 1033     1033     195
     Sum         397     397    127                 5161     5161     965



     bravais-lattice index     =            2
     lattice parameter (alat)  =       6.6500  a.u.
     unit-cell volume          =      73.5199 (a.u.)^3
     number of atoms/cell      =            1
     number of atomic types    =            1
     number of electrons       =        18.00
     number of Kohn-Sham states=           13
     kinetic-energy cutoff     =      65.0000  Ry
     charge density cutoff     =     260.0000  Ry
     convergence threshold     =      1.0E-08
     mixing beta               =       0.7000
     number of iterations used =            8  plain     mixing
     Exchange-correlation      = SLA PW PBX PBC ( 1  4  3  4 0 0)

     celldm(1)=   6.650000  celldm(2)=   0.000000  celldm(3)=   0.000000
     celldm(4)=   0.000000  celldm(5)=   0.000000  celldm(6)=   0.000000

     crystal axes: (cart. coord. in units of alat)
               a(1) = (  -0.500000   0.000000   0.500000 )  
               a(2) = (   0.000000   0.500000   0.500000 )  
               a(3) = (  -0.500000   0.500000   0.000000 )  

     reciprocal axes: (cart. coord. in units 2 pi/alat)
               b(1) = ( -1.000000 -1.000000  1.000000 )  
               b(2) = (  1.000000  1.000000  1.000000 )  
               b(3) = ( -1.000000  1.000000 -1.000000 )  


     PseudoPot. # 1 for Ni read from file:
     /home/lorenzo/pseudos/Ni/Ni.pbe-spn-kjpaw_psl.1.0.0.UPF
     MD5 check sum: 6e86b733589c3ad8389697b807d86aa7
     Pseudo is Projector augmented-wave + core cor, Zval = 18.0
     Generated using "atomic" code by A. Dal Corso v.6.3
     Shape of augmentation charge: PSQ
     Using radial grid of 1195 points,  6 beta functions with: 
                l(1) =   0
                l(2) =   0
                l(3) =   1
                l(4) =   1
                l(5) =   2
                l(6) =   2
     Q(r) pseudized with 0 coefficients 


     atomic species   valence    mass     pseudopotential
        Ni            18.00    58.69340     Ni( 1.00)

     48 Sym. Ops., with inversion, found



   Cartesian axes

     site n.     atom                  positions (alat units)
         1           Ni  tau(   1) = (   0.0000000   0.0000000   0.0000000  )

     number of k points=    47  gaussian smearing, width (Ry)=  0.0100
                       cart. coord. in units 2pi/alat
        k(    1) = (   0.0000000   0.0000000   0.0000000), wk =   0.0020000
        k(    2) = (  -0.1000000   0.1000000  -0.1000000), wk =   0.0160000
        k(    3) = (  -0.2000000   0.2000000  -0.2000000), wk =   0.0160000
        k(    4) = (  -0.3000000   0.3000000  -0.3000000), wk =   0.0160000
        k(    5) = (  -0.4000000   0.4000000  -0.4000000), wk =   0.0160000
        k(    6) = (   0.5000000  -0.5000000   0.5000000), wk =   0.0080000
        k(    7) = (   0.0000000   0.2000000   0.0000000), wk =   0.0120000
        k(    8) = (  -0.1000000   0.3000000  -0.1000000), wk =   0.0480000
        k(    9) = (  -0.2000000   0.4000000  -0.2000000), wk =   0.0480000
        k(   10) = (  -0.3000000   0.5000000  -0.3000000), wk =   0.0480000
        k(   11) = (   0.6000000  -0.4000000   0.6000000), wk =   0.0480000
        k(   12) = (   0.5000000  -0.3000000   0.5000000), wk =   0.0480000
        k(   13) = (   0.4000000  -0.2000000   0.4000000), wk =   0.0480000
        k(   14) = (   0.3000000  -0.1000000   0.3000000), wk =   0.0480000
        k(   15) = (   0.2000000   0.0000000   0.2000000), wk =   0.0240000
        k(   16) = (   0.0000000   0.4000000   0.0000000), wk =   0.0120000
        k(   17) = (  -0.1000000   0.5000000  -0.1000000), wk =   0.0480000
        k(   18) = (  -0.2000000   0.6000000  -0.2000000), wk =   0.0480000
        k(   19) = (   0.7000000  -0.3000000   0.7000000), wk =   0.0480000
        k(   20) = (   0.6000000  -0.2000000   0.6000000), wk =   0.0480000
        k(   21) = (   0.5000000  -0.1000000   0.5000000), wk =   0.0480000
        k(   22) = (   0.4000000   0.0000000   0.4000000), wk =   0.0240000
        k(   23) = (   0.0000000   0.6000000   0.0000000), wk =   0.0120000
        k(   24) = (  -0.1000000   0.7000000  -0.1000000), wk =   0.0480000
        k(   25) = (   0.8000000  -0.2000000   0.8000000), wk =   0.0480000
        k(   26) = (   0.7000000  -0.1000000   0.7000000), wk =   0.0480000
        k(   27) = (   0.6000000  -0.0000000   0.6000000), wk =   0.0240000
        k(   28) = (   0.0000000   0.8000000   0.0000000), wk =   0.0120000
        k(   29) = (   0.9000000  -0.1000000   0.9000000), wk =   0.0480000
        k(   30) = (   0.8000000   0.0000000   0.8000000), wk =   0.0240000
        k(   31) = (   0.0000000  -1.0000000   0.0000000), wk =   0.0060000
        k(   32) = (  -0.2000000   0.4000000   0.0000000), wk =   0.0480000
        k(   33) = (  -0.3000000   0.5000000  -0.1000000), wk =   0.0960000
        k(   34) = (   0.6000000  -0.4000000   0.8000000), wk =   0.0960000
        k(   35) = (   0.5000000  -0.3000000   0.7000000), wk =   0.0480000
        k(   36) = (  -0.2000000   0.6000000   0.0000000), wk =   0.0480000
        k(   37) = (   0.7000000  -0.3000000   0.9000000), wk =   0.0960000
        k(   38) = (   0.6000000  -0.2000000   0.8000000), wk =   0.0960000
        k(   39) = (   0.5000000  -0.1000000   0.7000000), wk =   0.0960000
        k(   40) = (   0.4000000   0.0000000   0.6000000), wk =   0.0480000
        k(   41) = (   0.8000000  -0.2000000   1.0000000), wk =   0.0480000
        k(   42) = (   0.7000000  -0.1000000   0.9000000), wk =   0.0960000
        k(   43) = (   0.6000000   0.0000000   0.8000000), wk =   0.0480000
        k(   44) = (  -0.2000000  -1.0000000   0.0000000), wk =   0.0240000
        k(   45) = (   0.6000000  -0.2000000   1.0000000), wk =   0.0480000
        k(   46) = (   0.5000000  -0.1000000   0.9000000), wk =   0.0480000
        k(   47) = (  -0.4000000  -1.0000000   0.0000000), wk =   0.0240000

     Dense  grid:     5161 G-vectors     FFT dimensions: (  25,  25,  25)

     Estimated max dynamical RAM per process >       6.45 MB

     Estimated total dynamical RAM >      32.26 MB

     Check: negative/imaginary core charge=   -0.000011    0.000000

     Initial potential from superposition of free atoms

     starting charge   17.99975, renormalised to   18.00000
     Starting wfcs are   10 randomized atomic wfcs +    3 random wfcs
     Checking if some PAW data can be deallocated... 

     total cpu time spent up to now is        1.2 secs

     Self-consistent Calculation

     iteration #  1     ecut=    65.00 Ry     beta= 0.70
     Davidson diagonalization with overlap
     ethr =  1.00E-02,  avg # of iterations =  3.6

     Threshold (ethr) on eigenvalues was too large:
     Diagonalizing with lowered threshold

     Davidson diagonalization with overlap
     ethr =  2.33E-05,  avg # of iterations =  2.6

     total cpu time spent up to now is        2.6 secs

     total energy              =    -429.14449059 Ry
     Harris-Foulkes estimate   =    -429.14709693 Ry
     estimated scf accuracy    <       0.00426689 Ry

     iteration #  2     ecut=    65.00 Ry     beta= 0.70
     Davidson diagonalization with overlap
     ethr =  2.37E-05,  avg # of iterations =  2.4

     total cpu time spent up to now is        3.2 secs

     total energy              =    -429.14355216 Ry
     Harris-Foulkes estimate   =    -429.14966845 Ry
     estimated scf accuracy    <       0.01731257 Ry

     iteration #  3     ecut=    65.00 Ry     beta= 0.70
     Davidson diagonalization with overlap
     ethr =  2.37E-05,  avg # of iterations =  2.1

     total cpu time spent up to now is        3.8 secs

     total energy              =    -429.14643321 Ry
     Harris-Foulkes estimate   =    -429.14645154 Ry
     estimated scf accuracy    <       0.00011091 Ry

     iteration #  4     ecut=    65.00 Ry     beta= 0.70
     Davidson diagonalization with overlap
     ethr =  6.16E-07,  avg # of iterations =  2.3

     total cpu time spent up to now is        4.3 secs

     total energy              =    -429.14645042 Ry
     Harris-Foulkes estimate   =    -429.14645030 Ry
     estimated scf accuracy    <       0.00000054 Ry

     iteration #  5     ecut=    65.00 Ry     beta= 0.70
     Davidson diagonalization with overlap
     ethr =  2.99E-09,  avg # of iterations =  2.4

     total cpu time spent up to now is        4.9 secs

     total energy              =    -429.14645065 Ry
     Harris-Foulkes estimate   =    -429.14645066 Ry
     estimated scf accuracy    <       0.00000007 Ry

     iteration #  6     ecut=    65.00 Ry     beta= 0.70
     Davidson diagonalization with overlap
     ethr =  3.70E-10,  avg # of iterations =  1.6

     total cpu time spent up to now is        5.4 secs

     End of self-consistent calculation

          k = 0.0000 0.0000 0.0000 (   645 PWs)   bands (ev):

   -85.2886 -45.5413 -45.5413 -45.5413   8.8283  15.9230  15.9230  15.9230
    17.0289  17.0289  41.4891  45.4396  45.4396

          k =-0.1000 0.1000-0.1000 (   637 PWs)   bands (ev):

   -85.2851 -45.5626 -45.5443 -45.5443   9.2183  15.8185  16.0067  16.0067
    16.9963  16.9963  39.7803  42.8074  44.6379

          k =-0.2000 0.2000-0.2000 (   646 PWs)   bands (ev):

   -85.2769 -45.6181 -45.5523 -45.5523  10.3264  15.6006  16.1323  16.1323
    17.0183  17.0183  34.8676  42.0193  43.6261

          k =-0.3000 0.3000-0.3000 (   640 PWs)   bands (ev):

   -85.2663 -45.6863 -45.5622 -45.5622  11.8779  15.5908  16.0730  16.0730
    17.2917  17.2917  29.9949  41.1197  42.9644

          k =-0.4000 0.4000-0.4000 (   634 PWs)   bands (ev):

   -85.2576 -45.7413 -45.5702 -45.5702  13.0357  15.9353  15.9353  16.4737
    17.6307  17.6307  25.8626  40.3058  42.6519

          k = 0.5000-0.5000 0.5000 (   652 PWs)   bands (ev):

   -85.2550 -45.7623 -45.5733 -45.5733  13.3086  15.8742  15.8742  17.5487
    17.7754  17.7754  23.8011  39.9916  42.5814

          k = 0.0000 0.2000 0.0000 (   637 PWs)   bands (ev):

   -85.2840 -45.5619 -45.5492 -45.5492   9.3471  15.7311  16.0710  16.0710
    16.8561  17.0969  40.5669  42.4838  42.4838

          k =-0.1000 0.3000-0.1000 (   649 PWs)   bands (ev):

   -85.2777 -45.6032 -45.5587 -45.5552  10.2140  15.5089  16.2040  16.2325
    16.7644  17.1751  36.8158  40.8975  40.9320

          k =-0.2000 0.4000-0.2000 (   638 PWs)   bands (ev):

   -85.2676 -45.6652 -45.5691 -45.5650  11.6430  15.3440  16.0626  16.2578
    17.1298  17.3984  31.8088  39.9415  40.0823

          k =-0.3000 0.5000-0.3000 (   639 PWs)   bands (ev):

   -85.2585 -45.7225 -45.5768 -45.5765  13.0144  15.6055  15.8836  16.1376
    17.6850  17.8958  27.3230  39.1207  39.6864

          k = 0.6000-0.4000 0.6000 (   649 PWs)   bands (ev):

   -85.2538 -45.7533 -45.5860 -45.5781  13.5119  15.6798  16.0325  16.4231
    17.7852  19.0294  24.1594  38.1191  40.2450

          k = 0.5000-0.3000 0.5000 (   647 PWs)   bands (ev):

   -85.2548 -45.7464 -45.5888 -45.5733  13.4397  15.7359  16.0337  16.2767
    17.5916  18.7692  24.9582  37.4139  41.2252

          k = 0.4000-0.2000 0.4000 (   641 PWs)   bands (ev):

   -85.2614 -45.7046 -45.5839 -45.5638  12.6423  15.5266  15.9225  16.1516
    17.1840  17.9419  28.7436  37.2730  42.3520

          k = 0.3000-0.1000 0.3000 (   643 PWs)   bands (ev):

   -85.2712 -45.6442 -45.5726 -45.5534  11.1308  15.4278  16.1047  16.2789
    16.8048  17.4180  33.4487  37.7268  44.0759

          k = 0.2000 0.0000 0.2000 (   650 PWs)   bands (ev):

   -85.2805 -45.5899 -45.5575 -45.5459   9.8483  15.6438  16.1208  16.1377
    16.8273  17.1199  38.1214  39.1632  44.4838

          k = 0.0000 0.4000 0.0000 (   649 PWs)   bands (ev):

   -85.2732 -45.6153 -45.5699 -45.5699  10.7998  15.2449  16.4732  16.4941
    16.4941  17.2758  38.8120  38.8121  39.2206

          k =-0.1000 0.5000-0.1000 (   650 PWs)   bands (ev):

   -85.2652 -45.6585 -45.5821 -45.5818  11.9507  14.9917  16.1326  16.6622
    17.0899  17.4583  34.1070  37.4553  38.1740

          k =-0.2000 0.6000-0.2000 (   655 PWs)   bands (ev):

   -85.2569 -45.7047 -45.5985 -45.5898  13.2481  14.9174  15.8354  16.5984
    17.7273  18.2040  29.3998  36.1357  36.9342

          k = 0.7000-0.3000 0.7000 (   653 PWs)   bands (ev):

   -85.2512 -45.7329 -45.6163 -45.5908  13.9574  15.0635  15.8205  16.4698
    17.8117  20.0619  25.4263  34.3316  37.3521

          k = 0.6000-0.2000 0.6000 (   657 PWs)   bands (ev):

   -85.2506 -45.7336 -45.6277 -45.5846  14.0897  15.2065  15.8184  16.3979
    17.5927  20.8086  24.5077  33.0912  38.7212

          k = 0.5000-0.1000 0.5000 (   649 PWs)   bands (ev):

   -85.2549 -45.7097 -45.6250 -45.5733  13.7092  15.3320  15.5333  16.4345
    17.1515  19.1744  28.0217  32.5604  40.9136

          k = 0.4000 0.0000 0.4000 (   642 PWs)   bands (ev):

   -85.2628 -45.6758 -45.6037 -45.5614  12.4580  15.2318  15.8681  16.5589
    16.6834  18.1041  32.2255  33.0829  43.1378

          k = 0.0000 0.6000 0.0000 (   644 PWs)   bands (ev):

   -85.2592 -45.6799 -45.5955 -45.5955  12.6353  14.6741  16.5213  17.1068
    17.1068  17.5013  35.3348  35.6777  35.6777

          k =-0.1000 0.7000-0.1000 (   648 PWs)   bands (ev):

   -85.2526 -45.7098 -45.6116 -45.6049  13.3801  14.4928  16.5020  17.1906
    17.7348  18.2395  31.8864  32.9543  34.7884

          k = 0.8000-0.2000 0.8000 (   658 PWs)   bands (ev):

   -85.2479 -45.7239 -45.6373 -45.6066  13.9544  14.5164  16.2074  17.0637
    17.8485  20.5092  27.7122  30.8430  34.9390

          k = 0.7000-0.1000 0.7000 (   655 PWs)   bands (ev):

   -85.2465 -45.7133 -45.6663 -45.5997  14.4028  14.6558  15.8394  16.9104
    17.6533  23.1371  24.5172  29.4333  36.1364

          k = 0.6000-0.0000 0.6000 (   666 PWs)   bands (ev):

   -85.2496 -45.7012 -45.6684 -45.5870  14.4872  15.0009  15.4056  16.7307
    17.3174  21.0779  27.0174  29.2368  38.2093

          k = 0.0000 0.8000 0.0000 (   660 PWs)   bands (ev):

   -85.2484 -45.7311 -45.6162 -45.6162  13.4285  14.2340  17.6871  17.7018
    17.7018  18.3778  30.1476  33.4965  33.4965

          k = 0.9000-0.1000 0.9000 (   650 PWs)   bands (ev):

   -85.2449 -45.7402 -45.6306 -45.6192  13.6075  14.1950  17.2897  17.5857
    17.8981  20.4820  28.2212  30.7157  33.2922

          k = 0.8000 0.0000 0.8000 (   648 PWs)   bands (ev):

   -85.2441 -45.7267 -45.6566 -45.6129  13.9677  14.3774  16.5395  17.3573
    17.7913  22.7662  26.8083  27.8505  34.2335

          k = 0.0000-1.0000 0.0000 (   636 PWs)   bands (ev):

   -85.2434 -45.7503 -45.6241 -45.6241  13.4658  14.0710  17.7592  17.9619
    17.9619  20.2984  27.2577  32.6968  32.6968

          k =-0.2000 0.4000 0.0000 (   643 PWs)   bands (ev):

   -85.2702 -45.6389 -45.5792 -45.5609  11.2494  15.2657  16.1159  16.5105
    16.7281  17.4445  35.3227  35.9991  41.9319

          k =-0.3000 0.5000-0.1000 (   644 PWs)   bands (ev):

   -85.2611 -45.6867 -45.5982 -45.5704  12.6782  15.1399  15.8183  16.5122
    17.1078  18.0583  30.7207  35.0583  39.6031

          k = 0.6000-0.4000 0.8000 (   651 PWs)   bands (ev):

   -85.2539 -45.7269 -45.6094 -45.5807  13.7126  15.3261  15.6891  16.3718
    17.5616  19.2180  26.4493  35.0573  37.5970

          k = 0.5000-0.3000 0.7000 (   650 PWs)   bands (ev):

   -85.2511 -45.7424 -45.6127 -45.5852  13.9390  15.3079  15.9646  16.2956
    17.7155  20.5397  24.0076  35.4364  36.5228

          k =-0.2000 0.6000 0.0000 (   648 PWs)   bands (ev):

   -85.2578 -45.6891 -45.6061 -45.5884  13.0028  14.7763  15.9463  17.1063
    17.1575  18.0643  32.9136  33.4607  36.0758

          k = 0.7000-0.3000 0.9000 (   654 PWs)   bands (ev):

   -85.2513 -45.7137 -45.6281 -45.5977  13.9246  14.7561  15.7000  16.9562
    17.6107  19.5484  28.6688  32.9247  33.8953

          k = 0.6000-0.2000 0.8000 (   652 PWs)   bands (ev):

   -85.2477 -45.7217 -45.6467 -45.6002  14.3994  14.7986  15.6342  16.7661
    17.7285  21.9178  24.9625  31.8648  33.8564

          k = 0.5000-0.1000 0.7000 (   658 PWs)   bands (ev):

   -85.2490 -45.7136 -45.6531 -45.5931  14.4748  14.9453  15.4160  16.7222
    17.5240  21.2499  26.0272  30.8463  35.2150

          k = 0.4000 0.0000 0.6000 (   651 PWs)   bands (ev):

   -85.2540 -45.7017 -45.6340 -45.5810  13.8632  15.0576  15.4146  16.7897
    17.1399  19.2812  29.7096  30.9552  37.2018

          k = 0.8000-0.2000 1.0000 (   658 PWs)   bands (ev):

   -85.2480 -45.7253 -45.6279 -45.6142  13.7263  14.3906  16.5241  17.5076
    17.6998  19.7895  30.3951  31.1577  31.9760

          k = 0.7000-0.1000 0.9000 (   657 PWs)   bands (ev):

   -85.2451 -45.7214 -45.6532 -45.6164  14.0801  14.5119  16.1535  17.2381
    17.8520  22.3157  27.4082  28.8201  32.0627

          k = 0.6000 0.0000 0.8000 (   659 PWs)   bands (ev):

   -85.2455 -45.6962 -45.6845 -45.6075  14.4925  14.7101  15.6372  16.9771
    17.7063  23.9740  25.0536  28.3149  33.3193

          k =-0.2000-1.0000 0.0000 (   650 PWs)   bands (ev):

   -85.2438 -45.7383 -45.6362 -45.6246  13.7304  14.2463  16.9674  17.5322
    17.9623  21.7271  27.3797  30.4912  31.2709

          k = 0.6000-0.2000 1.0000 (   656 PWs)   bands (ev):

   -85.2468 -45.7089 -45.6584 -45.6097  14.3737  14.8641  15.4118  17.0501
    17.6961  21.6990  27.9362  29.6067  31.6256

          k = 0.5000-0.1000 0.9000 (   656 PWs)   bands (ev):

   -85.2450 -45.6990 -45.6764 -45.6161  14.4929  15.0005  15.2906  16.9261
    17.8379  24.2773  25.1136  29.6715  30.3861

          k =-0.4000-1.0000 0.0000 (   662 PWs)   bands (ev):

   -85.2442 -45.7068 -45.6678 -45.6255  14.2666  14.7840  15.7029  17.0510
    17.9626  24.2748  27.2644  27.7927  29.4080

     the Fermi energy is    17.8024 ev

!    total energy              =    -429.14645065 Ry
     Harris-Foulkes estimate   =    -429.14645065 Ry
     estimated scf accuracy    <          9.5E-10 Ry

     total all-electron energy =     -3041.578558 Ry

     The total energy is the sum of the following terms:

     one-electron contribution =    -185.14732190 Ry
     hartree contribution      =     104.79908867 Ry
     xc contribution           =     -34.32362191 Ry
     ewald contribution        =    -223.38275369 Ry
     one-center paw contrib.   =     -91.08969372 Ry
     smearing contrib. (-TS)   =      -0.00214810 Ry

     convergence has been achieved in   6 iterations

     Forces acting on atoms (cartesian axes, Ry/au):

     atom    1 type  1   force =     0.00000000    0.00000000    0.00000000

     Total force =     0.000000     Total SCF correction =     0.000000


     Computing stress (Cartesian axis) and pressure

          total   stress  (Ry/bohr**3)                   (kbar)     P=  -29.45
  -0.00020018   0.00000000   0.00000000        -29.45      0.00      0.00
   0.00000000  -0.00020018  -0.00000000          0.00    -29.45     -0.00
   0.00000000  -0.00000000  -0.00020018          0.00     -0.00    -29.45


     Writing output data file Ni.save/

     init_run     :      0.43s CPU      0.45s WALL (       1 calls)
     electrons    :      3.90s CPU      4.17s WALL (       1 calls)
     forces       :      0.04s CPU      0.04s WALL (       1 calls)
     stress       :      0.13s CPU      0.13s WALL (       1 calls)

     Called by init_run:
     wfcinit      :      0.14s CPU      0.15s WALL (       1 calls)
     potinit      :      0.11s CPU      0.13s WALL (       1 calls)
     hinit0       :      0.15s CPU      0.15s WALL (       1 calls)

     Called by electrons:
     c_bands      :      2.83s CPU      2.99s WALL (       7 calls)
     sum_band     :      0.49s CPU      0.52s WALL (       7 calls)
     v_of_rho     :      0.03s CPU      0.03s WALL (       7 calls)
     newd         :      0.04s CPU      0.05s WALL (       7 calls)
     PAW_pot      :      0.62s CPU      0.71s WALL (       7 calls)
     mix_rho      :      0.00s CPU      0.00s WALL (       7 calls)

     Called by c_bands:
     init_us_2    :      0.07s CPU      0.07s WALL (     799 calls)
     cegterg      :      2.72s CPU      2.88s WALL (     329 calls)

     Called by sum_band:
     sum_band:bec :      0.00s CPU      0.00s WALL (     329 calls)
     addusdens    :      0.04s CPU      0.04s WALL (       7 calls)

     Called by *egterg:
     h_psi        :      2.04s CPU      2.16s WALL (    1180 calls)
     s_psi        :      0.06s CPU      0.07s WALL (    1180 calls)
     g_psi        :      0.01s CPU      0.01s WALL (     804 calls)
     cdiaghg      :      0.38s CPU      0.39s WALL (    1086 calls)

     Called by h_psi:
     h_psi:pot    :      2.03s CPU      2.15s WALL (    1180 calls)
     h_psi:calbec :      0.08s CPU      0.09s WALL (    1180 calls)
     vloc_psi     :      1.87s CPU      1.98s WALL (    1180 calls)
     add_vuspsi   :      0.06s CPU      0.07s WALL (    1180 calls)

     General routines
     calbec       :      0.13s CPU      0.14s WALL (    1744 calls)
     fft          :      0.02s CPU      0.02s WALL (     104 calls)
     ffts         :      0.00s CPU      0.00s WALL (       7 calls)
     fftw         :      2.10s CPU      2.22s WALL (   26215 calls)

     Parallel routines
     fft_scatt_xy :      0.17s CPU      0.18s WALL (   26326 calls)
     fft_scatt_yz :      0.51s CPU      0.53s WALL (   26326 calls)

     PWSCF        :     5.28s CPU         5.65s WALL


   This run was terminated on:  22:45:45  26Mar2024            

=------------------------------------------------------------------------------=
   JOB DONE.
=------------------------------------------------------------------------------=
