
     Program PWSCF v.6.3MaX starts on 26Mar2024 at 22:29:19 

     This program is part of the open-source Quantum ESPRESSO suite
     for quantum simulation of materials; please cite
         "P. Giannozzi et al., J. Phys.:Condens. Matter 21 395502 (2009);
         "P. Giannozzi et al., J. Phys.:Condens. Matter 29 465901 (2017);
          URL http://www.quantum-espresso.org", 
     in publications or presentations arising from this work. More details at
     http://www.quantum-espresso.org/quote

     Parallel version (MPI), running on     5 processors

     MPI processes distributed on     1 nodes
     R & G space division:  proc/nbgrp/npool/nimage =       5
     Waiting for input...
     Reading input from standard input

     Current dimensions of program PWSCF are:
     Max number of different atomic species (ntypx) = 10
     Max number of k-points (npk) =  40000
     Max angular momentum in pseudopotentials (lmaxx) =  3

     Subspace diagonalization in iterative solution of the eigenvalue problem:
     a serial algorithm will be used


     Parallelization info
     --------------------
     sticks:   dense  smooth     PW     G-vecs:    dense   smooth      PW
     Min          30      30     12                  248      248      61
     Max          31      31     13                  250      250      62
     Sum         151     151     61                 1243     1243     307



     bravais-lattice index     =            2
     lattice parameter (alat)  =       6.6500  a.u.
     unit-cell volume          =      73.5199 (a.u.)^3
     number of atoms/cell      =            1
     number of atomic types    =            1
     number of electrons       =        18.00
     number of Kohn-Sham states=           13
     kinetic-energy cutoff     =      25.0000  Ry
     charge density cutoff     =     100.0000  Ry
     convergence threshold     =      1.0E-08
     mixing beta               =       0.7000
     number of iterations used =            8  plain     mixing
     Exchange-correlation      = PBESOL ( 1  4 10  8 0 0)

     celldm(1)=   6.650000  celldm(2)=   0.000000  celldm(3)=   0.000000
     celldm(4)=   0.000000  celldm(5)=   0.000000  celldm(6)=   0.000000

     crystal axes: (cart. coord. in units of alat)
               a(1) = (  -0.500000   0.000000   0.500000 )  
               a(2) = (   0.000000   0.500000   0.500000 )  
               a(3) = (  -0.500000   0.500000   0.000000 )  

     reciprocal axes: (cart. coord. in units 2 pi/alat)
               b(1) = ( -1.000000 -1.000000  1.000000 )  
               b(2) = (  1.000000  1.000000  1.000000 )  
               b(3) = ( -1.000000  1.000000 -1.000000 )  


     PseudoPot. # 1 for Ni read from file:
     /home/lorenzo/pseudos/Ni/Ni.pbesol-spn-rrkjus_psl.1.0.0.UPF
     MD5 check sum: 6fc0a587bf949a08f2faed986b854013
     Pseudo is Ultrasoft + core correction, Zval = 18.0
     Generated using "atomic" code by A. Dal Corso v.6.3
     Using radial grid of 1195 points,  6 beta functions with: 
                l(1) =   0
                l(2) =   0
                l(3) =   1
                l(4) =   1
                l(5) =   2
                l(6) =   2
     Q(r) pseudized with 0 coefficients 


     atomic species   valence    mass     pseudopotential
        Ni            18.00    58.69340     Ni( 1.00)

     48 Sym. Ops., with inversion, found



   Cartesian axes

     site n.     atom                  positions (alat units)
         1           Ni  tau(   1) = (   0.0000000   0.0000000   0.0000000  )

     number of k points=    29  gaussian smearing, width (Ry)=  0.0100
                       cart. coord. in units 2pi/alat
        k(    1) = (   0.0000000   0.0000000   0.0000000), wk =   0.0039062
        k(    2) = (  -0.1250000   0.1250000  -0.1250000), wk =   0.0312500
        k(    3) = (  -0.2500000   0.2500000  -0.2500000), wk =   0.0312500
        k(    4) = (  -0.3750000   0.3750000  -0.3750000), wk =   0.0312500
        k(    5) = (   0.5000000  -0.5000000   0.5000000), wk =   0.0156250
        k(    6) = (   0.0000000   0.2500000   0.0000000), wk =   0.0234375
        k(    7) = (  -0.1250000   0.3750000  -0.1250000), wk =   0.0937500
        k(    8) = (  -0.2500000   0.5000000  -0.2500000), wk =   0.0937500
        k(    9) = (   0.6250000  -0.3750000   0.6250000), wk =   0.0937500
        k(   10) = (   0.5000000  -0.2500000   0.5000000), wk =   0.0937500
        k(   11) = (   0.3750000  -0.1250000   0.3750000), wk =   0.0937500
        k(   12) = (   0.2500000   0.0000000   0.2500000), wk =   0.0468750
        k(   13) = (   0.0000000   0.5000000   0.0000000), wk =   0.0234375
        k(   14) = (  -0.1250000   0.6250000  -0.1250000), wk =   0.0937500
        k(   15) = (   0.7500000  -0.2500000   0.7500000), wk =   0.0937500
        k(   16) = (   0.6250000  -0.1250000   0.6250000), wk =   0.0937500
        k(   17) = (   0.5000000   0.0000000   0.5000000), wk =   0.0468750
        k(   18) = (   0.0000000   0.7500000   0.0000000), wk =   0.0234375
        k(   19) = (   0.8750000  -0.1250000   0.8750000), wk =   0.0937500
        k(   20) = (   0.7500000   0.0000000   0.7500000), wk =   0.0468750
        k(   21) = (   0.0000000  -1.0000000   0.0000000), wk =   0.0117188
        k(   22) = (  -0.2500000   0.5000000   0.0000000), wk =   0.0937500
        k(   23) = (   0.6250000  -0.3750000   0.8750000), wk =   0.1875000
        k(   24) = (   0.5000000  -0.2500000   0.7500000), wk =   0.0937500
        k(   25) = (   0.7500000  -0.2500000   1.0000000), wk =   0.0937500
        k(   26) = (   0.6250000  -0.1250000   0.8750000), wk =   0.1875000
        k(   27) = (   0.5000000   0.0000000   0.7500000), wk =   0.0937500
        k(   28) = (  -0.2500000  -1.0000000   0.0000000), wk =   0.0468750
        k(   29) = (  -0.5000000  -1.0000000   0.0000000), wk =   0.0234375

     Dense  grid:     1243 G-vectors     FFT dimensions: (  15,  15,  15)

     Estimated max dynamical RAM per process >       1.95 MB

     Estimated total dynamical RAM >       9.77 MB

     Check: negative/imaginary core charge=   -0.000245    0.000000

     Initial potential from superposition of free atoms
     Check: negative starting charge=   -0.002896

     starting charge   17.99977, renormalised to   18.00000

     negative rho (up, down):  2.896E-03 0.000E+00
     Starting wfcs are   10 randomized atomic wfcs +    3 random wfcs

     total cpu time spent up to now is        0.8 secs

     Self-consistent Calculation

     iteration #  1     ecut=    25.00 Ry     beta= 0.70
     Davidson diagonalization with overlap
     ethr =  1.00E-02,  avg # of iterations =  4.1

     total cpu time spent up to now is        1.1 secs

     total energy              =    -324.04666231 Ry
     Harris-Foulkes estimate   =    -329.72250438 Ry
     estimated scf accuracy    <       7.12165217 Ry

     iteration #  2     ecut=    25.00 Ry     beta= 0.70
     Davidson diagonalization with overlap
     ethr =  1.00E-02,  avg # of iterations =  2.1

     total cpu time spent up to now is        1.2 secs

     total energy              =    -326.27462274 Ry
     Harris-Foulkes estimate   =    -330.71848463 Ry
     estimated scf accuracy    <       9.39011394 Ry

     iteration #  3     ecut=    25.00 Ry     beta= 0.70
     Davidson diagonalization with overlap
     ethr =  1.00E-02,  avg # of iterations =  2.0

     negative rho (up, down):  6.019E-04 0.000E+00

     total cpu time spent up to now is        1.3 secs

     total energy              =    -327.43983869 Ry
     Harris-Foulkes estimate   =    -327.50343958 Ry
     estimated scf accuracy    <       0.10536514 Ry

     iteration #  4     ecut=    25.00 Ry     beta= 0.70
     Davidson diagonalization with overlap
     ethr =  5.85E-04,  avg # of iterations =  2.0

     negative rho (up, down):  1.849E-04 0.000E+00

     total cpu time spent up to now is        1.4 secs

     total energy              =    -327.46183605 Ry
     Harris-Foulkes estimate   =    -327.49536678 Ry
     estimated scf accuracy    <       0.11261175 Ry

     iteration #  5     ecut=    25.00 Ry     beta= 0.70
     Davidson diagonalization with overlap
     ethr =  5.85E-04,  avg # of iterations =  1.1

     total cpu time spent up to now is        1.5 secs

     total energy              =    -327.46649677 Ry
     Harris-Foulkes estimate   =    -327.47054086 Ry
     estimated scf accuracy    <       0.01080556 Ry

     iteration #  6     ecut=    25.00 Ry     beta= 0.70
     Davidson diagonalization with overlap
     ethr =  6.00E-05,  avg # of iterations =  1.2

     total cpu time spent up to now is        1.6 secs

     total energy              =    -327.46788249 Ry
     Harris-Foulkes estimate   =    -327.46789336 Ry
     estimated scf accuracy    <       0.00003579 Ry

     iteration #  7     ecut=    25.00 Ry     beta= 0.70
     Davidson diagonalization with overlap
     ethr =  1.99E-07,  avg # of iterations =  2.2

     total cpu time spent up to now is        1.7 secs

     total energy              =    -327.46788754 Ry
     Harris-Foulkes estimate   =    -327.46788780 Ry
     estimated scf accuracy    <       0.00000123 Ry

     iteration #  8     ecut=    25.00 Ry     beta= 0.70
     Davidson diagonalization with overlap
     ethr =  6.85E-09,  avg # of iterations =  1.0

     total cpu time spent up to now is        1.8 secs

     total energy              =    -327.46788752 Ry
     Harris-Foulkes estimate   =    -327.46788760 Ry
     estimated scf accuracy    <       0.00000021 Ry

     iteration #  9     ecut=    25.00 Ry     beta= 0.70
     Davidson diagonalization with overlap
     ethr =  1.19E-09,  avg # of iterations =  1.6

     total cpu time spent up to now is        1.9 secs

     End of self-consistent calculation

          k = 0.0000 0.0000 0.0000 (   169 PWs)   bands (ev):

   -98.6909 -48.6560 -48.6560 -48.6560   9.9109  12.9574  12.9574  14.2952
    14.2952  14.2952  42.6086  46.0609  46.3338

          k =-0.1250 0.1250-0.1250 (   159 PWs)   bands (ev):

   -98.4323 -46.8569 -46.8569 -45.2478  10.5820  15.0192  15.0192  16.0047
    17.3788  17.3788  38.8055  43.6403  44.2811

          k =-0.2500 0.2500-0.2500 (   150 PWs)   bands (ev):

   -98.2259 -45.0806 -45.0806 -42.4238  12.3459  16.9443  16.9443  18.6883
    19.7490  19.7490  33.8980  42.6327  43.4830

          k =-0.3750 0.3750-0.3750 (   153 PWs)   bands (ev):

   -98.2702 -45.4475 -45.4475 -43.5382  14.6876  16.6248  16.6248  17.4396
    18.9731  18.9731  28.9631  41.5852  43.0877

          k = 0.5000-0.5000 0.5000 (   156 PWs)   bands (ev):

   -98.3107 -46.8331 -44.7270 -44.7270  12.6030  17.2105  17.2105  18.3212
    19.4249  19.4249  22.6647  41.0886  43.4499

          k = 0.0000 0.2500 0.0000 (   161 PWs)   bands (ev):

   -98.4791 -47.5838 -47.5838 -45.2312  10.7020  13.1719  15.5639  16.2985
    16.6464  16.6464  40.2430  41.6374  41.6374

          k =-0.1250 0.3750-0.1250 (   157 PWs)   bands (ev):

   -98.3686 -46.9789 -46.2596 -44.1521  12.0065  15.0621  15.4933  16.8860
    17.6675  18.4033  35.4800  40.0925  40.3594

          k =-0.2500 0.5000-0.2500 (   151 PWs)   bands (ev):

   -98.2191 -45.2431 -44.8560 -42.7939  14.2529  16.0779  17.7047  17.9510
    19.7501  20.0083  30.8377  39.1677  39.8097

          k = 0.6250-0.3750 0.6250 (   157 PWs)   bands (ev):

   -98.3177 -46.5740 -45.1052 -45.0018  13.4926  16.7958  16.9854  17.1371
    18.3658  19.4788  24.7607  37.6718  40.0951

          k = 0.5000-0.2500 0.5000 (   154 PWs)   bands (ev):

   -98.2622 -45.3662 -44.9762 -44.3507  14.4272  16.8972  17.1797  17.4726
    18.5822  19.8687  27.1216  37.0014  42.0957

          k = 0.3750-0.1250 0.3750 (   150 PWs)   bands (ev):

   -98.2049 -45.0064 -44.8627 -42.4169  13.4874  16.2531  17.6212  18.3891
    19.5622  20.8747  32.5362  36.8342  44.1387

          k = 0.2500 0.0000 0.2500 (   157 PWs)   bands (ev):

   -98.3873 -46.5763 -46.2773 -44.7160  11.5156  15.1868  16.0142  16.6391
    17.1112  18.2794  36.7477  38.2772  45.9985

          k = 0.0000 0.5000 0.0000 (   149 PWs)   bands (ev):

   -98.1674 -44.3233 -44.3233 -42.6347  13.0383  16.2141  18.9304  19.2269
    20.1365  20.1365  38.1537  38.1537  38.2363

          k =-0.1250 0.6250-0.1250 (   153 PWs)   bands (ev):

   -98.2235 -45.8446 -45.1308 -42.8713  14.4388  15.8792  16.1830  18.2546
    19.5159  20.3231  33.1710  35.8667  36.8577

          k = 0.7500-0.2500 0.7500 (   154 PWs)   bands (ev):

   -98.2223 -45.9671 -44.2166 -43.9623  14.0497  16.5365  17.8105  18.2256
    19.9862  20.1971  27.7792  33.2340  37.3239

          k = 0.6250-0.1250 0.6250 (   156 PWs)   bands (ev):

   -98.2621 -45.6979 -45.4383 -44.3269  14.7619  16.5852  17.0195  17.1545
    17.8617  22.0242  26.2382  31.9166  38.7376

          k = 0.5000 0.0000 0.5000 (   156 PWs)   bands (ev):

   -98.2955 -46.0312 -44.9741 -44.9622  13.8114  15.9737  16.5559  17.8095
    18.3605  18.5300  31.6064  31.8054  41.4347

          k = 0.0000 0.7500 0.0000 (   154 PWs)   bands (ev):

   -98.2138 -44.8753 -44.8753 -44.2611  15.1530  15.7871  18.1513  18.2445
    19.3836  19.3836  32.3110  35.0862  35.0862

          k = 0.8750-0.1250 0.8750 (   154 PWs)   bands (ev):

   -98.1879 -45.0994 -44.6619 -43.9163  15.1075  16.5929  17.6152  18.4811
    19.5703  21.8689  29.2469  31.2889  34.3664

          k = 0.7500 0.0000 0.7500 (   150 PWs)   bands (ev):

   -98.0911 -44.4401 -43.2190 -43.0719  16.8704  17.2672  18.0250  19.1540
    20.0307  24.8917  26.4668  29.8833  36.0622

          k = 0.0000-1.0000 0.0000 (   150 PWs)   bands (ev):

   -98.1231 -43.7487 -43.7487 -43.6166  15.7620  17.3605  19.2146  20.5612
    20.5612  21.3291  28.1956  33.6922  33.6922

          k =-0.2500 0.5000 0.0000 (   152 PWs)   bands (ev):

   -98.2356 -45.4590 -45.0579 -42.9873  13.5749  16.2088  16.7521  18.6938
    18.8916  19.9649  34.2764  34.7942  40.2390

          k = 0.6250-0.3750 0.8750 (   153 PWs)   bands (ev):

   -98.2257 -44.9338 -44.7823 -44.0483  14.7899  17.0170  17.7099  18.0200
    18.8479  19.4560  29.4709  34.2149  37.4560

          k = 0.5000-0.2500 0.7500 (   164 PWs)   bands (ev):

   -98.4406 -47.9625 -46.6185 -46.4657  13.4861  14.4684  15.0371  15.3763
    16.9749  21.1350  23.8234  33.7888  35.8272

          k = 0.7500-0.2500 1.0000 (   153 PWs)   bands (ev):

   -98.2042 -45.2629 -44.4091 -43.8119  14.4469  16.9137  17.9748  18.9345
    18.9721  20.4136  31.6916  32.2639  33.4288

          k = 0.6250-0.1250 0.8750 (   157 PWs)   bands (ev):

   -98.2746 -46.2775 -45.1880 -44.6823  14.9393  16.3112  16.5010  17.2257
    17.6354  23.0729  27.1717  30.6239  32.9205

          k = 0.5000 0.0000 0.7500 (   156 PWs)   bands (ev):

   -98.2620 -46.2994 -44.9133 -44.3264  14.4540  16.8044  16.8310  17.2105
    18.4798  21.7735  28.2845  30.1710  34.5076

          k =-0.2500-1.0000 0.0000 (   156 PWs)   bands (ev):

   -98.2257 -46.1514 -44.8875 -44.0628  15.1099  16.3236  16.3388  17.6153
    19.7587  22.5456  28.3808  30.6674  32.0349

          k =-0.5000-1.0000 0.0000 (   156 PWs)   bands (ev):

   -98.2643 -45.3292 -45.3292 -44.8120  15.8175  16.3659  16.3659  16.9899
    17.4734  26.9626  26.9626  28.8378  30.4030

     the Fermi energy is    19.5295 ev

!    total energy              =    -327.46788756 Ry
     Harris-Foulkes estimate   =    -327.46788756 Ry
     estimated scf accuracy    <          4.3E-09 Ry

     The total energy is the sum of the following terms:

     one-electron contribution =    -162.97341135 Ry
     hartree contribution      =      91.47961542 Ry
     xc contribution           =     -32.58982754 Ry
     ewald contribution        =    -223.38275373 Ry
     smearing contrib. (-TS)   =      -0.00151035 Ry

     convergence has been achieved in   9 iterations

     Forces acting on atoms (cartesian axes, Ry/au):

     atom    1 type  1   force =     0.00000000    0.00000000    0.00000000

     Total force =     0.000000     Total SCF correction =     0.000000


     Computing stress (Cartesian axis) and pressure

          total   stress  (Ry/bohr**3)                   (kbar)     P=********
  -0.53578803   0.00000000   0.00000000     -78817.13      0.00      0.00
   0.00000000  -0.53578803   0.00000000          0.00 -78817.13      0.00
   0.00000000  -0.00000000  -0.53578803          0.00     -0.00 -78817.13


     Writing output data file Ni.save/

     init_run     :      0.13s CPU      0.13s WALL (       1 calls)
     electrons    :      1.01s CPU      1.11s WALL (       1 calls)
     forces       :      0.01s CPU      0.01s WALL (       1 calls)
     stress       :      0.03s CPU      0.03s WALL (       1 calls)

     Called by init_run:
     wfcinit      :      0.04s CPU      0.05s WALL (       1 calls)
     potinit      :      0.00s CPU      0.00s WALL (       1 calls)
     hinit0       :      0.08s CPU      0.08s WALL (       1 calls)

     Called by electrons:
     c_bands      :      0.88s CPU      0.96s WALL (       9 calls)
     sum_band     :      0.11s CPU      0.13s WALL (       9 calls)
     v_of_rho     :      0.01s CPU      0.01s WALL (      10 calls)
     newd         :      0.01s CPU      0.01s WALL (      10 calls)
     mix_rho      :      0.00s CPU      0.00s WALL (       9 calls)

     Called by c_bands:
     init_us_2    :      0.02s CPU      0.02s WALL (     609 calls)
     cegterg      :      0.85s CPU      0.93s WALL (     261 calls)

     Called by sum_band:
     sum_band:bec :      0.00s CPU      0.00s WALL (     261 calls)
     addusdens    :      0.01s CPU      0.01s WALL (       9 calls)

     Called by *egterg:
     h_psi        :      0.50s CPU      0.55s WALL (     792 calls)
     s_psi        :      0.02s CPU      0.02s WALL (     792 calls)
     g_psi        :      0.00s CPU      0.00s WALL (     502 calls)
     cdiaghg      :      0.25s CPU      0.27s WALL (     763 calls)

     Called by h_psi:
     h_psi:pot    :      0.50s CPU      0.55s WALL (     792 calls)
     h_psi:calbec :      0.03s CPU      0.03s WALL (     792 calls)
     vloc_psi     :      0.45s CPU      0.49s WALL (     792 calls)
     add_vuspsi   :      0.02s CPU      0.02s WALL (     792 calls)

     General routines
     calbec       :      0.04s CPU      0.04s WALL (    1198 calls)
     fft          :      0.01s CPU      0.01s WALL (     136 calls)
     ffts         :      0.00s CPU      0.00s WALL (       9 calls)
     fftw         :      0.47s CPU      0.53s WALL (   20057 calls)

     Parallel routines
     fft_scatt_xy :      0.05s CPU      0.06s WALL (   20202 calls)
     fft_scatt_yz :      0.19s CPU      0.21s WALL (   20202 calls)

     PWSCF        :     1.87s CPU         2.03s WALL


   This run was terminated on:  22:29:21  26Mar2024            

=------------------------------------------------------------------------------=
   JOB DONE.
=------------------------------------------------------------------------------=
