
     Program PWSCF v.6.3MaX starts on 26Mar2024 at 22:19:49 

     This program is part of the open-source Quantum ESPRESSO suite
     for quantum simulation of materials; please cite
         "P. Giannozzi et al., J. Phys.:Condens. Matter 21 395502 (2009);
         "P. Giannozzi et al., J. Phys.:Condens. Matter 29 465901 (2017);
          URL http://www.quantum-espresso.org", 
     in publications or presentations arising from this work. More details at
     http://www.quantum-espresso.org/quote

     Parallel version (MPI), running on     5 processors

     MPI processes distributed on     1 nodes
     R & G space division:  proc/nbgrp/npool/nimage =       5
     Waiting for input...
     Reading input from standard input

     Current dimensions of program PWSCF are:
     Max number of different atomic species (ntypx) = 10
     Max number of k-points (npk) =  40000
     Max angular momentum in pseudopotentials (lmaxx) =  3
               file Ni.pbesol-spn-kjpaw_psl.1.0.0.UPF: wavefunction(s)  3P 3D renormalized

     Subspace diagonalization in iterative solution of the eigenvalue problem:
     a serial algorithm will be used


     Parallelization info
     --------------------
     sticks:   dense  smooth     PW     G-vecs:    dense   smooth      PW
     Min         119     119     37                 1967     1967     337
     Max         119     119     38                 1969     1969     338
     Sum         595     595    187                 9841     9841    1687



     bravais-lattice index     =            2
     lattice parameter (alat)  =       6.6500  a.u.
     unit-cell volume          =      73.5199 (a.u.)^3
     number of atoms/cell      =            1
     number of atomic types    =            1
     number of electrons       =        18.00
     number of Kohn-Sham states=           13
     kinetic-energy cutoff     =     100.0000  Ry
     charge density cutoff     =     400.0000  Ry
     convergence threshold     =      1.0E-08
     mixing beta               =       0.7000
     number of iterations used =            8  plain     mixing
     Exchange-correlation      = SLA PW PSX PSC ( 1  4 10  8 0 0)

     celldm(1)=   6.650000  celldm(2)=   0.000000  celldm(3)=   0.000000
     celldm(4)=   0.000000  celldm(5)=   0.000000  celldm(6)=   0.000000

     crystal axes: (cart. coord. in units of alat)
               a(1) = (  -0.500000   0.000000   0.500000 )  
               a(2) = (   0.000000   0.500000   0.500000 )  
               a(3) = (  -0.500000   0.500000   0.000000 )  

     reciprocal axes: (cart. coord. in units 2 pi/alat)
               b(1) = ( -1.000000 -1.000000  1.000000 )  
               b(2) = (  1.000000  1.000000  1.000000 )  
               b(3) = ( -1.000000  1.000000 -1.000000 )  


     PseudoPot. # 1 for Ni read from file:
     /home/lorenzo/pseudos/Ni/Ni.pbesol-spn-kjpaw_psl.1.0.0.UPF
     MD5 check sum: ef06ee83099c2673f0516457bd731f51
     Pseudo is Projector augmented-wave + core cor, Zval = 18.0
     Generated using "atomic" code by A. Dal Corso v.6.3
     Shape of augmentation charge: PSQ
     Using radial grid of 1195 points,  6 beta functions with: 
                l(1) =   0
                l(2) =   0
                l(3) =   1
                l(4) =   1
                l(5) =   2
                l(6) =   2
     Q(r) pseudized with 0 coefficients 


     atomic species   valence    mass     pseudopotential
        Ni            18.00    58.69340     Ni( 1.00)

     48 Sym. Ops., with inversion, found



   Cartesian axes

     site n.     atom                  positions (alat units)
         1           Ni  tau(   1) = (   0.0000000   0.0000000   0.0000000  )

     number of k points=    10  gaussian smearing, width (Ry)=  0.0100
                       cart. coord. in units 2pi/alat
        k(    1) = (   0.0000000   0.0000000   0.0000000), wk =   0.0160000
        k(    2) = (  -0.2000000   0.2000000  -0.2000000), wk =   0.1280000
        k(    3) = (  -0.4000000   0.4000000  -0.4000000), wk =   0.1280000
        k(    4) = (   0.0000000   0.4000000   0.0000000), wk =   0.0960000
        k(    5) = (  -0.2000000   0.6000000  -0.2000000), wk =   0.3840000
        k(    6) = (   0.6000000  -0.2000000   0.6000000), wk =   0.3840000
        k(    7) = (   0.4000000   0.0000000   0.4000000), wk =   0.1920000
        k(    8) = (   0.0000000   0.8000000   0.0000000), wk =   0.0960000
        k(    9) = (   0.8000000   0.0000000   0.8000000), wk =   0.1920000
        k(   10) = (   0.6000000  -0.2000000   1.0000000), wk =   0.3840000

     Dense  grid:     9841 G-vectors     FFT dimensions: (  30,  30,  30)

     Estimated max dynamical RAM per process >       9.54 MB

     Estimated total dynamical RAM >      47.68 MB

     Check: negative/imaginary core charge=   -0.000004    0.000000

     Initial potential from superposition of free atoms

     starting charge   17.99977, renormalised to   18.00000
     Starting wfcs are   10 randomized atomic wfcs +    3 random wfcs
     Checking if some PAW data can be deallocated... 

     total cpu time spent up to now is        1.1 secs

     Self-consistent Calculation

     iteration #  1     ecut=   100.00 Ry     beta= 0.70
     Davidson diagonalization with overlap
     ethr =  1.00E-02,  avg # of iterations =  4.1

     Threshold (ethr) on eigenvalues was too large:
     Diagonalizing with lowered threshold

     Davidson diagonalization with overlap
     ethr =  1.86E-05,  avg # of iterations =  3.5

     total cpu time spent up to now is        1.6 secs

     total energy              =    -426.56939524 Ry
     Harris-Foulkes estimate   =    -426.57161455 Ry
     estimated scf accuracy    <       0.00335027 Ry

     iteration #  2     ecut=   100.00 Ry     beta= 0.70
     Davidson diagonalization with overlap
     ethr =  1.86E-05,  avg # of iterations =  2.7

     total cpu time spent up to now is        1.8 secs

     total energy              =    -426.56880116 Ry
     Harris-Foulkes estimate   =    -426.57276034 Ry
     estimated scf accuracy    <       0.01028632 Ry

     iteration #  3     ecut=   100.00 Ry     beta= 0.70
     Davidson diagonalization with overlap
     ethr =  1.86E-05,  avg # of iterations =  2.1

     total cpu time spent up to now is        2.1 secs

     total energy              =    -426.57072006 Ry
     Harris-Foulkes estimate   =    -426.57077293 Ry
     estimated scf accuracy    <       0.00015741 Ry

     iteration #  4     ecut=   100.00 Ry     beta= 0.70
     Davidson diagonalization with overlap
     ethr =  8.75E-07,  avg # of iterations =  2.0

     total cpu time spent up to now is        2.3 secs

     total energy              =    -426.57074613 Ry
     Harris-Foulkes estimate   =    -426.57074599 Ry
     estimated scf accuracy    <       0.00000029 Ry

     iteration #  5     ecut=   100.00 Ry     beta= 0.70
     Davidson diagonalization with overlap
     ethr =  1.64E-09,  avg # of iterations =  3.2

     total cpu time spent up to now is        2.7 secs

     total energy              =    -426.57074676 Ry
     Harris-Foulkes estimate   =    -426.57074678 Ry
     estimated scf accuracy    <       0.00000006 Ry

     iteration #  6     ecut=   100.00 Ry     beta= 0.70
     Davidson diagonalization with overlap
     ethr =  3.53E-10,  avg # of iterations =  1.1

     total cpu time spent up to now is        2.9 secs

     End of self-consistent calculation

          k = 0.0000 0.0000 0.0000 (  1243 PWs)   bands (ev):

   -85.0732 -45.4871 -45.4871 -45.4871   8.6053  15.7851  15.7851  15.7851
    16.9109  16.9109  41.2758  45.2013  45.2013

          k =-0.2000 0.2000-0.2000 (  1242 PWs)   bands (ev):

   -85.0613 -45.5651 -45.4982 -45.4982  10.1046  15.4564  15.9973  15.9973
    16.8981  16.8981  34.6561  41.8051  43.3942

          k =-0.4000 0.4000-0.4000 (  1251 PWs)   bands (ev):

   -85.0420 -45.6903 -45.5164 -45.5164  12.8462  15.8020  15.8020  16.2799
    17.5117  17.5117  25.6694  40.0925  42.4097

          k = 0.0000 0.4000 0.0000 (  1251 PWs)   bands (ev):

   -85.0574 -45.5622 -45.5162 -45.5162  10.5789  15.1008  16.3455  16.3603
    16.3603  17.1598  38.5826  38.5827  39.0200

          k =-0.2000 0.6000-0.2000 (  1252 PWs)   bands (ev):

   -85.0406 -45.6531 -45.5452 -45.5363  13.0495  14.7648  15.6939  16.4699
    17.6105  18.0620  29.1945  35.9282  36.7029

          k = 0.6000-0.2000 0.6000 (  1228 PWs)   bands (ev):

   -85.0341 -45.6823 -45.5749 -45.5309  13.9206  15.0573  15.6641  16.2697
    17.4722  20.6373  24.3193  32.8803  38.4897

          k = 0.4000 0.0000 0.4000 (  1241 PWs)   bands (ev):

   -85.0470 -45.6237 -45.5505 -45.5074  12.2425  15.0837  15.7315  16.4347
    16.5521  17.9788  32.0235  32.8648  42.9137

          k = 0.0000 0.8000 0.0000 (  1246 PWs)   bands (ev):

   -85.0317 -45.6798 -45.5632 -45.5632  13.2595  14.0815  17.5747  17.5790
    17.5790  18.1781  29.9530  33.2610  33.2610

          k = 0.8000 0.0000 0.8000 (  1248 PWs)   bands (ev):

   -85.0277 -45.6755 -45.6042 -45.5599  13.8120  14.2221  16.3911  17.2405
    17.6698  22.5702  26.6176  27.6412  33.9993

          k = 0.6000-0.2000 1.0000 (  1231 PWs)   bands (ev):

   -85.0302 -45.6574 -45.6061 -45.5565  14.2136  14.7114  15.2584  16.9286
    17.5732  21.5222  27.7345  29.4006  31.4103

     the Fermi energy is    17.6610 ev

!    total energy              =    -426.57074676 Ry
     Harris-Foulkes estimate   =    -426.57074677 Ry
     estimated scf accuracy    <          8.6E-09 Ry

     total all-electron energy =     -3039.029091 Ry

     The total energy is the sum of the following terms:

     one-electron contribution =    -185.05448328 Ry
     hartree contribution      =     104.65340009 Ry
     xc contribution           =     -33.93740019 Ry
     ewald contribution        =    -223.38275369 Ry
     one-center paw contrib.   =     -88.84637757 Ry
     smearing contrib. (-TS)   =      -0.00313212 Ry

     convergence has been achieved in   6 iterations

     Forces acting on atoms (cartesian axes, Ry/au):

     atom    1 type  1   force =     0.00000000    0.00000000    0.00000000

     Total force =     0.000000     Total SCF correction =     0.000000


     Computing stress (Cartesian axis) and pressure

          total   stress  (Ry/bohr**3)                   (kbar)     P=  -85.53
  -0.00058139   0.00000000   0.00000000        -85.53      0.00      0.00
   0.00000000  -0.00058139  -0.00000000          0.00    -85.53     -0.00
   0.00000000  -0.00000000  -0.00058139          0.00     -0.00    -85.53


     Writing output data file Ni.save/

     init_run     :      0.34s CPU      0.37s WALL (       1 calls)
     electrons    :      1.74s CPU      1.83s WALL (       1 calls)
     forces       :      0.03s CPU      0.04s WALL (       1 calls)
     stress       :      0.11s CPU      0.11s WALL (       1 calls)

     Called by init_run:
     wfcinit      :      0.04s CPU      0.05s WALL (       1 calls)
     potinit      :      0.09s CPU      0.11s WALL (       1 calls)
     hinit0       :      0.18s CPU      0.18s WALL (       1 calls)

     Called by electrons:
     c_bands      :      0.89s CPU      0.92s WALL (       7 calls)
     sum_band     :      0.23s CPU      0.23s WALL (       7 calls)
     v_of_rho     :      0.04s CPU      0.04s WALL (       7 calls)
     newd         :      0.07s CPU      0.08s WALL (       7 calls)
     PAW_pot      :      0.61s CPU      0.67s WALL (       7 calls)
     mix_rho      :      0.00s CPU      0.00s WALL (       7 calls)

     Called by c_bands:
     init_us_2    :      0.03s CPU      0.03s WALL (     170 calls)
     cegterg      :      0.86s CPU      0.88s WALL (      70 calls)

     Called by sum_band:
     sum_band:bec :      0.00s CPU      0.00s WALL (      70 calls)
     addusdens    :      0.07s CPU      0.07s WALL (       7 calls)

     Called by *egterg:
     h_psi        :      0.65s CPU      0.67s WALL (     267 calls)
     s_psi        :      0.02s CPU      0.02s WALL (     267 calls)
     g_psi        :      0.00s CPU      0.00s WALL (     187 calls)
     cdiaghg      :      0.09s CPU      0.09s WALL (     247 calls)

     Called by h_psi:
     h_psi:pot    :      0.65s CPU      0.67s WALL (     267 calls)
     h_psi:calbec :      0.03s CPU      0.03s WALL (     267 calls)
     vloc_psi     :      0.59s CPU      0.61s WALL (     267 calls)
     add_vuspsi   :      0.02s CPU      0.02s WALL (     267 calls)

     General routines
     calbec       :      0.05s CPU      0.05s WALL (     387 calls)
     fft          :      0.02s CPU      0.02s WALL (     104 calls)
     ffts         :      0.00s CPU      0.00s WALL (       7 calls)
     fftw         :      0.66s CPU      0.68s WALL (    5706 calls)

     Parallel routines
     fft_scatt_xy :      0.06s CPU      0.06s WALL (    5817 calls)
     fft_scatt_yz :      0.16s CPU      0.17s WALL (    5817 calls)

     PWSCF        :     2.96s CPU         3.12s WALL


   This run was terminated on:  22:19:52  26Mar2024            

=------------------------------------------------------------------------------=
   JOB DONE.
=------------------------------------------------------------------------------=
