
     Program PWSCF v.6.3MaX starts on 26Mar2024 at 22:25:19 

     This program is part of the open-source Quantum ESPRESSO suite
     for quantum simulation of materials; please cite
         "P. Giannozzi et al., J. Phys.:Condens. Matter 21 395502 (2009);
         "P. Giannozzi et al., J. Phys.:Condens. Matter 29 465901 (2017);
          URL http://www.quantum-espresso.org", 
     in publications or presentations arising from this work. More details at
     http://www.quantum-espresso.org/quote

     Parallel version (MPI), running on     5 processors

     MPI processes distributed on     1 nodes
     R & G space division:  proc/nbgrp/npool/nimage =       5
     Waiting for input...
     Reading input from standard input

     Current dimensions of program PWSCF are:
     Max number of different atomic species (ntypx) = 10
     Max number of k-points (npk) =  40000
     Max angular momentum in pseudopotentials (lmaxx) =  3

     Subspace diagonalization in iterative solution of the eigenvalue problem:
     a serial algorithm will be used


     Parallelization info
     --------------------
     sticks:   dense  smooth     PW     G-vecs:    dense   smooth      PW
     Min          17      17      7                  112      112      33
     Max          19      19      8                  113      113      35
     Sum          91      91     37                  561      561     169



     bravais-lattice index     =            2
     lattice parameter (alat)  =       6.6500  a.u.
     unit-cell volume          =      73.5199 (a.u.)^3
     number of atoms/cell      =            1
     number of atomic types    =            1
     number of electrons       =        18.00
     number of Kohn-Sham states=           13
     kinetic-energy cutoff     =      15.0000  Ry
     charge density cutoff     =      60.0000  Ry
     convergence threshold     =      1.0E-08
     mixing beta               =       0.7000
     number of iterations used =            8  plain     mixing
     Exchange-correlation      = PBESOL ( 1  4 10  8 0 0)

     celldm(1)=   6.650000  celldm(2)=   0.000000  celldm(3)=   0.000000
     celldm(4)=   0.000000  celldm(5)=   0.000000  celldm(6)=   0.000000

     crystal axes: (cart. coord. in units of alat)
               a(1) = (  -0.500000   0.000000   0.500000 )  
               a(2) = (   0.000000   0.500000   0.500000 )  
               a(3) = (  -0.500000   0.500000   0.000000 )  

     reciprocal axes: (cart. coord. in units 2 pi/alat)
               b(1) = ( -1.000000 -1.000000  1.000000 )  
               b(2) = (  1.000000  1.000000  1.000000 )  
               b(3) = ( -1.000000  1.000000 -1.000000 )  


     PseudoPot. # 1 for Ni read from file:
     /home/lorenzo/pseudos/Ni/Ni.pbesol-spn-rrkjus_psl.1.0.0.UPF
     MD5 check sum: 6fc0a587bf949a08f2faed986b854013
     Pseudo is Ultrasoft + core correction, Zval = 18.0
     Generated using "atomic" code by A. Dal Corso v.6.3
     Using radial grid of 1195 points,  6 beta functions with: 
                l(1) =   0
                l(2) =   0
                l(3) =   1
                l(4) =   1
                l(5) =   2
                l(6) =   2
     Q(r) pseudized with 0 coefficients 


     atomic species   valence    mass     pseudopotential
        Ni            18.00    58.69340     Ni( 1.00)

     48 Sym. Ops., with inversion, found



   Cartesian axes

     site n.     atom                  positions (alat units)
         1           Ni  tau(   1) = (   0.0000000   0.0000000   0.0000000  )

     number of k points=    29  gaussian smearing, width (Ry)=  0.0100
                       cart. coord. in units 2pi/alat
        k(    1) = (   0.0000000   0.0000000   0.0000000), wk =   0.0039062
        k(    2) = (  -0.1250000   0.1250000  -0.1250000), wk =   0.0312500
        k(    3) = (  -0.2500000   0.2500000  -0.2500000), wk =   0.0312500
        k(    4) = (  -0.3750000   0.3750000  -0.3750000), wk =   0.0312500
        k(    5) = (   0.5000000  -0.5000000   0.5000000), wk =   0.0156250
        k(    6) = (   0.0000000   0.2500000   0.0000000), wk =   0.0234375
        k(    7) = (  -0.1250000   0.3750000  -0.1250000), wk =   0.0937500
        k(    8) = (  -0.2500000   0.5000000  -0.2500000), wk =   0.0937500
        k(    9) = (   0.6250000  -0.3750000   0.6250000), wk =   0.0937500
        k(   10) = (   0.5000000  -0.2500000   0.5000000), wk =   0.0937500
        k(   11) = (   0.3750000  -0.1250000   0.3750000), wk =   0.0937500
        k(   12) = (   0.2500000   0.0000000   0.2500000), wk =   0.0468750
        k(   13) = (   0.0000000   0.5000000   0.0000000), wk =   0.0234375
        k(   14) = (  -0.1250000   0.6250000  -0.1250000), wk =   0.0937500
        k(   15) = (   0.7500000  -0.2500000   0.7500000), wk =   0.0937500
        k(   16) = (   0.6250000  -0.1250000   0.6250000), wk =   0.0937500
        k(   17) = (   0.5000000   0.0000000   0.5000000), wk =   0.0468750
        k(   18) = (   0.0000000   0.7500000   0.0000000), wk =   0.0234375
        k(   19) = (   0.8750000  -0.1250000   0.8750000), wk =   0.0937500
        k(   20) = (   0.7500000   0.0000000   0.7500000), wk =   0.0468750
        k(   21) = (   0.0000000  -1.0000000   0.0000000), wk =   0.0117188
        k(   22) = (  -0.2500000   0.5000000   0.0000000), wk =   0.0937500
        k(   23) = (   0.6250000  -0.3750000   0.8750000), wk =   0.1875000
        k(   24) = (   0.5000000  -0.2500000   0.7500000), wk =   0.0937500
        k(   25) = (   0.7500000  -0.2500000   1.0000000), wk =   0.0937500
        k(   26) = (   0.6250000  -0.1250000   0.8750000), wk =   0.1875000
        k(   27) = (   0.5000000   0.0000000   0.7500000), wk =   0.0937500
        k(   28) = (  -0.2500000  -1.0000000   0.0000000), wk =   0.0468750
        k(   29) = (  -0.5000000  -1.0000000   0.0000000), wk =   0.0234375

     Dense  grid:      561 G-vectors     FFT dimensions: (  12,  12,  12)

     Estimated max dynamical RAM per process >       1.17 MB

     Estimated total dynamical RAM >       5.85 MB

     Check: negative/imaginary core charge=   -0.001444    0.000000

     Initial potential from superposition of free atoms
     Check: negative starting charge=   -0.123826

     starting charge   17.99977, renormalised to   18.00000

     negative rho (up, down):  1.238E-01 0.000E+00
     Starting wfcs are   10 randomized atomic wfcs +    3 random wfcs

     total cpu time spent up to now is        0.8 secs

     Self-consistent Calculation

     iteration #  1     ecut=    15.00 Ry     beta= 0.70
     Davidson diagonalization with overlap
     ethr =  1.00E-02,  avg # of iterations =  3.4

     total cpu time spent up to now is        1.0 secs

     total energy              =    -271.71213463 Ry
     Harris-Foulkes estimate   =    -309.83321139 Ry
     estimated scf accuracy    <      46.71892830 Ry

     iteration #  2     ecut=    15.00 Ry     beta= 0.70
     Davidson diagonalization with overlap
     ethr =  1.00E-02,  avg # of iterations =  3.2

     negative rho (up, down):  9.677E-04 0.000E+00

     total cpu time spent up to now is        1.2 secs

     total energy              =    -279.59982658 Ry
     Harris-Foulkes estimate   =    -280.46889350 Ry
     estimated scf accuracy    <       2.54158207 Ry

     iteration #  3     ecut=    15.00 Ry     beta= 0.70
     Davidson diagonalization with overlap
     ethr =  1.00E-02,  avg # of iterations =  1.1

     negative rho (up, down):  4.259E-03 0.000E+00

     total cpu time spent up to now is        1.2 secs

     total energy              =    -279.64889497 Ry
     Harris-Foulkes estimate   =    -279.68249906 Ry
     estimated scf accuracy    <       0.16732394 Ry

     iteration #  4     ecut=    15.00 Ry     beta= 0.70
     Davidson diagonalization with overlap
     ethr =  9.30E-04,  avg # of iterations =  1.3

     negative rho (up, down):  4.165E-03 0.000E+00

     total cpu time spent up to now is        1.3 secs

     total energy              =    -279.65252544 Ry
     Harris-Foulkes estimate   =    -279.65268200 Ry
     estimated scf accuracy    <       0.00027140 Ry

     iteration #  5     ecut=    15.00 Ry     beta= 0.70
     Davidson diagonalization with overlap
     ethr =  1.51E-06,  avg # of iterations =  2.6

     negative rho (up, down):  4.190E-03 0.000E+00

     total cpu time spent up to now is        1.4 secs

     total energy              =    -279.65258161 Ry
     Harris-Foulkes estimate   =    -279.65258976 Ry
     estimated scf accuracy    <       0.00000945 Ry

     iteration #  6     ecut=    15.00 Ry     beta= 0.70
     Davidson diagonalization with overlap
     ethr =  5.25E-08,  avg # of iterations =  2.0

     negative rho (up, down):  4.190E-03 0.000E+00

     total cpu time spent up to now is        1.5 secs

     total energy              =    -279.65258310 Ry
     Harris-Foulkes estimate   =    -279.65258317 Ry
     estimated scf accuracy    <       0.00000021 Ry

     iteration #  7     ecut=    15.00 Ry     beta= 0.70
     Davidson diagonalization with overlap
     ethr =  1.18E-09,  avg # of iterations =  2.0

     negative rho (up, down):  4.190E-03 0.000E+00

     total cpu time spent up to now is        1.6 secs

     total energy              =    -279.65258313 Ry
     Harris-Foulkes estimate   =    -279.65258314 Ry
     estimated scf accuracy    <       0.00000002 Ry

     iteration #  8     ecut=    15.00 Ry     beta= 0.70
     Davidson diagonalization with overlap
     ethr =  1.04E-10,  avg # of iterations =  2.0

     negative rho (up, down):  4.190E-03 0.000E+00

     total cpu time spent up to now is        1.7 secs

     End of self-consistent calculation

          k = 0.0000 0.0000 0.0000 (    65 PWs)   bands (ev):

  -161.1595 -44.7994 -44.7994 -44.7994  13.4398  29.1673  29.1673  30.2070
    30.2070  30.2070  48.2107  52.7459  52.7459

          k =-0.1250 0.1250-0.1250 (    62 PWs)   bands (ev):

  -160.1309 -41.8732 -41.8732 -41.7018  14.2468  29.0576  30.3872  30.3872
    32.9397  32.9397  49.4465  50.9084  55.0771

          k =-0.2500 0.2500-0.2500 (    68 PWs)   bands (ev):

  -161.3342 -51.6041 -44.8766 -44.8766  15.9497  25.1301  28.7011  28.7011
    31.1402  31.1402  43.9553  49.9015  55.3696

          k =-0.3750 0.3750-0.3750 (    73 PWs)   bands (ev):

  -162.7157 -58.2448 -49.8425 -49.8425  18.7205  22.0716  22.0716  24.9505
    28.4767  28.4767  36.7768  47.9600  49.3509

          k = 0.5000-0.5000 0.5000 (    76 PWs)   bands (ev):

  -163.5292 -66.2850 -50.6336 -50.6336  19.6125  19.6125  20.1385  23.2231
    27.5572  28.1977  28.1977  48.5566  48.5566

          k = 0.0000 0.2500 0.0000 (    64 PWs)   bands (ev):

  -160.6967 -44.8291 -44.8291 -42.1100  14.2798  29.3242  29.5953  30.1846
    30.1846  30.8133  50.1809  51.3061  53.6004

          k =-0.1250 0.3750-0.1250 (    68 PWs)   bands (ev):

  -161.3395 -54.7907 -45.6563 -42.2966  15.7616  25.3515  26.9434  28.0544
    29.9354  31.8843  44.4295  50.7904  51.8534

          k =-0.2500 0.5000-0.2500 (    71 PWs)   bands (ev):

  -162.0955 -59.2468 -48.9760 -44.0645  18.0950  23.1310  23.6663  26.6162
    29.5109  29.5680  37.9335  49.2454  49.2498

          k = 0.6250-0.3750 0.6250 (    73 PWs)   bands (ev):

  -162.4806 -58.0110 -50.1394 -49.8579  20.4301  21.9486  22.3841  25.8043
    27.5505  28.4748  33.5829  48.1421  48.6692

          k = 0.5000-0.2500 0.5000 (    73 PWs)   bands (ev):

  -162.5777 -58.2980 -50.2461 -49.8650  20.0521  22.1492  22.2069  24.3464
    27.3726  28.6099  35.8335  48.4421  48.9257

          k = 0.3750-0.1250 0.3750 (    70 PWs)   bands (ev):

  -161.7964 -58.1864 -45.6213 -44.6476  17.2216  24.1085  26.2265  26.3573
    28.9059  31.2843  40.2276  49.9184  51.1488

          k = 0.2500 0.0000 0.2500 (    65 PWs)   bands (ev):

  -160.7237 -46.9931 -45.0947 -41.8693  15.1195  27.3858  28.6443  29.7491
    31.2888  31.7226  48.0937  51.3139  54.3285

          k = 0.0000 0.5000 0.0000 (    76 PWs)   bands (ev):

  -163.4568 -61.4336 -52.4031 -52.4031  16.4948  22.1387  22.1387  24.6585
    25.7003  26.6363  44.0994  44.0994  44.7058

          k =-0.1250 0.6250-0.1250 (    75 PWs)   bands (ev):

  -162.9769 -61.4361 -52.0106 -49.4258  18.5829  22.1194  22.3791  24.1586
    25.6435  31.3369  40.0443  42.9997  43.8899

          k = 0.7500-0.2500 0.7500 (    74 PWs)   bands (ev):

  -162.5130 -58.1218 -52.0991 -49.0228  20.8163  22.0027  22.8613  25.7400
    27.1752  30.7311  34.8912  43.6436  44.9874

          k = 0.6250-0.1250 0.6250 (    74 PWs)   bands (ev):

  -162.3135 -54.8479 -51.9185 -51.4963  21.0937  24.0975  24.2119  25.1149
    25.9014  32.0634  34.4614  41.8297  45.9181

          k = 0.5000 0.0000 0.5000 (    75 PWs)   bands (ev):

  -162.9654 -61.2656 -52.7292 -48.9160  19.3543  20.8580  23.9886  25.0527
    25.9792  30.1271  38.3612  41.1986  50.0819

          k = 0.0000 0.7500 0.0000 (    76 PWs)   bands (ev):

  -163.2478 -61.9249 -52.3886 -52.3886  19.9466  22.3629  22.3629  22.7437
    25.3430  26.3712  39.5777  41.8644  41.8644

          k = 0.8750-0.1250 0.8750 (    74 PWs)   bands (ev):

  -162.3347 -54.2346 -52.7969 -51.8505  21.5298  22.8043  24.4637  25.3506
    26.0199  30.5362  34.8798  41.1151  42.0323

          k = 0.7500 0.0000 0.7500 (    71 PWs)   bands (ev):

  -161.4646 -53.4889 -48.6492 -46.8960  23.5735  23.7987  24.1313  25.7402
    31.3231  32.7602  33.1435  43.7214  43.7888

          k = 0.0000-1.0000 0.0000 (    64 PWs)   bands (ev):

  -159.1847 -42.4419 -41.9170 -41.9170  23.3300  25.6418  29.2948  33.6566
    33.6566  36.3530  39.0171  41.4486  41.4486

          k =-0.2500 0.5000 0.0000 (    71 PWs)   bands (ev):

  -161.9883 -58.2554 -48.6653 -44.5656  17.2949  23.7250  25.0136  26.3278
    28.5032  30.1700  41.5194  47.7056  49.9190

          k = 0.6250-0.3750 0.8750 (    72 PWs)   bands (ev):

  -162.0168 -57.6308 -49.8779 -45.7386  19.9470  23.2348  24.4948  26.6545
    28.4902  30.2433  38.1573  44.0134  48.9354

          k = 0.5000-0.2500 0.7500 (    70 PWs)   bands (ev):

  -161.1775 -52.7143 -47.4685 -46.5260  22.0164  23.8546  25.0689  26.2780
    28.4290  34.4684  36.6783  45.8951  48.8555

          k = 0.7500-0.2500 1.0000 (    78 PWs)   bands (ev):

  -163.7182 -62.4967 -55.1688 -54.9938  20.6019  21.1927  21.4335  22.6127
    24.7557  25.9039  37.3094  41.0306  41.0956

          k = 0.6250-0.1250 0.8750 (    74 PWs)   bands (ev):

  -162.3019 -55.9466 -51.7755 -50.6939  21.7694  22.6727  24.0686  25.7219
    26.1570  32.6270  35.0356  40.7880  43.8787

          k = 0.5000 0.0000 0.7500 (    69 PWs)   bands (ev):

  -160.7705 -48.9943 -47.4288 -46.4415  23.0221  24.4747  24.9985  27.7527
    28.2364  35.2225  38.3226  42.1745  49.6079

          k =-0.2500-1.0000 0.0000 (    72 PWs)   bands (ev):

  -161.6677 -53.5274 -49.9989 -47.9902  23.3641  23.4224  23.9834  26.9869
    29.5506  32.1216  35.1372  39.1345  44.0908

          k =-0.5000-1.0000 0.0000 (    68 PWs)   bands (ev):

  -160.4512 -47.2161 -47.2161 -44.5732  25.0473  25.0473  25.1731  27.5320
    29.1883  35.7046  39.5911  39.5911  49.2748

     the Fermi energy is    29.6306 ev

!    total energy              =    -279.65258313 Ry
     Harris-Foulkes estimate   =    -279.65258313 Ry
     estimated scf accuracy    <          1.1E-10 Ry

     The total energy is the sum of the following terms:

     one-electron contribution =     -65.88617498 Ry
     hartree contribution      =      34.76697171 Ry
     xc contribution           =     -25.15007069 Ry
     ewald contribution        =    -223.38275371 Ry
     smearing contrib. (-TS)   =      -0.00055547 Ry

     convergence has been achieved in   8 iterations

     negative rho (up, down):  4.190E-03 0.000E+00

     Forces acting on atoms (cartesian axes, Ry/au):

     atom    1 type  1   force =     0.00000000    0.00000000    0.00000000

     Total force =     0.000000     Total SCF correction =     0.000000


     Computing stress (Cartesian axis) and pressure


     negative rho (up, down):  4.190E-03 0.000E+00
          total   stress  (Ry/bohr**3)                   (kbar)     P=********
  -0.85665090  -0.00000000  -0.00000000    -126017.68     -0.00     -0.00
  -0.00000000  -0.85665090   0.00000000         -0.00-126017.68      0.00
  -0.00000000   0.00000000  -0.85665090         -0.00      0.00-126017.68


     Writing output data file Ni.save/

     init_run     :      0.09s CPU      0.10s WALL (       1 calls)
     electrons    :      0.79s CPU      0.91s WALL (       1 calls)
     forces       :      0.01s CPU      0.01s WALL (       1 calls)
     stress       :      0.03s CPU      0.03s WALL (       1 calls)

     Called by init_run:
     wfcinit      :      0.02s CPU      0.03s WALL (       1 calls)
     potinit      :      0.00s CPU      0.00s WALL (       1 calls)
     hinit0       :      0.06s CPU      0.06s WALL (       1 calls)

     Called by electrons:
     c_bands      :      0.69s CPU      0.80s WALL (       8 calls)
     sum_band     :      0.08s CPU      0.10s WALL (       8 calls)
     v_of_rho     :      0.00s CPU      0.01s WALL (       9 calls)
     newd         :      0.01s CPU      0.01s WALL (       9 calls)
     mix_rho      :      0.00s CPU      0.00s WALL (       8 calls)

     Called by c_bands:
     init_us_2    :      0.01s CPU      0.01s WALL (     551 calls)
     cegterg      :      0.68s CPU      0.78s WALL (     232 calls)

     Called by sum_band:
     sum_band:bec :      0.00s CPU      0.00s WALL (     232 calls)
     addusdens    :      0.01s CPU      0.01s WALL (       8 calls)

     Called by *egterg:
     h_psi        :      0.34s CPU      0.40s WALL (     771 calls)
     s_psi        :      0.01s CPU      0.01s WALL (     771 calls)
     g_psi        :      0.00s CPU      0.00s WALL (     510 calls)
     cdiaghg      :      0.26s CPU      0.29s WALL (     742 calls)

     Called by h_psi:
     h_psi:pot    :      0.34s CPU      0.40s WALL (     771 calls)
     h_psi:calbec :      0.02s CPU      0.02s WALL (     771 calls)
     vloc_psi     :      0.31s CPU      0.36s WALL (     771 calls)
     add_vuspsi   :      0.01s CPU      0.01s WALL (     771 calls)

     General routines
     calbec       :      0.03s CPU      0.03s WALL (    1148 calls)
     fft          :      0.00s CPU      0.00s WALL (     125 calls)
     ffts         :      0.00s CPU      0.00s WALL (       8 calls)
     fftw         :      0.33s CPU      0.39s WALL (   19158 calls)

     Parallel routines
     fft_scatt_xy :      0.04s CPU      0.04s WALL (   19291 calls)
     fft_scatt_yz :      0.16s CPU      0.18s WALL (   19291 calls)

     PWSCF        :     1.66s CPU         1.84s WALL


   This run was terminated on:  22:25:21  26Mar2024            

=------------------------------------------------------------------------------=
   JOB DONE.
=------------------------------------------------------------------------------=
