
     Program PWSCF v.6.3MaX starts on 26Mar2024 at 22:49:49 

     This program is part of the open-source Quantum ESPRESSO suite
     for quantum simulation of materials; please cite
         "P. Giannozzi et al., J. Phys.:Condens. Matter 21 395502 (2009);
         "P. Giannozzi et al., J. Phys.:Condens. Matter 29 465901 (2017);
          URL http://www.quantum-espresso.org", 
     in publications or presentations arising from this work. More details at
     http://www.quantum-espresso.org/quote

     Parallel version (MPI), running on     5 processors

     MPI processes distributed on     1 nodes
     R & G space division:  proc/nbgrp/npool/nimage =       5
     Waiting for input...
     Reading input from standard input

     Current dimensions of program PWSCF are:
     Max number of different atomic species (ntypx) = 10
     Max number of k-points (npk) =  40000
     Max angular momentum in pseudopotentials (lmaxx) =  3

     Subspace diagonalization in iterative solution of the eigenvalue problem:
     a serial algorithm will be used


     Parallelization info
     --------------------
     sticks:   dense  smooth     PW     G-vecs:    dense   smooth      PW
     Min          85      85     27                 1163     1163     213
     Max          87      87     28                 1164     1164     214
     Sum         433     433    139                 5817     5817    1067



     bravais-lattice index     =            2
     lattice parameter (alat)  =       6.6500  a.u.
     unit-cell volume          =      73.5199 (a.u.)^3
     number of atoms/cell      =            1
     number of atomic types    =            1
     number of electrons       =        18.00
     number of Kohn-Sham states=           13
     kinetic-energy cutoff     =      70.0000  Ry
     charge density cutoff     =     280.0000  Ry
     convergence threshold     =      1.0E-08
     mixing beta               =       0.7000
     number of iterations used =            8  plain     mixing
     Exchange-correlation      = PBE ( 1  4  3  4 0 0)

     celldm(1)=   6.650000  celldm(2)=   0.000000  celldm(3)=   0.000000
     celldm(4)=   0.000000  celldm(5)=   0.000000  celldm(6)=   0.000000

     crystal axes: (cart. coord. in units of alat)
               a(1) = (  -0.500000   0.000000   0.500000 )  
               a(2) = (   0.000000   0.500000   0.500000 )  
               a(3) = (  -0.500000   0.500000   0.000000 )  

     reciprocal axes: (cart. coord. in units 2 pi/alat)
               b(1) = ( -1.000000 -1.000000  1.000000 )  
               b(2) = (  1.000000  1.000000  1.000000 )  
               b(3) = ( -1.000000  1.000000 -1.000000 )  


     PseudoPot. # 1 for Ni read from file:
     /home/lorenzo/pseudos/Ni/Ni.pbe-spn-rrkjus_psl.1.0.0.UPF
     MD5 check sum: 8b3fc9aac6dafe35f580d41bb18c3945
     Pseudo is Ultrasoft + core correction, Zval = 18.0
     Generated using "atomic" code by A. Dal Corso v.6.3
     Using radial grid of 1195 points,  6 beta functions with: 
                l(1) =   0
                l(2) =   0
                l(3) =   1
                l(4) =   1
                l(5) =   2
                l(6) =   2
     Q(r) pseudized with 0 coefficients 


     atomic species   valence    mass     pseudopotential
        Ni            18.00    58.69340     Ni( 1.00)

     48 Sym. Ops., with inversion, found



   Cartesian axes

     site n.     atom                  positions (alat units)
         1           Ni  tau(   1) = (   0.0000000   0.0000000   0.0000000  )

     number of k points=    10  gaussian smearing, width (Ry)=  0.0100
                       cart. coord. in units 2pi/alat
        k(    1) = (   0.0000000   0.0000000   0.0000000), wk =   0.0160000
        k(    2) = (  -0.2000000   0.2000000  -0.2000000), wk =   0.1280000
        k(    3) = (  -0.4000000   0.4000000  -0.4000000), wk =   0.1280000
        k(    4) = (   0.0000000   0.4000000   0.0000000), wk =   0.0960000
        k(    5) = (  -0.2000000   0.6000000  -0.2000000), wk =   0.3840000
        k(    6) = (   0.6000000  -0.2000000   0.6000000), wk =   0.3840000
        k(    7) = (   0.4000000   0.0000000   0.4000000), wk =   0.1920000
        k(    8) = (   0.0000000   0.8000000   0.0000000), wk =   0.0960000
        k(    9) = (   0.8000000   0.0000000   0.8000000), wk =   0.1920000
        k(   10) = (   0.6000000  -0.2000000   1.0000000), wk =   0.3840000

     Dense  grid:     5817 G-vectors     FFT dimensions: (  25,  25,  25)

     Estimated max dynamical RAM per process >       6.05 MB

     Estimated total dynamical RAM >      30.23 MB

     Check: negative/imaginary core charge=   -0.000011    0.000000

     Initial potential from superposition of free atoms

     starting charge   17.99975, renormalised to   18.00000
     Starting wfcs are   10 randomized atomic wfcs +    3 random wfcs

     total cpu time spent up to now is        0.9 secs

     Self-consistent Calculation

     iteration #  1     ecut=    70.00 Ry     beta= 0.70
     Davidson diagonalization with overlap
     ethr =  1.00E-02,  avg # of iterations =  4.1

     Threshold (ethr) on eigenvalues was too large:
     Diagonalizing with lowered threshold

     Davidson diagonalization with overlap
     ethr =  3.00E-05,  avg # of iterations =  2.3

     total cpu time spent up to now is        1.2 secs

     total energy              =    -339.58637426 Ry
     Harris-Foulkes estimate   =    -339.59005861 Ry
     estimated scf accuracy    <       0.00551907 Ry

     iteration #  2     ecut=    70.00 Ry     beta= 0.70
     Davidson diagonalization with overlap
     ethr =  3.07E-05,  avg # of iterations =  3.0

     total cpu time spent up to now is        1.3 secs

     total energy              =    -339.58547222 Ry
     Harris-Foulkes estimate   =    -339.59303788 Ry
     estimated scf accuracy    <       0.02068948 Ry

     iteration #  3     ecut=    70.00 Ry     beta= 0.70
     Davidson diagonalization with overlap
     ethr =  3.07E-05,  avg # of iterations =  2.1

     total cpu time spent up to now is        1.4 secs

     total energy              =    -339.58901767 Ry
     Harris-Foulkes estimate   =    -339.58904081 Ry
     estimated scf accuracy    <       0.00010457 Ry

     iteration #  4     ecut=    70.00 Ry     beta= 0.70
     Davidson diagonalization with overlap
     ethr =  5.81E-07,  avg # of iterations =  2.5

     total cpu time spent up to now is        1.5 secs

     total energy              =    -339.58903974 Ry
     Harris-Foulkes estimate   =    -339.58903964 Ry
     estimated scf accuracy    <       0.00000050 Ry

     iteration #  5     ecut=    70.00 Ry     beta= 0.70
     Davidson diagonalization with overlap
     ethr =  2.77E-09,  avg # of iterations =  2.4

     total cpu time spent up to now is        1.6 secs

     total energy              =    -339.58903990 Ry
     Harris-Foulkes estimate   =    -339.58903992 Ry
     estimated scf accuracy    <       0.00000006 Ry

     iteration #  6     ecut=    70.00 Ry     beta= 0.70
     Davidson diagonalization with overlap
     ethr =  3.26E-10,  avg # of iterations =  2.0

     total cpu time spent up to now is        1.7 secs

     End of self-consistent calculation

          k = 0.0000 0.0000 0.0000 (   725 PWs)   bands (ev):

   -85.2005 -45.4586 -45.4586 -45.4586   8.8298  15.9811  15.9811  15.9811
    17.0927  17.0927  41.4887  45.4418  45.4418

          k =-0.2000 0.2000-0.2000 (   718 PWs)   bands (ev):

   -85.1886 -45.5356 -45.4697 -45.4697  10.3293  15.6548  16.1913  16.1913
    17.0816  17.0816  34.8800  42.0174  43.6368

          k =-0.4000 0.4000-0.4000 (   739 PWs)   bands (ev):

   -85.1701 -45.6593 -45.4881 -45.4881  13.0617  15.9921  15.9921  16.4936
    17.6955  17.6955  25.8842  40.3016  42.6623

          k = 0.0000 0.4000 0.0000 (   721 PWs)   bands (ev):

   -85.1848 -45.5331 -45.4872 -45.4872  10.8027  15.2995  16.5310  16.5546
    16.5546  17.3407  38.8237  38.8237  39.2336

          k =-0.2000 0.6000-0.2000 (   725 PWs)   bands (ev):

   -85.1683 -45.6226 -45.5161 -45.5072  13.2658  14.9656  15.8882  16.6594
    17.7929  18.2564  29.4167  36.1470  36.9455

          k = 0.6000-0.2000 0.6000 (   721 PWs)   bands (ev):

   -85.1620 -45.6512 -45.5452 -45.5021  14.1293  15.2516  15.8657  16.4574
    17.6582  20.8416  24.5341  33.1040  38.7332

          k = 0.4000 0.0000 0.4000 (   728 PWs)   bands (ev):

   -85.1747 -45.5938 -45.5211 -45.4791  12.4648  15.2837  15.9231  16.6182
    16.7455  18.1653  32.2450  33.0904  43.1401

          k = 0.0000 0.8000 0.0000 (   729 PWs)   bands (ev):

   -85.1598 -45.6490 -45.5338 -45.5338  13.4622  14.2835  17.7527  17.7673
    17.7673  18.3960  30.1658  33.5045  33.5045

          k = 0.8000 0.0000 0.8000 (   728 PWs)   bands (ev):

   -85.1559 -45.6444 -45.5743 -45.5306  14.0096  14.4245  16.5904  17.4208
    17.8575  22.7882  26.8288  27.8647  34.2425

          k = 0.6000-0.2000 1.0000 (   737 PWs)   bands (ev):

   -85.1585 -45.6268 -45.5764 -45.5276  14.4124  14.9127  15.4593  17.1109
    17.7615  21.7299  27.9558  29.6200  31.6378

     the Fermi energy is    17.8464 ev

!    total energy              =    -339.58903991 Ry
     Harris-Foulkes estimate   =    -339.58903991 Ry
     estimated scf accuracy    <          3.9E-10 Ry

     The total energy is the sum of the following terms:

     one-electron contribution =    -186.75430124 Ry
     hartree contribution      =     104.88611416 Ry
     xc contribution           =     -34.33497181 Ry
     ewald contribution        =    -223.38275369 Ry
     smearing contrib. (-TS)   =      -0.00312733 Ry

     convergence has been achieved in   6 iterations

     Forces acting on atoms (cartesian axes, Ry/au):

     atom    1 type  1   force =     0.00000000    0.00000000    0.00000000

     Total force =     0.000000     Total SCF correction =     0.000000


     Computing stress (Cartesian axis) and pressure

          total   stress  (Ry/bohr**3)                   (kbar)     P=  -23.21
  -0.00015778   0.00000000   0.00000000        -23.21      0.00      0.00
   0.00000000  -0.00015778   0.00000000          0.00    -23.21      0.00
   0.00000000   0.00000000  -0.00015778          0.00      0.00    -23.21


     Writing output data file Ni.save/

     init_run     :      0.19s CPU      0.20s WALL (       1 calls)
     electrons    :      0.81s CPU      0.84s WALL (       1 calls)
     forces       :      0.03s CPU      0.03s WALL (       1 calls)
     stress       :      0.08s CPU      0.08s WALL (       1 calls)

     Called by init_run:
     wfcinit      :      0.04s CPU      0.04s WALL (       1 calls)
     potinit      :      0.01s CPU      0.01s WALL (       1 calls)
     hinit0       :      0.14s CPU      0.14s WALL (       1 calls)

     Called by electrons:
     c_bands      :      0.60s CPU      0.63s WALL (       7 calls)
     sum_band     :      0.15s CPU      0.15s WALL (       7 calls)
     v_of_rho     :      0.02s CPU      0.02s WALL (       7 calls)
     newd         :      0.04s CPU      0.04s WALL (       7 calls)
     mix_rho      :      0.00s CPU      0.00s WALL (       7 calls)

     Called by c_bands:
     init_us_2    :      0.02s CPU      0.02s WALL (     170 calls)
     cegterg      :      0.58s CPU      0.61s WALL (      70 calls)

     Called by sum_band:
     sum_band:bec :      0.00s CPU      0.00s WALL (      70 calls)
     addusdens    :      0.04s CPU      0.04s WALL (       7 calls)

     Called by *egterg:
     h_psi        :      0.43s CPU      0.46s WALL (     264 calls)
     s_psi        :      0.01s CPU      0.01s WALL (     264 calls)
     g_psi        :      0.00s CPU      0.00s WALL (     184 calls)
     cdiaghg      :      0.08s CPU      0.09s WALL (     244 calls)

     Called by h_psi:
     h_psi:pot    :      0.43s CPU      0.45s WALL (     264 calls)
     h_psi:calbec :      0.02s CPU      0.02s WALL (     264 calls)
     vloc_psi     :      0.40s CPU      0.42s WALL (     264 calls)
     add_vuspsi   :      0.01s CPU      0.01s WALL (     264 calls)

     General routines
     calbec       :      0.03s CPU      0.03s WALL (     384 calls)
     fft          :      0.02s CPU      0.02s WALL (     104 calls)
     ffts         :      0.00s CPU      0.00s WALL (       7 calls)
     fftw         :      0.45s CPU      0.47s WALL (    5698 calls)

     Parallel routines
     fft_scatt_xy :      0.04s CPU      0.04s WALL (    5809 calls)
     fft_scatt_yz :      0.12s CPU      0.13s WALL (    5809 calls)

     PWSCF        :     1.83s CPU         1.90s WALL


   This run was terminated on:  22:49:51  26Mar2024            

=------------------------------------------------------------------------------=
   JOB DONE.
=------------------------------------------------------------------------------=
