
     Program PWSCF v.6.3MaX starts on 26Mar2024 at 23: 2: 4 

     This program is part of the open-source Quantum ESPRESSO suite
     for quantum simulation of materials; please cite
         "P. Giannozzi et al., J. Phys.:Condens. Matter 21 395502 (2009);
         "P. Giannozzi et al., J. Phys.:Condens. Matter 29 465901 (2017);
          URL http://www.quantum-espresso.org", 
     in publications or presentations arising from this work. More details at
     http://www.quantum-espresso.org/quote

     Parallel version (MPI), running on     5 processors

     MPI processes distributed on     1 nodes
     R & G space division:  proc/nbgrp/npool/nimage =       5
     Waiting for input...
     Reading input from standard input

     Current dimensions of program PWSCF are:
     Max number of different atomic species (ntypx) = 10
     Max number of k-points (npk) =  40000
     Max angular momentum in pseudopotentials (lmaxx) =  3

     Subspace diagonalization in iterative solution of the eigenvalue problem:
     a serial algorithm will be used


     Parallelization info
     --------------------
     sticks:   dense  smooth     PW     G-vecs:    dense   smooth      PW
     Min         111     111     32                 1688     1688     290
     Max         112     112     33                 1689     1689     293
     Sum         559     559    163                 8441     8441    1459



     bravais-lattice index     =            2
     lattice parameter (alat)  =       6.6500  a.u.
     unit-cell volume          =      73.5199 (a.u.)^3
     number of atoms/cell      =            1
     number of atomic types    =            1
     number of electrons       =        18.00
     number of Kohn-Sham states=           13
     kinetic-energy cutoff     =      90.0000  Ry
     charge density cutoff     =     360.0000  Ry
     convergence threshold     =      1.0E-08
     mixing beta               =       0.7000
     number of iterations used =            8  plain     mixing
     Exchange-correlation      = PBE ( 1  4  3  4 0 0)

     celldm(1)=   6.650000  celldm(2)=   0.000000  celldm(3)=   0.000000
     celldm(4)=   0.000000  celldm(5)=   0.000000  celldm(6)=   0.000000

     crystal axes: (cart. coord. in units of alat)
               a(1) = (  -0.500000   0.000000   0.500000 )  
               a(2) = (   0.000000   0.500000   0.500000 )  
               a(3) = (  -0.500000   0.500000   0.000000 )  

     reciprocal axes: (cart. coord. in units 2 pi/alat)
               b(1) = ( -1.000000 -1.000000  1.000000 )  
               b(2) = (  1.000000  1.000000  1.000000 )  
               b(3) = ( -1.000000  1.000000 -1.000000 )  


     PseudoPot. # 1 for Ni read from file:
     /home/lorenzo/pseudos/Ni/Ni.pbe-spn-rrkjus_psl.1.0.0.UPF
     MD5 check sum: 8b3fc9aac6dafe35f580d41bb18c3945
     Pseudo is Ultrasoft + core correction, Zval = 18.0
     Generated using "atomic" code by A. Dal Corso v.6.3
     Using radial grid of 1195 points,  6 beta functions with: 
                l(1) =   0
                l(2) =   0
                l(3) =   1
                l(4) =   1
                l(5) =   2
                l(6) =   2
     Q(r) pseudized with 0 coefficients 


     atomic species   valence    mass     pseudopotential
        Ni            18.00    58.69340     Ni( 1.00)

     48 Sym. Ops., with inversion, found



   Cartesian axes

     site n.     atom                  positions (alat units)
         1           Ni  tau(   1) = (   0.0000000   0.0000000   0.0000000  )

     number of k points=     8  gaussian smearing, width (Ry)=  0.0100
                       cart. coord. in units 2pi/alat
        k(    1) = (   0.0000000   0.0000000   0.0000000), wk =   0.0312500
        k(    2) = (  -0.2500000   0.2500000  -0.2500000), wk =   0.2500000
        k(    3) = (   0.5000000  -0.5000000   0.5000000), wk =   0.1250000
        k(    4) = (   0.0000000   0.5000000   0.0000000), wk =   0.1875000
        k(    5) = (   0.7500000  -0.2500000   0.7500000), wk =   0.7500000
        k(    6) = (   0.5000000   0.0000000   0.5000000), wk =   0.3750000
        k(    7) = (   0.0000000  -1.0000000   0.0000000), wk =   0.0937500
        k(    8) = (  -0.5000000  -1.0000000   0.0000000), wk =   0.1875000

     Dense  grid:     8441 G-vectors     FFT dimensions: (  30,  30,  30)

     Estimated max dynamical RAM per process >       8.30 MB

     Estimated total dynamical RAM >      41.49 MB

     Check: negative/imaginary core charge=   -0.000002    0.000000

     Initial potential from superposition of free atoms

     starting charge   17.99975, renormalised to   18.00000
     Starting wfcs are   10 randomized atomic wfcs +    3 random wfcs

     total cpu time spent up to now is        0.9 secs

     Self-consistent Calculation

     iteration #  1     ecut=    90.00 Ry     beta= 0.70
     Davidson diagonalization with overlap
     ethr =  1.00E-02,  avg # of iterations =  3.9

     Threshold (ethr) on eigenvalues was too large:
     Diagonalizing with lowered threshold

     Davidson diagonalization with overlap
     ethr =  1.64E-05,  avg # of iterations =  3.1

     total cpu time spent up to now is        1.2 secs

     total energy              =    -339.60982600 Ry
     Harris-Foulkes estimate   =    -339.61117420 Ry
     estimated scf accuracy    <       0.00295753 Ry

     iteration #  2     ecut=    90.00 Ry     beta= 0.70
     Davidson diagonalization with overlap
     ethr =  1.64E-05,  avg # of iterations =  2.2

     total cpu time spent up to now is        1.4 secs

     total energy              =    -339.60931814 Ry
     Harris-Foulkes estimate   =    -339.61195579 Ry
     estimated scf accuracy    <       0.00659220 Ry

     iteration #  3     ecut=    90.00 Ry     beta= 0.70
     Davidson diagonalization with overlap
     ethr =  1.64E-05,  avg # of iterations =  2.2

     total cpu time spent up to now is        1.5 secs

     total energy              =    -339.61062145 Ry
     Harris-Foulkes estimate   =    -339.61070064 Ry
     estimated scf accuracy    <       0.00027731 Ry

     iteration #  4     ecut=    90.00 Ry     beta= 0.70
     Davidson diagonalization with overlap
     ethr =  1.54E-06,  avg # of iterations =  1.4

     total cpu time spent up to now is        1.7 secs

     total energy              =    -339.61066068 Ry
     Harris-Foulkes estimate   =    -339.61066038 Ry
     estimated scf accuracy    <       0.00000055 Ry

     iteration #  5     ecut=    90.00 Ry     beta= 0.70
     Davidson diagonalization with overlap
     ethr =  3.05E-09,  avg # of iterations =  3.2

     total cpu time spent up to now is        1.8 secs

     total energy              =    -339.61066178 Ry
     Harris-Foulkes estimate   =    -339.61066183 Ry
     estimated scf accuracy    <       0.00000012 Ry

     iteration #  6     ecut=    90.00 Ry     beta= 0.70
     Davidson diagonalization with overlap
     ethr =  6.48E-10,  avg # of iterations =  1.0

     total cpu time spent up to now is        1.9 secs

     total energy              =    -339.61066178 Ry
     Harris-Foulkes estimate   =    -339.61066178 Ry
     estimated scf accuracy    <       0.00000001 Ry

     iteration #  7     ecut=    90.00 Ry     beta= 0.70
     Davidson diagonalization with overlap
     ethr =  6.39E-11,  avg # of iterations =  2.2

     total cpu time spent up to now is        2.1 secs

     End of self-consistent calculation

          k = 0.0000 0.0000 0.0000 (  1067 PWs)   bands (ev):

   -85.3690 -45.6317 -45.6317 -45.6317   8.8187  15.8398  15.8398  15.8398
    16.9510  16.9510  41.4847  45.4335  45.4335

          k =-0.2500 0.2500-0.2500 (  1065 PWs)   bands (ev):

   -85.3522 -45.7426 -45.6475 -45.6475  11.0689  15.4626  16.0459  16.0459
    17.0449  17.0449  32.3389  41.5917  43.2214

          k = 0.5000-0.5000 0.5000 (  1068 PWs)   bands (ev):

   -85.3353 -45.8524 -45.6634 -45.6634  13.2576  15.7990  15.7990  17.5423
    17.6861  17.6861  23.7395  39.9955  42.5607

          k = 0.0000 0.5000 0.0000 (  1062 PWs)   bands (ev):

   -85.3466 -45.7382 -45.6727 -45.6727  11.7327  14.8803  16.2947  16.6990
    16.6990  17.3083  37.1295  37.1295  37.9002

          k = 0.7500-0.2500 0.7500 (  1064 PWs)   bands (ev):

   -85.3297 -45.8150 -45.7205 -45.6888  14.0043  14.6874  15.8076  16.6794
    17.7390  20.3023  26.4209  32.4704  36.0475

          k = 0.5000 0.0000 0.5000 (  1065 PWs)   bands (ev):

   -85.3353 -45.7896 -45.7252 -45.6637  13.7381  15.1390  15.4115  16.4986
    16.9172  19.1406  29.4731  30.8167  40.7857

          k = 0.0000-1.0000 0.0000 (  1034 PWs)   bands (ev):

   -85.3242 -45.8396 -45.7135 -45.7135  13.4191  14.0018  17.6773  17.8664
    17.8664  20.2859  27.2102  32.6836  32.6836

          k =-0.5000-1.0000 0.0000 (  1048 PWs)   bands (ev):

   -85.3241 -45.7770 -45.7770 -45.7154  14.3290  15.1262  15.1262  16.8704
    17.8675  25.6904  25.6904  27.9302  29.0032

     the Fermi energy is    17.7841 ev

!    total energy              =    -339.61066178 Ry
     Harris-Foulkes estimate   =    -339.61066178 Ry
     estimated scf accuracy    <          8.6E-10 Ry

     The total energy is the sum of the following terms:

     one-electron contribution =    -186.61009269 Ry
     hartree contribution      =     104.70420100 Ry
     xc contribution           =     -34.31881286 Ry
     ewald contribution        =    -223.38275369 Ry
     smearing contrib. (-TS)   =      -0.00320354 Ry

     convergence has been achieved in   7 iterations

     Forces acting on atoms (cartesian axes, Ry/au):

     atom    1 type  1   force =     0.00000000    0.00000000    0.00000000

     Total force =     0.000000     Total SCF correction =     0.000000


     Computing stress (Cartesian axis) and pressure

          total   stress  (Ry/bohr**3)                   (kbar)     P=  -54.68
  -0.00037172   0.00000000   0.00000000        -54.68      0.00      0.00
   0.00000000  -0.00037172  -0.00000000          0.00    -54.68     -0.00
   0.00000000  -0.00000000  -0.00037172          0.00     -0.00    -54.68


     Writing output data file Ni.save/

     init_run     :      0.23s CPU      0.24s WALL (       1 calls)
     electrons    :      1.11s CPU      1.15s WALL (       1 calls)
     forces       :      0.03s CPU      0.03s WALL (       1 calls)
     stress       :      0.11s CPU      0.11s WALL (       1 calls)

     Called by init_run:
     wfcinit      :      0.03s CPU      0.03s WALL (       1 calls)
     potinit      :      0.01s CPU      0.01s WALL (       1 calls)
     hinit0       :      0.18s CPU      0.18s WALL (       1 calls)

     Called by electrons:
     c_bands      :      0.78s CPU      0.82s WALL (       8 calls)
     sum_band     :      0.22s CPU      0.23s WALL (       8 calls)
     v_of_rho     :      0.04s CPU      0.05s WALL (       8 calls)
     newd         :      0.07s CPU      0.07s WALL (       8 calls)
     mix_rho      :      0.00s CPU      0.00s WALL (       8 calls)

     Called by c_bands:
     init_us_2    :      0.02s CPU      0.02s WALL (     152 calls)
     cegterg      :      0.75s CPU      0.79s WALL (      64 calls)

     Called by sum_band:
     sum_band:bec :      0.00s CPU      0.00s WALL (      64 calls)
     addusdens    :      0.06s CPU      0.07s WALL (       8 calls)

     Called by *egterg:
     h_psi        :      0.57s CPU      0.60s WALL (     227 calls)
     s_psi        :      0.02s CPU      0.02s WALL (     227 calls)
     g_psi        :      0.00s CPU      0.00s WALL (     155 calls)
     cdiaghg      :      0.07s CPU      0.08s WALL (     211 calls)

     Called by h_psi:
     h_psi:pot    :      0.57s CPU      0.60s WALL (     227 calls)
     h_psi:calbec :      0.03s CPU      0.03s WALL (     227 calls)
     vloc_psi     :      0.52s CPU      0.55s WALL (     227 calls)
     add_vuspsi   :      0.02s CPU      0.02s WALL (     227 calls)

     General routines
     calbec       :      0.05s CPU      0.05s WALL (     331 calls)
     fft          :      0.04s CPU      0.04s WALL (     115 calls)
     ffts         :      0.00s CPU      0.00s WALL (       8 calls)
     fftw         :      0.60s CPU      0.63s WALL (    5080 calls)

     Parallel routines
     fft_scatt_xy :      0.05s CPU      0.05s WALL (    5203 calls)
     fft_scatt_yz :      0.20s CPU      0.21s WALL (    5203 calls)

     PWSCF        :     2.17s CPU         2.26s WALL


   This run was terminated on:  23: 2: 6  26Mar2024            

=------------------------------------------------------------------------------=
   JOB DONE.
=------------------------------------------------------------------------------=
