
     Program PWSCF v.6.3MaX starts on 26Mar2024 at 22:50:38 

     This program is part of the open-source Quantum ESPRESSO suite
     for quantum simulation of materials; please cite
         "P. Giannozzi et al., J. Phys.:Condens. Matter 21 395502 (2009);
         "P. Giannozzi et al., J. Phys.:Condens. Matter 29 465901 (2017);
          URL http://www.quantum-espresso.org", 
     in publications or presentations arising from this work. More details at
     http://www.quantum-espresso.org/quote

     Parallel version (MPI), running on     5 processors

     MPI processes distributed on     1 nodes
     R & G space division:  proc/nbgrp/npool/nimage =       5
     Waiting for input...
     Reading input from standard input

     Current dimensions of program PWSCF are:
     Max number of different atomic species (ntypx) = 10
     Max number of k-points (npk) =  40000
     Max angular momentum in pseudopotentials (lmaxx) =  3
               file Ni.pbesol-spn-kjpaw_psl.1.0.0.UPF: wavefunction(s)  3P 3D renormalized

     Subspace diagonalization in iterative solution of the eigenvalue problem:
     a serial algorithm will be used


     Parallelization info
     --------------------
     sticks:   dense  smooth     PW     G-vecs:    dense   smooth      PW
     Min          85      85     27                 1163     1163     213
     Max          87      87     28                 1164     1164     214
     Sum         433     433    139                 5817     5817    1067



     bravais-lattice index     =            2
     lattice parameter (alat)  =       6.6500  a.u.
     unit-cell volume          =      73.5199 (a.u.)^3
     number of atoms/cell      =            1
     number of atomic types    =            1
     number of electrons       =        18.00
     number of Kohn-Sham states=           13
     kinetic-energy cutoff     =      70.0000  Ry
     charge density cutoff     =     280.0000  Ry
     convergence threshold     =      1.0E-08
     mixing beta               =       0.7000
     number of iterations used =            8  plain     mixing
     Exchange-correlation      = SLA PW PSX PSC ( 1  4 10  8 0 0)

     celldm(1)=   6.650000  celldm(2)=   0.000000  celldm(3)=   0.000000
     celldm(4)=   0.000000  celldm(5)=   0.000000  celldm(6)=   0.000000

     crystal axes: (cart. coord. in units of alat)
               a(1) = (  -0.500000   0.000000   0.500000 )  
               a(2) = (   0.000000   0.500000   0.500000 )  
               a(3) = (  -0.500000   0.500000   0.000000 )  

     reciprocal axes: (cart. coord. in units 2 pi/alat)
               b(1) = ( -1.000000 -1.000000  1.000000 )  
               b(2) = (  1.000000  1.000000  1.000000 )  
               b(3) = ( -1.000000  1.000000 -1.000000 )  


     PseudoPot. # 1 for Ni read from file:
     /home/lorenzo/pseudos/Ni/Ni.pbesol-spn-kjpaw_psl.1.0.0.UPF
     MD5 check sum: ef06ee83099c2673f0516457bd731f51
     Pseudo is Projector augmented-wave + core cor, Zval = 18.0
     Generated using "atomic" code by A. Dal Corso v.6.3
     Shape of augmentation charge: PSQ
     Using radial grid of 1195 points,  6 beta functions with: 
                l(1) =   0
                l(2) =   0
                l(3) =   1
                l(4) =   1
                l(5) =   2
                l(6) =   2
     Q(r) pseudized with 0 coefficients 


     atomic species   valence    mass     pseudopotential
        Ni            18.00    58.69340     Ni( 1.00)

     48 Sym. Ops., with inversion, found



   Cartesian axes

     site n.     atom                  positions (alat units)
         1           Ni  tau(   1) = (   0.0000000   0.0000000   0.0000000  )

     number of k points=    35  gaussian smearing, width (Ry)=  0.0100
                       cart. coord. in units 2pi/alat
        k(    1) = (   0.0000000   0.0000000   0.0000000), wk =   0.0027435
        k(    2) = (  -0.1111111   0.1111111  -0.1111111), wk =   0.0219479
        k(    3) = (  -0.2222222   0.2222222  -0.2222222), wk =   0.0219479
        k(    4) = (  -0.3333333   0.3333333  -0.3333333), wk =   0.0219479
        k(    5) = (  -0.4444444   0.4444444  -0.4444444), wk =   0.0219479
        k(    6) = (   0.0000000   0.2222222   0.0000000), wk =   0.0164609
        k(    7) = (  -0.1111111   0.3333333  -0.1111111), wk =   0.0658436
        k(    8) = (  -0.2222222   0.4444444  -0.2222222), wk =   0.0658436
        k(    9) = (  -0.3333333   0.5555556  -0.3333333), wk =   0.0658436
        k(   10) = (   0.5555556  -0.3333333   0.5555556), wk =   0.0658436
        k(   11) = (   0.4444444  -0.2222222   0.4444444), wk =   0.0658436
        k(   12) = (   0.3333333  -0.1111111   0.3333333), wk =   0.0658436
        k(   13) = (   0.2222222  -0.0000000   0.2222222), wk =   0.0329218
        k(   14) = (   0.0000000   0.4444444   0.0000000), wk =   0.0164609
        k(   15) = (  -0.1111111   0.5555556  -0.1111111), wk =   0.0658436
        k(   16) = (  -0.2222222   0.6666667  -0.2222222), wk =   0.0658436
        k(   17) = (   0.6666667  -0.2222222   0.6666667), wk =   0.0658436
        k(   18) = (   0.5555556  -0.1111111   0.5555556), wk =   0.0658436
        k(   19) = (   0.4444444   0.0000000   0.4444444), wk =   0.0329218
        k(   20) = (   0.0000000   0.6666667   0.0000000), wk =   0.0164609
        k(   21) = (  -0.1111111   0.7777778  -0.1111111), wk =   0.0658436
        k(   22) = (   0.7777778  -0.1111111   0.7777778), wk =   0.0658436
        k(   23) = (   0.6666667  -0.0000000   0.6666667), wk =   0.0329218
        k(   24) = (   0.0000000   0.8888889   0.0000000), wk =   0.0164609
        k(   25) = (   0.8888889   0.0000000   0.8888889), wk =   0.0329218
        k(   26) = (  -0.2222222   0.4444444   0.0000000), wk =   0.0658436
        k(   27) = (  -0.3333333   0.5555556  -0.1111111), wk =   0.1316872
        k(   28) = (   0.5555556  -0.3333333   0.7777778), wk =   0.1316872
        k(   29) = (  -0.2222222   0.6666667   0.0000000), wk =   0.0658436
        k(   30) = (   0.6666667  -0.2222222   0.8888889), wk =   0.1316872
        k(   31) = (   0.5555556  -0.1111111   0.7777778), wk =   0.1316872
        k(   32) = (   0.4444444   0.0000000   0.6666667), wk =   0.0658436
        k(   33) = (   0.7777778  -0.1111111   1.0000000), wk =   0.0658436
        k(   34) = (   0.6666667  -0.0000000   0.8888889), wk =   0.0658436
        k(   35) = (   0.5555556  -0.1111111   1.0000000), wk =   0.0658436

     Dense  grid:     5817 G-vectors     FFT dimensions: (  25,  25,  25)

     Estimated max dynamical RAM per process >       6.77 MB

     Estimated total dynamical RAM >      33.83 MB

     Check: negative/imaginary core charge=   -0.000011    0.000000

     Initial potential from superposition of free atoms

     starting charge   17.99977, renormalised to   18.00000
     Starting wfcs are   10 randomized atomic wfcs +    3 random wfcs
     Checking if some PAW data can be deallocated... 

     total cpu time spent up to now is        1.1 secs

     Self-consistent Calculation

     iteration #  1     ecut=    70.00 Ry     beta= 0.70
     Davidson diagonalization with overlap
     ethr =  1.00E-02,  avg # of iterations =  3.5

     Threshold (ethr) on eigenvalues was too large:
     Diagonalizing with lowered threshold

     Davidson diagonalization with overlap
     ethr =  1.05E-05,  avg # of iterations =  3.2

     total cpu time spent up to now is        2.1 secs

     total energy              =    -426.56758330 Ry
     Harris-Foulkes estimate   =    -426.56828560 Ry
     estimated scf accuracy    <       0.00186461 Ry

     iteration #  2     ecut=    70.00 Ry     beta= 0.70
     Davidson diagonalization with overlap
     ethr =  1.04E-05,  avg # of iterations =  2.0

     total cpu time spent up to now is        2.6 secs

     total energy              =    -426.56720948 Ry
     Harris-Foulkes estimate   =    -426.56835752 Ry
     estimated scf accuracy    <       0.00245645 Ry

     iteration #  3     ecut=    70.00 Ry     beta= 0.70
     Davidson diagonalization with overlap
     ethr =  1.04E-05,  avg # of iterations =  2.1

     total cpu time spent up to now is        3.0 secs

     total energy              =    -426.56781267 Ry
     Harris-Foulkes estimate   =    -426.56801632 Ry
     estimated scf accuracy    <       0.00061648 Ry

     iteration #  4     ecut=    70.00 Ry     beta= 0.70
     Davidson diagonalization with overlap
     ethr =  3.42E-06,  avg # of iterations =  1.5

     total cpu time spent up to now is        3.5 secs

     total energy              =    -426.56790323 Ry
     Harris-Foulkes estimate   =    -426.56790301 Ry
     estimated scf accuracy    <       0.00000029 Ry

     iteration #  5     ecut=    70.00 Ry     beta= 0.70
     Davidson diagonalization with overlap
     ethr =  1.60E-09,  avg # of iterations =  3.1

     total cpu time spent up to now is        4.1 secs

     total energy              =    -426.56790513 Ry
     Harris-Foulkes estimate   =    -426.56790521 Ry
     estimated scf accuracy    <       0.00000030 Ry

     iteration #  6     ecut=    70.00 Ry     beta= 0.70
     Davidson diagonalization with overlap
     ethr =  1.60E-09,  avg # of iterations =  1.0

     total cpu time spent up to now is        4.5 secs

     total energy              =    -426.56790512 Ry
     Harris-Foulkes estimate   =    -426.56790514 Ry
     estimated scf accuracy    <       0.00000005 Ry

     iteration #  7     ecut=    70.00 Ry     beta= 0.70
     Davidson diagonalization with overlap
     ethr =  2.57E-10,  avg # of iterations =  1.1

     total cpu time spent up to now is        4.9 secs

     End of self-consistent calculation

          k = 0.0000 0.0000 0.0000 (   725 PWs)   bands (ev):

   -85.2005 -45.5947 -45.5947 -45.5947   8.6040  15.6994  15.6994  15.6994
    16.8295  16.8295  41.2800  45.2020  45.2020

          k =-0.1111 0.1111-0.1111 (   728 PWs)   bands (ev):

   -85.1966 -45.6213 -45.5986 -45.5986   9.0838  15.5729  15.8002  15.8002
    16.7910  16.7910  39.0704  42.4580  44.2713

          k =-0.2222 0.2222-0.2222 (   733 PWs)   bands (ev):

   -85.1865 -45.6878 -45.6084 -45.6084  10.4264  15.3391  15.9181  15.9181
    16.8530  16.8530  33.5177  41.6323  43.2011

          k =-0.3333 0.3333-0.3333 (   745 PWs)   bands (ev):

   -85.1752 -45.7630 -45.6196 -45.6196  12.1388  15.5275  15.8113  15.8113
    17.2033  17.2033  28.2750  40.6076  42.5741

          k =-0.4444 0.4444-0.4444 (   736 PWs)   bands (ev):

   -85.1674 -45.8111 -45.6266 -45.6266  13.0105  15.6812  15.6812  16.9000
    17.5187  17.5187  24.2939  39.8869  42.3430

          k = 0.0000 0.2222 0.0000 (   725 PWs)   bands (ev):

   -85.1952 -45.6205 -45.6046 -45.6046   9.2420  15.4648  15.8823  15.8823
    16.6177  16.9125  40.1934  41.8213  41.8213

          k =-0.1111 0.3333-0.1111 (   723 PWs)   bands (ev):

   -85.1870 -45.6698 -45.6157 -45.6123  10.2961  15.2083  15.9989  16.0631
    16.5662  17.0201  35.6995  40.1098  40.3932

          k =-0.2222 0.4444-0.2222 (   729 PWs)   bands (ev):

   -85.1760 -45.7390 -45.6273 -45.6246  11.9413  15.0899  15.7644  16.0488
    17.1395  17.3016  30.2305  39.2127  39.3768

          k =-0.3333 0.5556-0.3333 (   726 PWs)   bands (ev):

   -85.1671 -45.7934 -45.6378 -45.6333  13.1481  15.4273  15.7718  15.9087
    17.5581  18.2480  25.5922  38.1273  39.2486

          k = 0.5556-0.3333 0.5556 (   730 PWs)   bands (ev):

   -85.1647 -45.8084 -45.6461 -45.6312  13.3562  15.4372  15.8388  16.1783
    17.5018  19.1448  23.7456  36.9933  40.3573

          k = 0.4444-0.2222 0.4444 (   733 PWs)   bands (ev):

   -85.1698 -45.7777 -45.6443 -45.6223  12.8938  15.4734  15.6151  15.9154
    17.1142  18.0919  27.0103  36.4981  41.6007

          k = 0.3333-0.1111 0.3333 (   730 PWs)   bands (ev):

   -85.1799 -45.7158 -45.6329 -45.6102  11.3764  15.1560  15.8375  16.0781
    16.6361  17.3806  32.0067  36.7780  43.4871

          k = 0.2222-0.0000 0.2222 (   725 PWs)   bands (ev):

   -85.1904 -45.6536 -45.6151 -45.6009   9.8548  15.3675  15.9163  15.9626
    16.5890  16.9636  37.2341  38.1698  44.4821

          k = 0.0000 0.4444 0.0000 (   721 PWs)   bands (ev):

   -85.1816 -45.6842 -45.6292 -45.6292  10.9899  14.8934  16.2012  16.3975
    16.3975  17.1265  37.8117  37.8117  38.7529

          k =-0.1111 0.5556-0.1111 (   724 PWs)   bands (ev):

   -85.1726 -45.7309 -45.6447 -45.6422  12.2773  14.6301  15.8740  16.5609
    17.1679  17.3525  32.8038  36.4499  36.6403

          k =-0.2222 0.6667-0.2222 (   725 PWs)   bands (ev):

   -85.1642 -45.7729 -45.6661 -45.6486  13.4866  14.6186  15.6083  16.4578
    17.5977  18.7987  27.7825  34.2690  36.1939

          k = 0.6667-0.2222 0.6667 (   724 PWs)   bands (ev):

   -85.1604 -45.7870 -45.6869 -45.6456  13.9591  14.7810  15.5973  16.3272
    17.5210  21.1458  24.0837  32.4649  37.1497

          k = 0.5556-0.1111 0.5556 (   724 PWs)   bands (ev):

   -85.1629 -45.7718 -45.6929 -45.6345  13.8969  15.0434  15.2818  16.2910
    17.1077  19.8876  26.3553  31.4844  39.2243

          k = 0.4444 0.0000 0.4444 (   730 PWs)   bands (ev):

   -85.1707 -45.7443 -45.6713 -45.6204  12.8609  14.9758  15.4982  16.3455
    16.6058  18.3124  30.7650  31.7831  42.1414

          k = 0.0000 0.6667 0.0000 (   717 PWs)   bands (ev):

   -85.1662 -45.7544 -45.6574 -45.6574  12.8502  14.2797  16.6920  17.1016
    17.1016  17.3744  33.3254  34.5806  34.5806

          k =-0.1111 0.7778-0.1111 (   728 PWs)   bands (ev):

   -85.1600 -45.7798 -45.6767 -45.6656  13.3810  14.1383  16.5548  17.1307
    17.6162  18.9219  30.4424  30.9613  33.8874

          k = 0.7778-0.1111 0.7778 (   723 PWs)   bands (ev):

   -85.1566 -45.7781 -45.7091 -45.6627  13.8659  14.2534  16.0473  16.9640
    17.5825  21.9176  26.2780  28.8060  34.5456

          k = 0.6667-0.0000 0.6667 (   718 PWs)   bands (ev):

   -85.1576 -45.7456 -45.7448 -45.6503  14.3314  14.4899  15.4514  16.7096
    17.2842  22.5574  25.2590  28.2837  36.4346

          k = 0.0000 0.8889 0.0000 (   732 PWs)   bands (ev):

   -85.1565 -45.7997 -45.6761 -45.6761  13.2567  13.8975  17.5386  17.6586
    17.6586  19.3105  28.0934  32.7050  32.7050

          k = 0.8889 0.0000 0.8889 (   730 PWs)   bands (ev):

   -85.1551 -45.7981 -45.6899 -45.6750  13.4257  13.9504  17.0823  17.4217
    17.6899  21.0548  27.1072  29.9340  32.9440

          k =-0.2222 0.4444 0.0000 (   729 PWs)   bands (ev):

   -85.1786 -45.7091 -45.6413 -45.6192  11.5197  14.9415  15.8132  16.4134
    16.5657  17.4036  34.1423  34.8040  40.5561

          k =-0.3333 0.5556-0.1111 (   729 PWs)   bands (ev):

   -85.1688 -45.7568 -45.6632 -45.6307  13.0450  14.8794  15.4608  16.3534
    17.0604  18.2986  29.1447  34.0017  37.9426

          k = 0.5556-0.3333 0.7778 (   727 PWs)   bands (ev):

   -85.1625 -45.7889 -45.6736 -45.6407  13.7820  15.0080  15.5315  16.2060
    17.4474  20.0474  24.8254  34.3015  35.9400

          k =-0.2222 0.6667 0.0000 (   730 PWs)   bands (ev):

   -85.1651 -45.7593 -45.6713 -45.6511  13.2689  14.4324  15.7378  17.0794
    17.0990  18.3944  31.6320  32.2385  34.0484

          k = 0.6667-0.2222 0.8889 (   726 PWs)   bands (ev):

   -85.1591 -45.7729 -45.6974 -45.6597  13.9749  14.4811  15.4962  16.8223
    17.5042  20.6303  27.1655  31.4277  32.3702

          k = 0.5556-0.1111 0.7778 (   728 PWs)   bands (ev):

   -85.1578 -45.7657 -45.7189 -45.6568  14.4275  14.4904  15.2889  16.6254
    17.4600  22.6878  24.5625  29.9717  33.3951

          k = 0.4444 0.0000 0.6667 (   725 PWs)   bands (ev):

   -85.1616 -45.7604 -45.7057 -45.6438  14.1258  14.8706  14.9672  16.6368
    17.1219  20.0855  28.1342  29.7733  35.3546

          k = 0.7778-0.1111 1.0000 (   730 PWs)   bands (ev):

   -85.1563 -45.7873 -45.6908 -45.6757  13.5913  14.1075  16.4448  17.2908
    17.6580  20.9187  28.3598  30.1096  31.0021

          k = 0.6667-0.0000 0.8889 (   722 PWs)   bands (ev):

   -85.1552 -45.7703 -45.7184 -45.6720  13.9626  14.3469  15.8260  16.9718
    17.6550  23.4141  26.2439  27.6873  31.5776

          k = 0.5556-0.1111 1.0000 (   725 PWs)   bands (ev):

   -85.1558 -45.7556 -45.7282 -45.6738  14.1926  14.7507  15.1513  16.7851
    17.6555  23.4155  26.5604  28.6088  29.6910

     the Fermi energy is    17.5678 ev

!    total energy              =    -426.56790513 Ry
     Harris-Foulkes estimate   =    -426.56790513 Ry
     estimated scf accuracy    <          4.7E-10 Ry

     total all-electron energy =     -3039.026250 Ry

     The total energy is the sum of the following terms:

     one-electron contribution =    -184.94185039 Ry
     hartree contribution      =     104.52413097 Ry
     xc contribution           =     -33.91874788 Ry
     ewald contribution        =    -223.38275369 Ry
     one-center paw contrib.   =     -88.84624706 Ry
     smearing contrib. (-TS)   =      -0.00243707 Ry

     convergence has been achieved in   7 iterations

     Forces acting on atoms (cartesian axes, Ry/au):

     atom    1 type  1   force =     0.00000000    0.00000000    0.00000000

     Total force =     0.000000     Total SCF correction =     0.000000


     Computing stress (Cartesian axis) and pressure

          total   stress  (Ry/bohr**3)                   (kbar)     P= -151.67
  -0.00103102  -0.00000000   0.00000000       -151.67     -0.00      0.00
  -0.00000000  -0.00103102  -0.00000000         -0.00   -151.67     -0.00
   0.00000000  -0.00000000  -0.00103102          0.00     -0.00   -151.67


     Writing output data file Ni.save/

     init_run     :      0.38s CPU      0.40s WALL (       1 calls)
     electrons    :      3.49s CPU      3.71s WALL (       1 calls)
     forces       :      0.04s CPU      0.04s WALL (       1 calls)
     stress       :      0.11s CPU      0.11s WALL (       1 calls)

     Called by init_run:
     wfcinit      :      0.11s CPU      0.11s WALL (       1 calls)
     potinit      :      0.09s CPU      0.11s WALL (       1 calls)
     hinit0       :      0.15s CPU      0.15s WALL (       1 calls)

     Called by electrons:
     c_bands      :      2.34s CPU      2.46s WALL (       8 calls)
     sum_band     :      0.43s CPU      0.45s WALL (       8 calls)
     v_of_rho     :      0.02s CPU      0.02s WALL (       8 calls)
     newd         :      0.06s CPU      0.06s WALL (       8 calls)
     PAW_pot      :      0.72s CPU      0.83s WALL (       8 calls)
     mix_rho      :      0.00s CPU      0.00s WALL (       8 calls)

     Called by c_bands:
     init_us_2    :      0.06s CPU      0.06s WALL (     665 calls)
     cegterg      :      2.25s CPU      2.37s WALL (     280 calls)

     Called by sum_band:
     sum_band:bec :      0.00s CPU      0.00s WALL (     280 calls)
     addusdens    :      0.04s CPU      0.05s WALL (       8 calls)

     Called by *egterg:
     h_psi        :      1.68s CPU      1.77s WALL (     926 calls)
     s_psi        :      0.05s CPU      0.06s WALL (     926 calls)
     g_psi        :      0.01s CPU      0.01s WALL (     611 calls)
     cdiaghg      :      0.29s CPU      0.30s WALL (     856 calls)

     Called by h_psi:
     h_psi:pot    :      1.68s CPU      1.77s WALL (     926 calls)
     h_psi:calbec :      0.08s CPU      0.08s WALL (     926 calls)
     vloc_psi     :      1.54s CPU      1.62s WALL (     926 calls)
     add_vuspsi   :      0.05s CPU      0.06s WALL (     926 calls)

     General routines
     calbec       :      0.12s CPU      0.12s WALL (    1381 calls)
     fft          :      0.02s CPU      0.02s WALL (     115 calls)
     ffts         :      0.00s CPU      0.00s WALL (       8 calls)
     fftw         :      1.73s CPU      1.82s WALL (   22118 calls)

     Parallel routines
     fft_scatt_xy :      0.14s CPU      0.15s WALL (   22241 calls)
     fft_scatt_yz :      0.44s CPU      0.46s WALL (   22241 calls)

     PWSCF        :     4.78s CPU         5.10s WALL


   This run was terminated on:  22:50:44  26Mar2024            

=------------------------------------------------------------------------------=
   JOB DONE.
=------------------------------------------------------------------------------=
