
     Program PWSCF v.6.3MaX starts on 26Mar2024 at 22:59:10 

     This program is part of the open-source Quantum ESPRESSO suite
     for quantum simulation of materials; please cite
         "P. Giannozzi et al., J. Phys.:Condens. Matter 21 395502 (2009);
         "P. Giannozzi et al., J. Phys.:Condens. Matter 29 465901 (2017);
          URL http://www.quantum-espresso.org", 
     in publications or presentations arising from this work. More details at
     http://www.quantum-espresso.org/quote

     Parallel version (MPI), running on     5 processors

     MPI processes distributed on     1 nodes
     R & G space division:  proc/nbgrp/npool/nimage =       5
     Waiting for input...
     Reading input from standard input

     Current dimensions of program PWSCF are:
     Max number of different atomic species (ntypx) = 10
     Max number of k-points (npk) =  40000
     Max angular momentum in pseudopotentials (lmaxx) =  3

     Subspace diagonalization in iterative solution of the eigenvalue problem:
     a serial algorithm will be used


     Parallelization info
     --------------------
     sticks:   dense  smooth     PW     G-vecs:    dense   smooth      PW
     Min         102     102     32                 1559     1559     280
     Max         103     103     33                 1562     1562     283
     Sum         511     511    163                 7799     7799    1411



     bravais-lattice index     =            2
     lattice parameter (alat)  =       6.6500  a.u.
     unit-cell volume          =      73.5199 (a.u.)^3
     number of atoms/cell      =            1
     number of atomic types    =            1
     number of electrons       =        18.00
     number of Kohn-Sham states=           13
     kinetic-energy cutoff     =      85.0000  Ry
     charge density cutoff     =     340.0000  Ry
     convergence threshold     =      1.0E-08
     mixing beta               =       0.7000
     number of iterations used =            8  plain     mixing
     Exchange-correlation      = PBE ( 1  4  3  4 0 0)

     celldm(1)=   6.650000  celldm(2)=   0.000000  celldm(3)=   0.000000
     celldm(4)=   0.000000  celldm(5)=   0.000000  celldm(6)=   0.000000

     crystal axes: (cart. coord. in units of alat)
               a(1) = (  -0.500000   0.000000   0.500000 )  
               a(2) = (   0.000000   0.500000   0.500000 )  
               a(3) = (  -0.500000   0.500000   0.000000 )  

     reciprocal axes: (cart. coord. in units 2 pi/alat)
               b(1) = ( -1.000000 -1.000000  1.000000 )  
               b(2) = (  1.000000  1.000000  1.000000 )  
               b(3) = ( -1.000000  1.000000 -1.000000 )  


     PseudoPot. # 1 for Ni read from file:
     /home/lorenzo/pseudos/Ni/Ni.pbe-spn-rrkjus_psl.1.0.0.UPF
     MD5 check sum: 8b3fc9aac6dafe35f580d41bb18c3945
     Pseudo is Ultrasoft + core correction, Zval = 18.0
     Generated using "atomic" code by A. Dal Corso v.6.3
     Using radial grid of 1195 points,  6 beta functions with: 
                l(1) =   0
                l(2) =   0
                l(3) =   1
                l(4) =   1
                l(5) =   2
                l(6) =   2
     Q(r) pseudized with 0 coefficients 


     atomic species   valence    mass     pseudopotential
        Ni            18.00    58.69340     Ni( 1.00)

     48 Sym. Ops., with inversion, found



   Cartesian axes

     site n.     atom                  positions (alat units)
         1           Ni  tau(   1) = (   0.0000000   0.0000000   0.0000000  )

     number of k points=    16  gaussian smearing, width (Ry)=  0.0100
                       cart. coord. in units 2pi/alat
        k(    1) = (   0.0000000   0.0000000   0.0000000), wk =   0.0092593
        k(    2) = (  -0.1666667   0.1666667  -0.1666667), wk =   0.0740741
        k(    3) = (  -0.3333333   0.3333333  -0.3333333), wk =   0.0740741
        k(    4) = (   0.5000000  -0.5000000   0.5000000), wk =   0.0370370
        k(    5) = (   0.0000000   0.3333333   0.0000000), wk =   0.0555556
        k(    6) = (  -0.1666667   0.5000000  -0.1666667), wk =   0.2222222
        k(    7) = (   0.6666667  -0.3333333   0.6666667), wk =   0.2222222
        k(    8) = (   0.5000000  -0.1666667   0.5000000), wk =   0.2222222
        k(    9) = (   0.3333333   0.0000000   0.3333333), wk =   0.1111111
        k(   10) = (   0.0000000   0.6666667   0.0000000), wk =   0.0555556
        k(   11) = (   0.8333333  -0.1666667   0.8333333), wk =   0.2222222
        k(   12) = (   0.6666667  -0.0000000   0.6666667), wk =   0.1111111
        k(   13) = (   0.0000000  -1.0000000   0.0000000), wk =   0.0277778
        k(   14) = (   0.6666667  -0.3333333   1.0000000), wk =   0.2222222
        k(   15) = (   0.5000000  -0.1666667   0.8333333), wk =   0.2222222
        k(   16) = (  -0.3333333  -1.0000000   0.0000000), wk =   0.1111111

     Dense  grid:     7799 G-vectors     FFT dimensions: (  27,  27,  27)

     Estimated max dynamical RAM per process >       8.01 MB

     Estimated total dynamical RAM >      40.04 MB

     Check: negative/imaginary core charge=   -0.000003    0.000000

     Initial potential from superposition of free atoms

     starting charge   17.99975, renormalised to   18.00000
     Starting wfcs are   10 randomized atomic wfcs +    3 random wfcs

     total cpu time spent up to now is        1.3 secs

     Self-consistent Calculation

     iteration #  1     ecut=    85.00 Ry     beta= 0.70
     Davidson diagonalization with overlap
     ethr =  1.00E-02,  avg # of iterations =  3.6

     Threshold (ethr) on eigenvalues was too large:
     Diagonalizing with lowered threshold

     Davidson diagonalization with overlap
     ethr =  1.54E-05,  avg # of iterations =  3.6

     total cpu time spent up to now is        1.7 secs

     total energy              =    -339.60583001 Ry
     Harris-Foulkes estimate   =    -339.60716833 Ry
     estimated scf accuracy    <       0.00277295 Ry

     iteration #  2     ecut=    85.00 Ry     beta= 0.70
     Davidson diagonalization with overlap
     ethr =  1.54E-05,  avg # of iterations =  2.1

     total cpu time spent up to now is        2.0 secs

     total energy              =    -339.60526819 Ry
     Harris-Foulkes estimate   =    -339.60820337 Ry
     estimated scf accuracy    <       0.00782848 Ry

     iteration #  3     ecut=    85.00 Ry     beta= 0.70
     Davidson diagonalization with overlap
     ethr =  1.54E-05,  avg # of iterations =  2.1

     total cpu time spent up to now is        2.2 secs

     total energy              =    -339.60668510 Ry
     Harris-Foulkes estimate   =    -339.60674129 Ry
     estimated scf accuracy    <       0.00021687 Ry

     iteration #  4     ecut=    85.00 Ry     beta= 0.70
     Davidson diagonalization with overlap
     ethr =  1.20E-06,  avg # of iterations =  1.2

     total cpu time spent up to now is        2.3 secs

     total energy              =    -339.60671708 Ry
     Harris-Foulkes estimate   =    -339.60671700 Ry
     estimated scf accuracy    <       0.00000131 Ry

     iteration #  5     ecut=    85.00 Ry     beta= 0.70
     Davidson diagonalization with overlap
     ethr =  7.30E-09,  avg # of iterations =  3.1

     total cpu time spent up to now is        2.6 secs

     total energy              =    -339.60671824 Ry
     Harris-Foulkes estimate   =    -339.60671828 Ry
     estimated scf accuracy    <       0.00000009 Ry

     iteration #  6     ecut=    85.00 Ry     beta= 0.70
     Davidson diagonalization with overlap
     ethr =  4.89E-10,  avg # of iterations =  2.0

     total cpu time spent up to now is        2.8 secs

     End of self-consistent calculation

          k = 0.0000 0.0000 0.0000 (   941 PWs)   bands (ev):

   -85.3703 -45.6288 -45.6288 -45.6288   8.8198  15.8441  15.8441  15.8441
    16.9492  16.9492  41.4896  45.4318  45.4318

          k =-0.1667 0.1667-0.1667 (   956 PWs)   bands (ev):

   -85.3619 -45.6851 -45.6370 -45.6370   9.8777  15.5966  16.0243  16.0243
    16.9082  16.9082  36.5385  42.2561  43.9056

          k =-0.3333 0.3333-0.3333 (   968 PWs)   bands (ev):

   -85.3450 -45.7955 -45.6532 -45.6532  12.3431  15.6960  15.9492  15.9492
    17.3282  17.3282  28.4660  40.8146  42.7993

          k = 0.5000-0.5000 0.5000 (   978 PWs)   bands (ev):

   -85.3366 -45.8507 -45.6614 -45.6614  13.2612  15.7997  15.7997  17.5426
    17.6873  17.6873  23.7421  39.9963  42.5622

          k = 0.0000 0.3333 0.0000 (   966 PWs)   bands (ev):

   -85.3591 -45.6832 -45.6502 -45.6502  10.2197  15.3530  16.2450  16.2450
    16.5259  17.1262  39.6124  39.9742  39.9742

          k =-0.1667 0.5000-0.1667 (   977 PWs)   bands (ev):

   -85.3451 -45.7645 -45.6689 -45.6688  12.2640  15.0023  15.8975  16.4155
    17.3081  17.4557  31.6575  37.9575  38.3876

          k = 0.6667-0.3333 0.6667 (   972 PWs)   bands (ev):

   -85.3338 -45.8278 -45.6935 -45.6742  13.7639  15.2436  15.8586  16.2220
    17.7134  19.7290  24.8388  35.5879  38.2563

          k = 0.5000-0.1667 0.5000 (   975 PWs)   bands (ev):

   -85.3366 -45.8106 -45.7007 -45.6613  13.5866  15.4502  15.5793  16.2119
    17.2236  19.0303  26.8085  34.1112  41.0682

          k = 0.3333 0.0000 0.3333 (   961 PWs)   bands (ev):

   -85.3507 -45.7381 -45.6735 -45.6423  11.4798  15.2635  15.9723  16.3960
    16.5423  17.5463  34.1108  34.8733  44.4713

          k = 0.0000 0.6667 0.0000 (   974 PWs)   bands (ev):

   -85.3367 -45.7878 -45.6915 -45.6915  13.0382  14.4356  16.8575  17.2350
    17.2350  17.4894  33.5146  34.8051  34.8051

          k = 0.8333-0.1667 0.8333 (   975 PWs)   bands (ev):

   -85.3283 -45.8158 -45.7252 -45.6996  13.7854  14.3282  16.4713  17.1788
    17.7736  20.5000  28.5860  29.8627  34.2738

          k = 0.6667-0.0000 0.6667 (   981 PWs)   bands (ev):

   -85.3283 -45.7792 -45.7785 -45.6847  14.4912  14.6463  15.6066  16.8322
    17.4146  22.7361  25.4488  28.4737  36.6563

          k = 0.0000-1.0000 0.0000 (   982 PWs)   bands (ev):

   -85.3255 -45.8382 -45.7127 -45.7127  13.4173  14.0053  17.6749  17.8703
    17.8703  20.2880  27.2093  32.6841  32.6841

          k = 0.6667-0.3333 1.0000 (   974 PWs)   bands (ev):

   -85.3339 -45.7943 -45.7204 -45.6802  13.8888  14.7764  15.4498  16.9739
    17.2358  19.3361  30.0192  31.1147  34.7672

          k = 0.5000-0.1667 0.8333 (   976 PWs)   bands (ev):

   -85.3282 -45.8015 -45.7471 -45.6931  14.6349  14.6386  15.3839  16.7329
    17.6369  22.9234  24.5526  31.4183  32.1229

          k =-0.3333-1.0000 0.0000 (   978 PWs)   bands (ev):

   -85.3255 -45.8070 -45.7438 -45.7135  14.0471  14.4980  16.0245  17.1250
    17.8713  23.3337  27.5844  28.2992  29.9060

     the Fermi energy is    17.6774 ev

!    total energy              =    -339.60671825 Ry
     Harris-Foulkes estimate   =    -339.60671825 Ry
     estimated scf accuracy    <          3.2E-09 Ry

     The total energy is the sum of the following terms:

     one-electron contribution =    -186.60819149 Ry
     hartree contribution      =     104.70362273 Ry
     xc contribution           =     -34.31726996 Ry
     ewald contribution        =    -223.38275369 Ry
     smearing contrib. (-TS)   =      -0.00212583 Ry

     convergence has been achieved in   6 iterations

     Forces acting on atoms (cartesian axes, Ry/au):

     atom    1 type  1   force =     0.00000000    0.00000000    0.00000000

     Total force =     0.000000     Total SCF correction =     0.000000


     Computing stress (Cartesian axis) and pressure

          total   stress  (Ry/bohr**3)                   (kbar)     P=  -57.58
  -0.00039142  -0.00000000  -0.00000000        -57.58     -0.00     -0.00
  -0.00000000  -0.00039142   0.00000000         -0.00    -57.58      0.00
  -0.00000000   0.00000000  -0.00039142         -0.00      0.00    -57.58


     Writing output data file Ni.save/

     init_run     :      0.25s CPU      0.26s WALL (       1 calls)
     electrons    :      1.46s CPU      1.52s WALL (       1 calls)
     forces       :      0.03s CPU      0.03s WALL (       1 calls)
     stress       :      0.10s CPU      0.10s WALL (       1 calls)

     Called by init_run:
     wfcinit      :      0.06s CPU      0.07s WALL (       1 calls)
     potinit      :      0.01s CPU      0.01s WALL (       1 calls)
     hinit0       :      0.17s CPU      0.17s WALL (       1 calls)

     Called by electrons:
     c_bands      :      1.14s CPU      1.18s WALL (       7 calls)
     sum_band     :      0.25s CPU      0.26s WALL (       7 calls)
     v_of_rho     :      0.03s CPU      0.03s WALL (       7 calls)
     newd         :      0.05s CPU      0.05s WALL (       7 calls)
     mix_rho      :      0.00s CPU      0.00s WALL (       7 calls)

     Called by c_bands:
     init_us_2    :      0.03s CPU      0.04s WALL (     272 calls)
     cegterg      :      1.09s CPU      1.14s WALL (     112 calls)

     Called by sum_band:
     sum_band:bec :      0.00s CPU      0.00s WALL (     112 calls)
     addusdens    :      0.05s CPU      0.05s WALL (       7 calls)

     Called by *egterg:
     h_psi        :      0.83s CPU      0.87s WALL (     411 calls)
     s_psi        :      0.03s CPU      0.03s WALL (     411 calls)
     g_psi        :      0.00s CPU      0.00s WALL (     283 calls)
     cdiaghg      :      0.12s CPU      0.13s WALL (     379 calls)

     Called by h_psi:
     h_psi:pot    :      0.83s CPU      0.86s WALL (     411 calls)
     h_psi:calbec :      0.04s CPU      0.04s WALL (     411 calls)
     vloc_psi     :      0.76s CPU      0.79s WALL (     411 calls)
     add_vuspsi   :      0.03s CPU      0.03s WALL (     411 calls)

     General routines
     calbec       :      0.06s CPU      0.06s WALL (     603 calls)
     fft          :      0.02s CPU      0.02s WALL (     104 calls)
     ffts         :      0.00s CPU      0.00s WALL (       7 calls)
     fftw         :      0.85s CPU      0.89s WALL (    8958 calls)

     Parallel routines
     fft_scatt_xy :      0.08s CPU      0.08s WALL (    9069 calls)
     fft_scatt_yz :      0.19s CPU      0.20s WALL (    9069 calls)

     PWSCF        :     2.85s CPU         2.97s WALL


   This run was terminated on:  22:59:13  26Mar2024            

=------------------------------------------------------------------------------=
   JOB DONE.
=------------------------------------------------------------------------------=
