
     Program PWSCF v.6.3MaX starts on 26Mar2024 at 22:26: 7 

     This program is part of the open-source Quantum ESPRESSO suite
     for quantum simulation of materials; please cite
         "P. Giannozzi et al., J. Phys.:Condens. Matter 21 395502 (2009);
         "P. Giannozzi et al., J. Phys.:Condens. Matter 29 465901 (2017);
          URL http://www.quantum-espresso.org", 
     in publications or presentations arising from this work. More details at
     http://www.quantum-espresso.org/quote

     Parallel version (MPI), running on     5 processors

     MPI processes distributed on     1 nodes
     R & G space division:  proc/nbgrp/npool/nimage =       5
     Waiting for input...
     Reading input from standard input

     Current dimensions of program PWSCF are:
     Max number of different atomic species (ntypx) = 10
     Max number of k-points (npk) =  40000
     Max angular momentum in pseudopotentials (lmaxx) =  3

     Subspace diagonalization in iterative solution of the eigenvalue problem:
     a serial algorithm will be used


     Parallelization info
     --------------------
     sticks:   dense  smooth     PW     G-vecs:    dense   smooth      PW
     Min          24      24     11                  178      178      51
     Max          25      25     11                  181      181      52
     Sum         121     121     55                  893      893     259



     bravais-lattice index     =            2
     lattice parameter (alat)  =       6.6500  a.u.
     unit-cell volume          =      73.5199 (a.u.)^3
     number of atoms/cell      =            1
     number of atomic types    =            1
     number of electrons       =        18.00
     number of Kohn-Sham states=           13
     kinetic-energy cutoff     =      20.0000  Ry
     charge density cutoff     =      80.0000  Ry
     convergence threshold     =      1.0E-08
     mixing beta               =       0.7000
     number of iterations used =            8  plain     mixing
     Exchange-correlation      = PBE ( 1  4  3  4 0 0)

     celldm(1)=   6.650000  celldm(2)=   0.000000  celldm(3)=   0.000000
     celldm(4)=   0.000000  celldm(5)=   0.000000  celldm(6)=   0.000000

     crystal axes: (cart. coord. in units of alat)
               a(1) = (  -0.500000   0.000000   0.500000 )  
               a(2) = (   0.000000   0.500000   0.500000 )  
               a(3) = (  -0.500000   0.500000   0.000000 )  

     reciprocal axes: (cart. coord. in units 2 pi/alat)
               b(1) = ( -1.000000 -1.000000  1.000000 )  
               b(2) = (  1.000000  1.000000  1.000000 )  
               b(3) = ( -1.000000  1.000000 -1.000000 )  


     PseudoPot. # 1 for Ni read from file:
     /home/lorenzo/pseudos/Ni/Ni.pbe-spn-rrkjus_psl.1.0.0.UPF
     MD5 check sum: 8b3fc9aac6dafe35f580d41bb18c3945
     Pseudo is Ultrasoft + core correction, Zval = 18.0
     Generated using "atomic" code by A. Dal Corso v.6.3
     Using radial grid of 1195 points,  6 beta functions with: 
                l(1) =   0
                l(2) =   0
                l(3) =   1
                l(4) =   1
                l(5) =   2
                l(6) =   2
     Q(r) pseudized with 0 coefficients 


     atomic species   valence    mass     pseudopotential
        Ni            18.00    58.69340     Ni( 1.00)

     48 Sym. Ops., with inversion, found



   Cartesian axes

     site n.     atom                  positions (alat units)
         1           Ni  tau(   1) = (   0.0000000   0.0000000   0.0000000  )

     number of k points=    56  gaussian smearing, width (Ry)=  0.0100
                       cart. coord. in units 2pi/alat
        k(    1) = (   0.0000000   0.0000000   0.0000000), wk =   0.0015026
        k(    2) = (  -0.0909091   0.0909091  -0.0909091), wk =   0.0120210
        k(    3) = (  -0.1818182   0.1818182  -0.1818182), wk =   0.0120210
        k(    4) = (  -0.2727273   0.2727273  -0.2727273), wk =   0.0120210
        k(    5) = (  -0.3636364   0.3636364  -0.3636364), wk =   0.0120210
        k(    6) = (  -0.4545455   0.4545455  -0.4545455), wk =   0.0120210
        k(    7) = (   0.0000000   0.1818182   0.0000000), wk =   0.0090158
        k(    8) = (  -0.0909091   0.2727273  -0.0909091), wk =   0.0360631
        k(    9) = (  -0.1818182   0.3636364  -0.1818182), wk =   0.0360631
        k(   10) = (  -0.2727273   0.4545455  -0.2727273), wk =   0.0360631
        k(   11) = (  -0.3636364   0.5454545  -0.3636364), wk =   0.0360631
        k(   12) = (   0.5454545  -0.3636364   0.5454545), wk =   0.0360631
        k(   13) = (   0.4545455  -0.2727273   0.4545455), wk =   0.0360631
        k(   14) = (   0.3636364  -0.1818182   0.3636364), wk =   0.0360631
        k(   15) = (   0.2727273  -0.0909091   0.2727273), wk =   0.0360631
        k(   16) = (   0.1818182  -0.0000000   0.1818182), wk =   0.0180316
        k(   17) = (   0.0000000   0.3636364   0.0000000), wk =   0.0090158
        k(   18) = (  -0.0909091   0.4545455  -0.0909091), wk =   0.0360631
        k(   19) = (  -0.1818182   0.5454545  -0.1818182), wk =   0.0360631
        k(   20) = (  -0.2727273   0.6363636  -0.2727273), wk =   0.0360631
        k(   21) = (   0.6363636  -0.2727273   0.6363636), wk =   0.0360631
        k(   22) = (   0.5454545  -0.1818182   0.5454545), wk =   0.0360631
        k(   23) = (   0.4545455  -0.0909091   0.4545455), wk =   0.0360631
        k(   24) = (   0.3636364   0.0000000   0.3636364), wk =   0.0180316
        k(   25) = (   0.0000000   0.5454545   0.0000000), wk =   0.0090158
        k(   26) = (  -0.0909091   0.6363636  -0.0909091), wk =   0.0360631
        k(   27) = (  -0.1818182   0.7272727  -0.1818182), wk =   0.0360631
        k(   28) = (   0.7272727  -0.1818182   0.7272727), wk =   0.0360631
        k(   29) = (   0.6363636  -0.0909091   0.6363636), wk =   0.0360631
        k(   30) = (   0.5454545   0.0000000   0.5454545), wk =   0.0180316
        k(   31) = (   0.0000000   0.7272727   0.0000000), wk =   0.0090158
        k(   32) = (  -0.0909091   0.8181818  -0.0909091), wk =   0.0360631
        k(   33) = (   0.8181818  -0.0909091   0.8181818), wk =   0.0360631
        k(   34) = (   0.7272727   0.0000000   0.7272727), wk =   0.0180316
        k(   35) = (   0.0000000   0.9090909   0.0000000), wk =   0.0090158
        k(   36) = (   0.9090909  -0.0000000   0.9090909), wk =   0.0180316
        k(   37) = (  -0.1818182   0.3636364   0.0000000), wk =   0.0360631
        k(   38) = (  -0.2727273   0.4545455  -0.0909091), wk =   0.0721262
        k(   39) = (  -0.3636364   0.5454545  -0.1818182), wk =   0.0721262
        k(   40) = (   0.5454545  -0.3636364   0.7272727), wk =   0.0721262
        k(   41) = (  -0.1818182   0.5454545   0.0000000), wk =   0.0360631
        k(   42) = (  -0.2727273   0.6363636  -0.0909091), wk =   0.0721262
        k(   43) = (   0.6363636  -0.2727273   0.8181818), wk =   0.0721262
        k(   44) = (   0.5454545  -0.1818182   0.7272727), wk =   0.0721262
        k(   45) = (   0.4545455  -0.0909091   0.6363636), wk =   0.0721262
        k(   46) = (   0.3636364   0.0000000   0.5454545), wk =   0.0360631
        k(   47) = (  -0.1818182   0.7272727   0.0000000), wk =   0.0360631
        k(   48) = (   0.7272727  -0.1818182   0.9090909), wk =   0.0721262
        k(   49) = (   0.6363636  -0.0909091   0.8181818), wk =   0.0721262
        k(   50) = (   0.5454545   0.0000000   0.7272727), wk =   0.0360631
        k(   51) = (   0.8181818  -0.0909091   1.0000000), wk =   0.0360631
        k(   52) = (   0.7272727   0.0000000   0.9090909), wk =   0.0360631
        k(   53) = (   0.6363636  -0.2727273   1.0000000), wk =   0.0360631
        k(   54) = (   0.5454545  -0.1818182   0.9090909), wk =   0.0721262
        k(   55) = (   0.6363636  -0.0909091   1.0000000), wk =   0.0360631
        k(   56) = (   0.5454545   0.0000000   0.9090909), wk =   0.0360631

     Dense  grid:      893 G-vectors     FFT dimensions: (  15,  15,  15)

     Estimated max dynamical RAM per process >       1.69 MB

     Estimated total dynamical RAM >       8.46 MB

     Check: negative/imaginary core charge=   -0.000640    0.000000

     Initial potential from superposition of free atoms
     Check: negative starting charge=   -0.021646

     starting charge   17.99975, renormalised to   18.00000

     negative rho (up, down):  2.165E-02 0.000E+00
     Starting wfcs are   10 randomized atomic wfcs +    3 random wfcs

     total cpu time spent up to now is        1.0 secs

     Self-consistent Calculation

     iteration #  1     ecut=    20.00 Ry     beta= 0.70
     Davidson diagonalization with overlap
     ethr =  1.00E-02,  avg # of iterations =  3.4

     total cpu time spent up to now is        1.4 secs

     total energy              =    -297.87347210 Ry
     Harris-Foulkes estimate   =    -320.46657466 Ry
     estimated scf accuracy    <      27.50884347 Ry

     iteration #  2     ecut=    20.00 Ry     beta= 0.70
     Davidson diagonalization with overlap
     ethr =  1.00E-02,  avg # of iterations =  3.0

     total cpu time spent up to now is        1.7 secs

     total energy              =    -307.58626059 Ry
     Harris-Foulkes estimate   =    -314.14963481 Ry
     estimated scf accuracy    <      11.75101297 Ry

     iteration #  3     ecut=    20.00 Ry     beta= 0.70
     Davidson diagonalization with overlap
     ethr =  1.00E-02,  avg # of iterations =  2.1

     total cpu time spent up to now is        2.0 secs

     total energy              =    -308.97637628 Ry
     Harris-Foulkes estimate   =    -309.15299923 Ry
     estimated scf accuracy    <       0.31166555 Ry

     iteration #  4     ecut=    20.00 Ry     beta= 0.70
     Davidson diagonalization with overlap
     ethr =  1.73E-03,  avg # of iterations =  2.0

     total cpu time spent up to now is        2.2 secs

     total energy              =    -309.01937565 Ry
     Harris-Foulkes estimate   =    -309.06822965 Ry
     estimated scf accuracy    <       0.09311735 Ry

     iteration #  5     ecut=    20.00 Ry     beta= 0.70
     Davidson diagonalization with overlap
     ethr =  5.17E-04,  avg # of iterations =  1.8

     total cpu time spent up to now is        2.5 secs

     total energy              =    -309.03717472 Ry
     Harris-Foulkes estimate   =    -309.03716192 Ry
     estimated scf accuracy    <       0.00003973 Ry

     iteration #  6     ecut=    20.00 Ry     beta= 0.70
     Davidson diagonalization with overlap
     ethr =  2.21E-07,  avg # of iterations =  2.1

     total cpu time spent up to now is        2.7 secs

     total energy              =    -309.03716061 Ry
     Harris-Foulkes estimate   =    -309.03720007 Ry
     estimated scf accuracy    <       0.00007634 Ry

     iteration #  7     ecut=    20.00 Ry     beta= 0.70
     Davidson diagonalization with overlap
     ethr =  2.21E-07,  avg # of iterations =  2.0

     total cpu time spent up to now is        3.0 secs

     total energy              =    -309.03717385 Ry
     Harris-Foulkes estimate   =    -309.03717394 Ry
     estimated scf accuracy    <       0.00000016 Ry

     iteration #  8     ecut=    20.00 Ry     beta= 0.70
     Davidson diagonalization with overlap
     ethr =  9.13E-10,  avg # of iterations =  2.0

     total cpu time spent up to now is        3.2 secs

     End of self-consistent calculation

          k = 0.0000 0.0000 0.0000 (   113 PWs)   bands (ev):

  -123.4207 -50.5203 -50.5203 -50.5203  10.8625  18.9458  18.9458  18.9458
    19.5185  19.5185  48.1770  48.1770  48.1770

          k =-0.0909 0.0909-0.0909 (   113 PWs)   bands (ev):

  -123.3834 -50.5906 -50.4575 -50.4575  11.1436  18.8403  19.0413  19.0413
    19.5662  19.5662  42.2075  45.6003  46.5423

          k =-0.1818 0.1818-0.1818 (   116 PWs)   bands (ev):

  -123.5460 -55.1030 -50.5768 -50.5768  11.8253  12.5213  17.8918  17.8918
    19.3541  19.3541  36.0382  44.5222  45.4820

          k =-0.2727 0.2727-0.2727 (   114 PWs)   bands (ev):

  -123.4281 -52.5430 -52.5430 -48.2351  12.9605  15.0446  15.0446  20.2767
    22.5982  22.5982  31.6547  43.0283  43.0283

          k =-0.3636 0.3636-0.3636 (   114 PWs)   bands (ev):

  -123.5169 -52.5551 -52.5551 -48.9277  14.1965  15.0512  15.0512  21.0251
    22.4980  22.4980  27.8345  42.9673  42.9673

          k =-0.4545 0.4545-0.4545 (   108 PWs)   bands (ev):

  -123.0692 -48.1327 -48.1327 -47.2903  16.5809  20.4747  20.5223  20.5223
    26.1564  26.1564  26.8565  44.8594  44.8594

          k = 0.0000 0.1818 0.0000 (   113 PWs)   bands (ev):

  -123.3709 -50.6098 -50.4386 -50.4386  11.2371  18.9392  19.0099  19.0099
    19.5007  19.6554  42.4040  45.1471  45.1471

          k =-0.0909 0.2727-0.0909 (   116 PWs)   bands (ev):

  -123.5430 -53.5533 -51.4362 -50.9424  11.9615  12.2398  15.8907  18.5673
    19.2411  21.1821  37.6297  42.5024  43.0739

          k =-0.1818 0.3636-0.1818 (   114 PWs)   bands (ev):

  -123.3800 -52.6134 -51.2878 -48.8368  12.8680  13.9273  16.0395  17.8743
    21.7857  25.0611  34.1371  41.0063  41.7576

          k =-0.2727 0.4545-0.2727 (   109 PWs)   bands (ev):

  -123.1049 -50.9596 -47.3924 -46.9810  14.0082  18.0897  19.3612  22.5660
    25.8221  26.1681  29.9730  40.9930  41.4747

          k =-0.3636 0.5455-0.3636 (   114 PWs)   bands (ev):

  -123.5564 -52.6428 -52.3202 -49.1815  14.6901  15.3270  16.0530  20.4071
    22.1591  22.3202  26.9330  39.9653  40.8185

          k = 0.5455-0.3636 0.5455 (   112 PWs)   bands (ev):

  -123.4041 -52.3610 -49.7196 -48.5217  16.0452  16.1568  18.1686  20.1477
    22.5244  24.5237  26.5890  39.5351  42.2855

          k = 0.4545-0.2727 0.4545 (   111 PWs)   bands (ev):

  -123.2790 -51.1542 -50.1549 -47.4970  15.1813  16.2395  18.7700  21.1139
    23.0666  25.4458  28.6198  38.8815  44.7451

          k = 0.3636-0.1818 0.3636 (   109 PWs)   bands (ev):

  -123.0434 -49.8523 -48.7428 -46.2266  14.0365  16.5291  21.0469  21.3740
    24.8572  27.7799  30.9520  38.9403  45.2996

          k = 0.2727-0.0909 0.2727 (   113 PWs)   bands (ev):

  -123.2953 -52.0557 -49.6976 -49.1490  12.5847  13.2140  18.6012  18.6500
    23.0213  24.2285  35.1022  39.6770  47.2717

          k = 0.1818-0.0000 0.1818 (   117 PWs)   bands (ev):

  -123.6507 -55.3664 -51.5422 -50.9451  11.5653  13.8719  14.4609  16.8235
    18.5977  19.5753  39.3680  40.8267  46.6301

          k = 0.0000 0.3636 0.0000 (   113 PWs)   bands (ev):

  -123.2782 -50.7800 -50.7800 -49.1215  12.5163  17.4735  17.4735  17.7277
    20.4103  23.7298  40.2732  41.4613  41.4613

          k =-0.0909 0.4545-0.0909 (   114 PWs)   bands (ev):

  -123.3836 -52.2931 -51.5760 -48.7989  13.1256  13.7437  17.9126  19.1712
    21.7644  22.6749  35.4941  39.5858  40.1053

          k =-0.1818 0.5455-0.1818 (   112 PWs)   bands (ev):

  -123.3616 -51.7203 -51.3250 -47.7226  13.7097  16.1010  18.3319  19.3295
    23.8702  25.6683  31.1569  37.8388  38.9462

          k =-0.2727 0.6364-0.2727 (   113 PWs)   bands (ev):

  -123.5048 -53.6941 -51.3065 -47.7577  12.5081  15.8685  18.2856  18.7569
    24.2800  25.5184  28.0034  35.5550  39.0352

          k = 0.6364-0.2727 0.6364 (   111 PWs)   bands (ev):

  -123.3709 -51.1122 -50.7545 -47.8586  14.3108  17.8826  19.0081  20.5243
    24.5922  26.2471  27.2409  34.4743  39.5793

          k = 0.5455-0.1818 0.5455 (   109 PWs)   bands (ev):

  -123.1939 -50.7648 -48.1449 -47.1978  16.7113  17.9138  20.5698  21.0648
    26.0605  26.0725  28.2644  33.9898  41.4272

          k = 0.4545-0.0909 0.4545 (   112 PWs)   bands (ev):

  -123.3323 -51.8508 -49.4426 -49.0925  15.1087  16.5674  17.3531  21.0777
    21.4609  26.0121  30.2881  34.1357  42.8712

          k = 0.3636 0.0000 0.3636 (   111 PWs)   bands (ev):

  -123.1480 -52.5137 -47.7561 -47.3555  13.8182  14.1233  17.2380  21.7535
    24.2189  27.1991  33.5577  35.5502  46.2426

          k = 0.0000 0.5455 0.0000 (   113 PWs)   bands (ev):

  -123.4265 -52.1391 -52.1391 -48.9761   9.3776  11.8018  17.8348  22.4520
    26.5944  26.5944  36.3953  36.7086  37.1886

          k =-0.0909 0.6364-0.0909 (   113 PWs)   bands (ev):

  -123.4690 -52.9847 -50.4336 -49.3226  10.7315  13.6091  18.9553  20.4687
    25.4869  26.0377  33.3810  34.3237  36.6931

          k =-0.1818 0.7273-0.1818 (   108 PWs)   bands (ev):

  -123.1656 -49.8418 -47.9683 -47.2894  14.7518  18.9547  22.4992  24.0818
    26.1423  26.6762  30.0600  33.1068  37.7579

          k = 0.7273-0.1818 0.7273 (   108 PWs)   bands (ev):

  -123.1998 -49.7671 -48.1067 -47.2581  15.4466  19.6619  22.1619  24.0635
    25.9234  26.9940  27.8083  32.0602  38.0980

          k = 0.6364-0.0909 0.6364 (   107 PWs)   bands (ev):

  -123.0846 -48.3967 -47.8301 -46.9679  18.7423  20.4245  21.6581  22.9631
    26.2685  26.5220  27.9024  31.4978  39.7529

          k = 0.5455 0.0000 0.5455 (   107 PWs)   bands (ev):

  -123.0246 -48.7680 -47.7922 -46.0158  17.8700  20.9986  21.6836  21.9513
    25.5859  27.1657  28.7988  32.2652  41.5387

          k = 0.0000 0.7273 0.0000 (   113 PWs)   bands (ev):

  -123.5680 -52.3694 -52.3694 -48.7293   9.1856  12.2429  19.7263  22.0964
    26.6690  26.6690  31.7188  35.4383  35.7863

          k =-0.0909 0.8182-0.0909 (   110 PWs)   bands (ev):

  -123.3690 -52.0529 -49.8454 -46.8931  11.3722  16.1791  22.3353  23.5340
    26.8297  27.8025  30.6006  31.8004  35.6042

          k = 0.8182-0.0909 0.8182 (   108 PWs)   bands (ev):

  -123.2564 -51.6384 -47.2983 -46.8617  12.5114  19.8521  23.1784  24.8843
    26.8861  28.0326  29.0447  30.1790  35.8838

          k = 0.7273 0.0000 0.7273 (   110 PWs)   bands (ev):

  -123.3963 -54.3225 -47.5469 -47.4857   9.6324  19.8859  23.6849  23.7055
    24.5679  26.6215  27.9804  30.2568  36.0662

          k = 0.0000 0.9091 0.0000 (   116 PWs)   bands (ev):

  -123.9041 -55.2928 -55.2928 -48.6459   3.4715  14.0457  21.9264  22.4429
    23.2797  23.2797  29.0093  33.7343  34.4440

          k = 0.9091-0.0000 0.9091 (   114 PWs)   bands (ev):

  -123.7407 -55.2658 -52.5061 -47.9797   6.3680  14.8416  21.9093  22.7956
    23.3090  26.5839  28.6916  31.2425  34.5246

          k =-0.1818 0.3636 0.0000 (   115 PWs)   bands (ev):

  -123.4628 -53.7291 -52.0151 -48.6975  11.9512  12.8815  14.9607  17.7073
    20.1975  26.2548  35.7322  37.7916  44.4470

          k =-0.2727 0.4545-0.0909 (   114 PWs)   bands (ev):

  -123.4374 -52.8154 -50.3308 -50.1032  12.4401  14.7067  16.8842  18.0455
    22.4170  25.4617  31.5931  36.6088  41.6643

          k =-0.3636 0.5455-0.1818 (   113 PWs)   bands (ev):

  -123.4535 -52.4103 -51.4733 -48.5003  13.4827  16.1755  17.1038  19.0136
    23.5187  25.2061  28.9656  36.1653  39.5251

          k = 0.5455-0.3636 0.7273 (   109 PWs)   bands (ev):

  -123.1675 -50.5253 -48.5240 -46.6005  16.4895  18.0817  20.4013  20.7829
    24.0365  27.3567  28.4643  37.2278  39.1145

          k =-0.1818 0.5455 0.0000 (   114 PWs)   bands (ev):

  -123.4746 -53.1914 -50.3762 -50.1175  11.6427  13.9286  15.0569  21.6833
    22.9144  25.2987  33.8859  35.3577  37.6176

          k =-0.2727 0.6364-0.0909 (   114 PWs)   bands (ev):

  -123.5692 -53.1019 -52.5379 -48.7279  11.0772  15.2081  16.8449  19.9618
    23.9722  25.1388  30.1436  34.0426  36.1528

          k = 0.6364-0.2727 0.8182 (   113 PWs)   bands (ev):

  -123.5566 -52.9094 -52.2491 -47.9820  11.8871  16.7170  18.2604  19.5902
    23.9936  26.3798  27.6375  33.2591  35.1350

          k = 0.5455-0.1818 0.7273 (   111 PWs)   bands (ev):

  -123.4144 -52.0383 -51.0748 -47.0371  14.5266  17.3016  18.5988  20.8880
    24.7704  26.4878  28.4500  32.4745  35.5689

          k = 0.4545-0.0909 0.6364 (   112 PWs)   bands (ev):

  -123.4748 -52.9126 -50.4262 -48.4409  13.6413  17.1086  18.8539  20.0620
    24.4616  25.7889  28.2768  32.0608  36.6851

          k = 0.3636 0.0000 0.5455 (   110 PWs)   bands (ev):

  -123.1992 -50.1421 -49.6336 -47.5291  15.6352  18.2309  18.4731  22.6135
    22.8210  27.2833  30.5579  33.0065  40.2835

          k =-0.1818 0.7273 0.0000 (   114 PWs)   bands (ev):

  -123.6345 -53.2214 -52.4322 -49.3743   8.5158  12.9293  19.2685  23.0800
    24.2078  25.5467  31.4552  31.8549  34.3950

          k = 0.7273-0.1818 0.9091 (   107 PWs)   bands (ev):

  -123.1748 -49.8805 -47.6671 -46.5018  15.6498  19.2814  21.9348  25.8369
    27.0901  27.7374  29.5353  31.6400  33.8473

          k = 0.6364-0.0909 0.8182 (   108 PWs)   bands (ev):

  -123.2751 -50.0853 -48.6329 -47.0430  15.5160  19.6604  21.6520  23.9345
    26.6275  27.4858  28.0036  30.6288  34.1383

          k = 0.5455 0.0000 0.7273 (   109 PWs)   bands (ev):

  -123.3202 -51.8560 -47.8694 -47.7458  15.8199  19.1528  21.1427  21.3697
    26.4253  27.3754  27.7665  30.5547  35.1668

          k = 0.8182-0.0909 1.0000 (   110 PWs)   bands (ev):

  -123.4095 -52.0505 -49.7529 -47.0220  12.3255  15.9219  22.5927  23.5358
    26.5104  28.0749  29.6010  30.9432  33.4764

          k = 0.7273 0.0000 0.9091 (   106 PWs)   bands (ev):

  -123.1439 -49.7796 -46.8349 -45.9632  15.7043  20.0907  23.2084  26.8298
    27.1383  28.6301  29.2266  30.2206  33.3786

          k = 0.6364-0.2727 1.0000 (   109 PWs)   bands (ev):

  -123.2818 -50.4560 -49.4457 -47.0388  14.8019  17.8162  17.9765  26.0724
    26.7492  27.5051  29.1996  31.3529  34.2544

          k = 0.5455-0.1818 0.9091 (   110 PWs)   bands (ev):

  -123.4197 -52.1132 -49.0069 -47.8737  15.0292  18.6923  19.5240  21.4352
    26.4971  27.0762  27.8143  30.8813  32.8813

          k = 0.6364-0.0909 1.0000 (   105 PWs)   bands (ev):

  -123.0624 -47.5998 -47.2977 -46.1174  19.7506  21.3207  22.0158  26.1958
    27.7922  28.0293  28.8875  30.7556  32.1109

          k = 0.5455 0.0000 0.9091 (   110 PWs)   bands (ev):

  -123.4647 -52.1315 -49.1407 -47.8834  15.3684  19.7452  20.0303  20.9976
    26.4920  27.1392  27.3781  29.6772  31.7022

     the Fermi energy is    25.9182 ev

!    total energy              =    -309.03717389 Ry
     Harris-Foulkes estimate   =    -309.03717389 Ry
     estimated scf accuracy    <          2.2E-09 Ry

     The total energy is the sum of the following terms:

     one-electron contribution =    -123.77001185 Ry
     hartree contribution      =      67.90100202 Ry
     xc contribution           =     -29.78480227 Ry
     ewald contribution        =    -223.38275379 Ry
     smearing contrib. (-TS)   =      -0.00060800 Ry

     convergence has been achieved in   8 iterations

     Forces acting on atoms (cartesian axes, Ry/au):

     atom    1 type  1   force =     0.00000000    0.00000000    0.00000000

     Total force =     0.000000     Total SCF correction =     0.000000


     Computing stress (Cartesian axis) and pressure

          total   stress  (Ry/bohr**3)                   (kbar)     P=********
  -0.95281266   0.00000000   0.00000000    -140163.56      0.00      0.00
   0.00000000  -0.95281266  -0.00000000          0.00-140163.56     -0.00
   0.00000000  -0.00000000  -0.95281266          0.00     -0.00-140163.56


     Writing output data file Ni.save/

     init_run     :      0.12s CPU      0.13s WALL (       1 calls)
     electrons    :      1.92s CPU      2.19s WALL (       1 calls)
     forces       :      0.02s CPU      0.02s WALL (       1 calls)
     stress       :      0.04s CPU      0.04s WALL (       1 calls)

     Called by init_run:
     wfcinit      :      0.05s CPU      0.06s WALL (       1 calls)
     potinit      :      0.00s CPU      0.00s WALL (       1 calls)
     hinit0       :      0.07s CPU      0.07s WALL (       1 calls)

     Called by electrons:
     c_bands      :      1.68s CPU      1.91s WALL (       8 calls)
     sum_band     :      0.23s CPU      0.25s WALL (       8 calls)
     v_of_rho     :      0.01s CPU      0.01s WALL (       9 calls)
     newd         :      0.01s CPU      0.01s WALL (       9 calls)
     mix_rho      :      0.00s CPU      0.00s WALL (       8 calls)

     Called by c_bands:
     init_us_2    :      0.02s CPU      0.03s WALL (    1064 calls)
     cegterg      :      1.63s CPU      1.86s WALL (     448 calls)

     Called by sum_band:
     sum_band:bec :      0.00s CPU      0.01s WALL (     448 calls)
     addusdens    :      0.01s CPU      0.01s WALL (       8 calls)

     Called by *egterg:
     h_psi        :      0.92s CPU      1.07s WALL (    1535 calls)
     s_psi        :      0.02s CPU      0.03s WALL (    1535 calls)
     g_psi        :      0.00s CPU      0.00s WALL (    1031 calls)
     cdiaghg      :      0.52s CPU      0.58s WALL (    1479 calls)

     Called by h_psi:
     h_psi:pot    :      0.92s CPU      1.07s WALL (    1535 calls)
     h_psi:calbec :      0.05s CPU      0.06s WALL (    1535 calls)
     vloc_psi     :      0.84s CPU      0.97s WALL (    1535 calls)
     add_vuspsi   :      0.02s CPU      0.03s WALL (    1535 calls)

     General routines
     calbec       :      0.07s CPU      0.08s WALL (    2263 calls)
     fft          :      0.00s CPU      0.00s WALL (     125 calls)
     ffts         :      0.00s CPU      0.00s WALL (       8 calls)
     fftw         :      0.93s CPU      1.08s WALL (   37718 calls)

     Parallel routines
     fft_scatt_xy :      0.09s CPU      0.11s WALL (   37851 calls)
     fft_scatt_yz :      0.45s CPU      0.51s WALL (   37851 calls)

     PWSCF        :     3.01s CPU         3.37s WALL


   This run was terminated on:  22:26:10  26Mar2024            

=------------------------------------------------------------------------------=
   JOB DONE.
=------------------------------------------------------------------------------=
