
     Program PWSCF v.6.3MaX starts on 26Mar2024 at 22:43:48 

     This program is part of the open-source Quantum ESPRESSO suite
     for quantum simulation of materials; please cite
         "P. Giannozzi et al., J. Phys.:Condens. Matter 21 395502 (2009);
         "P. Giannozzi et al., J. Phys.:Condens. Matter 29 465901 (2017);
          URL http://www.quantum-espresso.org", 
     in publications or presentations arising from this work. More details at
     http://www.quantum-espresso.org/quote

     Parallel version (MPI), running on     5 processors

     MPI processes distributed on     1 nodes
     R & G space division:  proc/nbgrp/npool/nimage =       5
     Waiting for input...
     Reading input from standard input

     Current dimensions of program PWSCF are:
     Max number of different atomic species (ntypx) = 10
     Max number of k-points (npk) =  40000
     Max angular momentum in pseudopotentials (lmaxx) =  3
               file Ni.pbesol-spn-kjpaw_psl.1.0.0.UPF: wavefunction(s)  3P 3D renormalized

     Subspace diagonalization in iterative solution of the eigenvalue problem:
     a serial algorithm will be used


     Parallelization info
     --------------------
     sticks:   dense  smooth     PW     G-vecs:    dense   smooth      PW
     Min          73      73     24                  928      928     173
     Max          74      74     25                  930      930     174
     Sum         367     367    121                 4645     4645     869



     bravais-lattice index     =            2
     lattice parameter (alat)  =       6.6500  a.u.
     unit-cell volume          =      73.5199 (a.u.)^3
     number of atoms/cell      =            1
     number of atomic types    =            1
     number of electrons       =        18.00
     number of Kohn-Sham states=           13
     kinetic-energy cutoff     =      60.0000  Ry
     charge density cutoff     =     240.0000  Ry
     convergence threshold     =      1.0E-08
     mixing beta               =       0.7000
     number of iterations used =            8  plain     mixing
     Exchange-correlation      = SLA PW PSX PSC ( 1  4 10  8 0 0)

     celldm(1)=   6.650000  celldm(2)=   0.000000  celldm(3)=   0.000000
     celldm(4)=   0.000000  celldm(5)=   0.000000  celldm(6)=   0.000000

     crystal axes: (cart. coord. in units of alat)
               a(1) = (  -0.500000   0.000000   0.500000 )  
               a(2) = (   0.000000   0.500000   0.500000 )  
               a(3) = (  -0.500000   0.500000   0.000000 )  

     reciprocal axes: (cart. coord. in units 2 pi/alat)
               b(1) = ( -1.000000 -1.000000  1.000000 )  
               b(2) = (  1.000000  1.000000  1.000000 )  
               b(3) = ( -1.000000  1.000000 -1.000000 )  


     PseudoPot. # 1 for Ni read from file:
     /home/lorenzo/pseudos/Ni/Ni.pbesol-spn-kjpaw_psl.1.0.0.UPF
     MD5 check sum: ef06ee83099c2673f0516457bd731f51
     Pseudo is Projector augmented-wave + core cor, Zval = 18.0
     Generated using "atomic" code by A. Dal Corso v.6.3
     Shape of augmentation charge: PSQ
     Using radial grid of 1195 points,  6 beta functions with: 
                l(1) =   0
                l(2) =   0
                l(3) =   1
                l(4) =   1
                l(5) =   2
                l(6) =   2
     Q(r) pseudized with 0 coefficients 


     atomic species   valence    mass     pseudopotential
        Ni            18.00    58.69340     Ni( 1.00)

     48 Sym. Ops., with inversion, found



   Cartesian axes

     site n.     atom                  positions (alat units)
         1           Ni  tau(   1) = (   0.0000000   0.0000000   0.0000000  )

     number of k points=     3  gaussian smearing, width (Ry)=  0.0100
                       cart. coord. in units 2pi/alat
        k(    1) = (   0.0000000   0.0000000   0.0000000), wk =   0.2500000
        k(    2) = (   0.5000000  -0.5000000   0.5000000), wk =   1.0000000
        k(    3) = (   0.0000000  -1.0000000   0.0000000), wk =   0.7500000

     Dense  grid:     4645 G-vectors     FFT dimensions: (  24,  24,  24)

     Estimated max dynamical RAM per process >       4.88 MB

     Estimated total dynamical RAM >      24.38 MB

     Check: negative/imaginary core charge=   -0.000009    0.000000

     Initial potential from superposition of free atoms

     starting charge   17.99977, renormalised to   18.00000
     Starting wfcs are   10 randomized atomic wfcs +    3 random wfcs
     Checking if some PAW data can be deallocated... 

     total cpu time spent up to now is        1.0 secs

     Self-consistent Calculation

     iteration #  1     ecut=    60.00 Ry     beta= 0.70
     Davidson diagonalization with overlap
     ethr =  1.00E-02,  avg # of iterations =  5.0

     Threshold (ethr) on eigenvalues was too large:
     Diagonalizing with lowered threshold

     Davidson diagonalization with overlap
     ethr =  5.97E-05,  avg # of iterations =  3.7

     total cpu time spent up to now is        1.2 secs

     total energy              =    -426.37070007 Ry
     Harris-Foulkes estimate   =    -426.37471377 Ry
     estimated scf accuracy    <       0.01105485 Ry

     iteration #  2     ecut=    60.00 Ry     beta= 0.70
     Davidson diagonalization with overlap
     ethr =  6.14E-05,  avg # of iterations =  2.0

     total cpu time spent up to now is        1.3 secs

     total energy              =    -426.34070936 Ry
     Harris-Foulkes estimate   =    -426.38975968 Ry
     estimated scf accuracy    <       0.48812907 Ry

     iteration #  3     ecut=    60.00 Ry     beta= 0.70
     Davidson diagonalization with overlap
     ethr =  6.14E-05,  avg # of iterations =  2.3

     total cpu time spent up to now is        1.5 secs

     total energy              =    -426.37327792 Ry
     Harris-Foulkes estimate   =    -426.37383859 Ry
     estimated scf accuracy    <       0.00635722 Ry

     iteration #  4     ecut=    60.00 Ry     beta= 0.70
     Davidson diagonalization with overlap
     ethr =  3.53E-05,  avg # of iterations =  1.0

     total cpu time spent up to now is        1.6 secs

     total energy              =    -426.37301410 Ry
     Harris-Foulkes estimate   =    -426.37332879 Ry
     estimated scf accuracy    <       0.00425827 Ry

     iteration #  5     ecut=    60.00 Ry     beta= 0.70
     Davidson diagonalization with overlap
     ethr =  2.37E-05,  avg # of iterations =  1.0

     total cpu time spent up to now is        1.8 secs

     total energy              =    -426.37241622 Ry
     Harris-Foulkes estimate   =    -426.37303759 Ry
     estimated scf accuracy    <       0.00292549 Ry

     iteration #  6     ecut=    60.00 Ry     beta= 0.70
     Davidson diagonalization with overlap
     ethr =  1.63E-05,  avg # of iterations =  1.0

     total cpu time spent up to now is        1.9 secs

     total energy              =    -426.37262429 Ry
     Harris-Foulkes estimate   =    -426.37261761 Ry
     estimated scf accuracy    <       0.00000615 Ry

     iteration #  7     ecut=    60.00 Ry     beta= 0.70
     Davidson diagonalization with overlap
     ethr =  3.42E-08,  avg # of iterations =  2.7

     total cpu time spent up to now is        2.1 secs

     total energy              =    -426.37259677 Ry
     Harris-Foulkes estimate   =    -426.37264335 Ry
     estimated scf accuracy    <       0.00027052 Ry

     iteration #  8     ecut=    60.00 Ry     beta= 0.70
     Davidson diagonalization with overlap
     ethr =  3.42E-08,  avg # of iterations =  3.0

     total cpu time spent up to now is        2.2 secs

     total energy              =    -426.37262180 Ry
     Harris-Foulkes estimate   =    -426.37262449 Ry
     estimated scf accuracy    <       0.00002412 Ry

     iteration #  9     ecut=    60.00 Ry     beta= 0.70
     Davidson diagonalization with overlap
     ethr =  3.42E-08,  avg # of iterations =  1.0

     total cpu time spent up to now is        2.4 secs

     total energy              =    -426.37262305 Ry
     Harris-Foulkes estimate   =    -426.37262300 Ry
     estimated scf accuracy    <       0.00000018 Ry

     iteration # 10     ecut=    60.00 Ry     beta= 0.70
     Davidson diagonalization with overlap
     ethr =  1.02E-09,  avg # of iterations =  2.0

     total cpu time spent up to now is        2.5 secs

     total energy              =    -426.37262282 Ry
     Harris-Foulkes estimate   =    -426.37262310 Ry
     estimated scf accuracy    <       0.00000145 Ry

     iteration # 11     ecut=    60.00 Ry     beta= 0.70
     Davidson diagonalization with overlap
     ethr =  1.02E-09,  avg # of iterations =  2.0

     total cpu time spent up to now is        2.6 secs

     total energy              =    -426.37262298 Ry
     Harris-Foulkes estimate   =    -426.37262303 Ry
     estimated scf accuracy    <       0.00000043 Ry

     iteration # 12     ecut=    60.00 Ry     beta= 0.70
     Davidson diagonalization with overlap
     ethr =  1.02E-09,  avg # of iterations =  1.0

     total cpu time spent up to now is        2.8 secs

     End of self-consistent calculation

          k = 0.0000 0.0000 0.0000 (   561 PWs)   bands (ev):

   -85.4207 -45.8148 -45.8148 -45.8148   8.5993  15.4931  15.4931  15.4931
    16.6716  16.6716  41.2058  45.2308  45.2308

          k = 0.5000-0.5000 0.5000 (   580 PWs)   bands (ev):

   -85.3873 -46.0368 -45.8474 -45.8474  12.9425  15.4941  15.4941  17.3347
    17.3668  17.3668  23.4593  39.8170  42.2708

          k = 0.0000-1.0000 0.0000 (   588 PWs)   bands (ev):

   -85.3763 -46.0251 -45.8984 -45.8984  13.1713  13.6617  17.3997  17.5162
    17.5162  20.0281  26.9997  32.4328  32.4328

     the Fermi energy is    17.4936 ev

!    total energy              =    -426.37262300 Ry
     Harris-Foulkes estimate   =    -426.37262300 Ry
     estimated scf accuracy    <          3.0E-11 Ry

     total all-electron energy =     -3038.830968 Ry

     The total energy is the sum of the following terms:

     one-electron contribution =    -184.49451663 Ry
     hartree contribution      =     104.27810027 Ry
     xc contribution           =     -33.90325073 Ry
     ewald contribution        =    -223.38275372 Ry
     one-center paw contrib.   =     -88.86168207 Ry
     smearing contrib. (-TS)   =      -0.00852013 Ry

     convergence has been achieved in  12 iterations

     Forces acting on atoms (cartesian axes, Ry/au):

     atom    1 type  1   force =     0.00000000    0.00000000    0.00000000

     Total force =     0.000000     Total SCF correction =     0.000000


     Computing stress (Cartesian axis) and pressure

          total   stress  (Ry/bohr**3)                   (kbar)     P=  217.06
   0.00147551   0.00000000   0.00000000        217.06      0.00      0.00
   0.00000000   0.00147551  -0.00000000          0.00    217.06     -0.00
   0.00000000  -0.00000000   0.00147551          0.00     -0.00    217.06


     Writing output data file Ni.save/

     init_run     :      0.25s CPU      0.27s WALL (       1 calls)
     electrons    :      1.58s CPU      1.78s WALL (       1 calls)
     forces       :      0.01s CPU      0.02s WALL (       1 calls)
     stress       :      0.04s CPU      0.05s WALL (       1 calls)

     Called by init_run:
     wfcinit      :      0.01s CPU      0.01s WALL (       1 calls)
     potinit      :      0.10s CPU      0.11s WALL (       1 calls)
     hinit0       :      0.13s CPU      0.13s WALL (       1 calls)

     Called by electrons:
     c_bands      :      0.25s CPU      0.27s WALL (      13 calls)
     sum_band     :      0.13s CPU      0.13s WALL (      13 calls)
     v_of_rho     :      0.04s CPU      0.04s WALL (      13 calls)
     newd         :      0.06s CPU      0.06s WALL (      13 calls)
     PAW_pot      :      1.19s CPU      1.36s WALL (      13 calls)
     mix_rho      :      0.01s CPU      0.01s WALL (      13 calls)

     Called by c_bands:
     init_us_2    :      0.01s CPU      0.01s WALL (      87 calls)
     cegterg      :      0.24s CPU      0.26s WALL (      39 calls)

     Called by sum_band:
     sum_band:bec :      0.00s CPU      0.00s WALL (      39 calls)
     addusdens    :      0.06s CPU      0.06s WALL (      13 calls)

     Called by *egterg:
     h_psi        :      0.17s CPU      0.19s WALL (     125 calls)
     s_psi        :      0.01s CPU      0.01s WALL (     125 calls)
     g_psi        :      0.00s CPU      0.00s WALL (      83 calls)
     cdiaghg      :      0.04s CPU      0.04s WALL (     119 calls)

     Called by h_psi:
     h_psi:pot    :      0.17s CPU      0.19s WALL (     125 calls)
     h_psi:calbec :      0.01s CPU      0.01s WALL (     125 calls)
     vloc_psi     :      0.15s CPU      0.17s WALL (     125 calls)
     add_vuspsi   :      0.01s CPU      0.01s WALL (     125 calls)

     General routines
     calbec       :      0.01s CPU      0.01s WALL (     179 calls)
     fft          :      0.02s CPU      0.02s WALL (     170 calls)
     ffts         :      0.00s CPU      0.00s WALL (      13 calls)
     fftw         :      0.17s CPU      0.19s WALL (    2897 calls)

     Parallel routines
     fft_scatt_xy :      0.02s CPU      0.02s WALL (    3080 calls)
     fft_scatt_yz :      0.06s CPU      0.07s WALL (    3080 calls)

     PWSCF        :     2.63s CPU         2.89s WALL


   This run was terminated on:  22:43:51  26Mar2024            

=------------------------------------------------------------------------------=
   JOB DONE.
=------------------------------------------------------------------------------=
