
     Program PWSCF v.6.3MaX starts on 26Mar2024 at 22:33: 0 

     This program is part of the open-source Quantum ESPRESSO suite
     for quantum simulation of materials; please cite
         "P. Giannozzi et al., J. Phys.:Condens. Matter 21 395502 (2009);
         "P. Giannozzi et al., J. Phys.:Condens. Matter 29 465901 (2017);
          URL http://www.quantum-espresso.org", 
     in publications or presentations arising from this work. More details at
     http://www.quantum-espresso.org/quote

     Parallel version (MPI), running on     5 processors

     MPI processes distributed on     1 nodes
     R & G space division:  proc/nbgrp/npool/nimage =       5
     Waiting for input...
     Reading input from standard input

     Current dimensions of program PWSCF are:
     Max number of different atomic species (ntypx) = 10
     Max number of k-points (npk) =  40000
     Max angular momentum in pseudopotentials (lmaxx) =  3

     Subspace diagonalization in iterative solution of the eigenvalue problem:
     a serial algorithm will be used


     Parallelization info
     --------------------
     sticks:   dense  smooth     PW     G-vecs:    dense   smooth      PW
     Min          42      42     16                  416      416      91
     Max          43      43     18                  418      418      92
     Sum         211     211     85                 2085     2085     459



     bravais-lattice index     =            2
     lattice parameter (alat)  =       6.6500  a.u.
     unit-cell volume          =      73.5199 (a.u.)^3
     number of atoms/cell      =            1
     number of atomic types    =            1
     number of electrons       =        18.00
     number of Kohn-Sham states=           13
     kinetic-energy cutoff     =      35.0000  Ry
     charge density cutoff     =     140.0000  Ry
     convergence threshold     =      1.0E-08
     mixing beta               =       0.7000
     number of iterations used =            8  plain     mixing
     Exchange-correlation      = PBE ( 1  4  3  4 0 0)

     celldm(1)=   6.650000  celldm(2)=   0.000000  celldm(3)=   0.000000
     celldm(4)=   0.000000  celldm(5)=   0.000000  celldm(6)=   0.000000

     crystal axes: (cart. coord. in units of alat)
               a(1) = (  -0.500000   0.000000   0.500000 )  
               a(2) = (   0.000000   0.500000   0.500000 )  
               a(3) = (  -0.500000   0.500000   0.000000 )  

     reciprocal axes: (cart. coord. in units 2 pi/alat)
               b(1) = ( -1.000000 -1.000000  1.000000 )  
               b(2) = (  1.000000  1.000000  1.000000 )  
               b(3) = ( -1.000000  1.000000 -1.000000 )  


     PseudoPot. # 1 for Ni read from file:
     /home/lorenzo/pseudos/Ni/Ni.pbe-spn-rrkjus_psl.1.0.0.UPF
     MD5 check sum: 8b3fc9aac6dafe35f580d41bb18c3945
     Pseudo is Ultrasoft + core correction, Zval = 18.0
     Generated using "atomic" code by A. Dal Corso v.6.3
     Using radial grid of 1195 points,  6 beta functions with: 
                l(1) =   0
                l(2) =   0
                l(3) =   1
                l(4) =   1
                l(5) =   2
                l(6) =   2
     Q(r) pseudized with 0 coefficients 


     atomic species   valence    mass     pseudopotential
        Ni            18.00    58.69340     Ni( 1.00)

     48 Sym. Ops., with inversion, found



   Cartesian axes

     site n.     atom                  positions (alat units)
         1           Ni  tau(   1) = (   0.0000000   0.0000000   0.0000000  )

     number of k points=    16  gaussian smearing, width (Ry)=  0.0100
                       cart. coord. in units 2pi/alat
        k(    1) = (   0.0000000   0.0000000   0.0000000), wk =   0.0092593
        k(    2) = (  -0.1666667   0.1666667  -0.1666667), wk =   0.0740741
        k(    3) = (  -0.3333333   0.3333333  -0.3333333), wk =   0.0740741
        k(    4) = (   0.5000000  -0.5000000   0.5000000), wk =   0.0370370
        k(    5) = (   0.0000000   0.3333333   0.0000000), wk =   0.0555556
        k(    6) = (  -0.1666667   0.5000000  -0.1666667), wk =   0.2222222
        k(    7) = (   0.6666667  -0.3333333   0.6666667), wk =   0.2222222
        k(    8) = (   0.5000000  -0.1666667   0.5000000), wk =   0.2222222
        k(    9) = (   0.3333333   0.0000000   0.3333333), wk =   0.1111111
        k(   10) = (   0.0000000   0.6666667   0.0000000), wk =   0.0555556
        k(   11) = (   0.8333333  -0.1666667   0.8333333), wk =   0.2222222
        k(   12) = (   0.6666667  -0.0000000   0.6666667), wk =   0.1111111
        k(   13) = (   0.0000000  -1.0000000   0.0000000), wk =   0.0277778
        k(   14) = (   0.6666667  -0.3333333   1.0000000), wk =   0.2222222
        k(   15) = (   0.5000000  -0.1666667   0.8333333), wk =   0.2222222
        k(   16) = (  -0.3333333  -1.0000000   0.0000000), wk =   0.1111111

     Dense  grid:     2085 G-vectors     FFT dimensions: (  18,  18,  18)

     Estimated max dynamical RAM per process >       2.73 MB

     Estimated total dynamical RAM >      13.67 MB

     Check: negative/imaginary core charge=   -0.000037    0.000000

     Initial potential from superposition of free atoms

     starting charge   17.99975, renormalised to   18.00000
     Starting wfcs are   10 randomized atomic wfcs +    3 random wfcs

     total cpu time spent up to now is        0.8 secs

     Self-consistent Calculation

     iteration #  1     ecut=    35.00 Ry     beta= 0.70
     Davidson diagonalization with overlap
     ethr =  1.00E-02,  avg # of iterations =  4.4

     total cpu time spent up to now is        1.0 secs

     total energy              =    -337.95974831 Ry
     Harris-Foulkes estimate   =    -338.11427090 Ry
     estimated scf accuracy    <       0.22249798 Ry

     iteration #  2     ecut=    35.00 Ry     beta= 0.70
     Davidson diagonalization with overlap
     ethr =  1.24E-03,  avg # of iterations =  2.1

     total cpu time spent up to now is        1.1 secs

     total energy              =    -337.91931420 Ry
     Harris-Foulkes estimate   =    -338.19655720 Ry
     estimated scf accuracy    <       0.75535256 Ry

     iteration #  3     ecut=    35.00 Ry     beta= 0.70
     Davidson diagonalization with overlap
     ethr =  1.24E-03,  avg # of iterations =  2.0

     total cpu time spent up to now is        1.2 secs

     total energy              =    -338.05290364 Ry
     Harris-Foulkes estimate   =    -338.05563714 Ry
     estimated scf accuracy    <       0.00980756 Ry

     iteration #  4     ecut=    35.00 Ry     beta= 0.70
     Davidson diagonalization with overlap
     ethr =  5.45E-05,  avg # of iterations =  2.1

     total cpu time spent up to now is        1.3 secs

     total energy              =    -338.05425779 Ry
     Harris-Foulkes estimate   =    -338.05424899 Ry
     estimated scf accuracy    <       0.00008345 Ry

     iteration #  5     ecut=    35.00 Ry     beta= 0.70
     Davidson diagonalization with overlap
     ethr =  4.64E-07,  avg # of iterations =  2.7

     total cpu time spent up to now is        1.4 secs

     total energy              =    -338.05427473 Ry
     Harris-Foulkes estimate   =    -338.05427523 Ry
     estimated scf accuracy    <       0.00000130 Ry

     iteration #  6     ecut=    35.00 Ry     beta= 0.70
     Davidson diagonalization with overlap
     ethr =  7.23E-09,  avg # of iterations =  2.0

     total cpu time spent up to now is        1.5 secs

     total energy              =    -338.05427502 Ry
     Harris-Foulkes estimate   =    -338.05427502 Ry
     estimated scf accuracy    <       0.00000002 Ry

     iteration #  7     ecut=    35.00 Ry     beta= 0.70
     Davidson diagonalization with overlap
     ethr =  9.65E-11,  avg # of iterations =  2.1

     total cpu time spent up to now is        1.6 secs

     End of self-consistent calculation

          k = 0.0000 0.0000 0.0000 (   259 PWs)   bands (ev):

   -86.6439 -45.0269 -45.0269 -45.0269   9.1273  15.8398  15.8398  15.8398
    17.3612  17.3612  41.5219  45.4465  45.4465

          k =-0.1667 0.1667-0.1667 (   268 PWs)   bands (ev):

   -86.6485 -45.4128 -45.4128 -45.1168  10.1345  15.8178  15.9043  15.9043
    16.7966  16.7966  36.4408  42.3260  43.6737

          k =-0.3333 0.3333-0.3333 (   256 PWs)   bands (ev):

   -86.6192 -45.1139 -45.1139 -44.8468  12.5324  15.9371  15.9603  15.9603
    17.7533  17.7533  28.4602  40.8607  42.6358

          k = 0.5000-0.5000 0.5000 (   266 PWs)   bands (ev):

   -86.6314 -45.5776 -45.5776 -45.0896  13.3129  15.5313  15.5313  17.5250
    17.7809  17.7809  24.0105  40.0557  42.5063

          k = 0.0000 0.3333 0.0000 (   266 PWs)   bands (ev):

   -86.6409 -45.3418 -45.1826 -45.1826  10.4748  15.4258  16.1600  16.1600
    16.6114  17.2041  39.3352  39.8068  39.8068

          k =-0.1667 0.5000-0.1667 (   259 PWs)   bands (ev):

   -86.6206 -45.2312 -45.0525 -44.9699  12.4792  15.0523  15.9704  16.5717
    17.5335  17.8164  31.5588  37.8042  38.1448

          k = 0.6667-0.3333 0.6667 (   251 PWs)   bands (ev):

   -86.6053 -44.9883 -44.9218 -44.8694  13.9952  15.5488  16.1311  16.4265
    18.1625  19.8652  24.9864  35.4982  38.1176

          k = 0.5000-0.1667 0.5000 (   258 PWs)   bands (ev):

   -86.6184 -45.1851 -45.1845 -45.0711  13.7632  15.5086  15.7267  16.1925
    17.4940  19.2756  26.7715  34.0321  40.8566

          k = 0.3333 0.0000 0.3333 (   263 PWs)   bands (ev):

   -86.6306 -45.3446 -45.2593 -44.9716  11.7115  15.5144  15.9696  16.3078
    16.5813  17.7449  33.8358  34.9069  44.4670

          k = 0.0000 0.6667 0.0000 (   250 PWs)   bands (ev):

   -86.6013 -44.8799 -44.8003 -44.8003  13.2818  14.6773  17.0883  17.6973
    17.6973  17.9367  33.3553  34.7391  34.7391

          k = 0.8333-0.1667 0.8333 (   251 PWs)   bands (ev):

   -86.5984 -45.1023 -44.8251 -44.8242  14.1064  14.5307  16.7417  17.5232
    18.1730  20.6032  28.4175  30.1019  34.2325

          k = 0.6667-0.0000 0.6667 (   256 PWs)   bands (ev):

   -86.6072 -45.1711 -45.1217 -44.9929  14.6124  14.8098  15.8065  17.0565
    17.7370  22.6927  25.2583  28.6913  36.5672

          k = 0.0000-1.0000 0.0000 (   254 PWs)   bands (ev):

   -86.6031 -45.1332 -45.0091 -45.0091  13.4614  14.0834  17.9791  18.3067
    18.3067  20.2522  27.2336  32.6642  32.6642

          k = 0.6667-0.3333 1.0000 (   255 PWs)   bands (ev):

   -86.6098 -45.0882 -45.0864 -44.9393  14.1167  14.8830  15.7731  17.1427
    17.4287  19.5876  29.7815  31.2040  34.8188

          k = 0.5000-0.1667 0.8333 (   258 PWs)   bands (ev):

   -86.6119 -45.3063 -45.1180 -45.1156  14.7153  14.7681  15.4888  16.8509
    17.9626  22.7253  24.6158  31.1736  32.4716

          k =-0.3333-1.0000 0.0000 (   258 PWs)   bands (ev):

   -86.6092 -45.3512 -45.2765 -44.9308  14.0916  14.6094  16.0536  17.3301
    18.2701  23.1833  27.4169  28.0823  30.3566

     the Fermi energy is    18.0371 ev

!    total energy              =    -338.05427502 Ry
     Harris-Foulkes estimate   =    -338.05427502 Ry
     estimated scf accuracy    <          3.1E-10 Ry

     The total energy is the sum of the following terms:

     one-electron contribution =    -183.79933637 Ry
     hartree contribution      =     103.35592431 Ry
     xc contribution           =     -34.22690690 Ry
     ewald contribution        =    -223.38275373 Ry
     smearing contrib. (-TS)   =      -0.00120233 Ry

     convergence has been achieved in   7 iterations

     Forces acting on atoms (cartesian axes, Ry/au):

     atom    1 type  1   force =     0.00000000    0.00000000    0.00000000

     Total force =     0.000000     Total SCF correction =     0.000000


     Computing stress (Cartesian axis) and pressure

          total   stress  (Ry/bohr**3)                   (kbar)     P=********
  -0.10331711   0.00000000  -0.00000000     -15198.47      0.00     -0.00
   0.00000000  -0.10331711   0.00000000          0.00 -15198.47      0.00
  -0.00000000   0.00000000  -0.10331711         -0.00      0.00 -15198.47


     Writing output data file Ni.save/

     init_run     :      0.13s CPU      0.13s WALL (       1 calls)
     electrons    :      0.67s CPU      0.73s WALL (       1 calls)
     forces       :      0.01s CPU      0.01s WALL (       1 calls)
     stress       :      0.03s CPU      0.03s WALL (       1 calls)

     Called by init_run:
     wfcinit      :      0.02s CPU      0.03s WALL (       1 calls)
     potinit      :      0.00s CPU      0.00s WALL (       1 calls)
     hinit0       :      0.10s CPU      0.10s WALL (       1 calls)

     Called by electrons:
     c_bands      :      0.54s CPU      0.60s WALL (       7 calls)
     sum_band     :      0.10s CPU      0.11s WALL (       7 calls)
     v_of_rho     :      0.01s CPU      0.01s WALL (       8 calls)
     newd         :      0.01s CPU      0.01s WALL (       8 calls)
     mix_rho      :      0.00s CPU      0.00s WALL (       7 calls)

     Called by c_bands:
     init_us_2    :      0.01s CPU      0.01s WALL (     272 calls)
     cegterg      :      0.53s CPU      0.58s WALL (     112 calls)

     Called by sum_band:
     sum_band:bec :      0.00s CPU      0.00s WALL (     112 calls)
     addusdens    :      0.01s CPU      0.01s WALL (       7 calls)

     Called by *egterg:
     h_psi        :      0.34s CPU      0.38s WALL (     407 calls)
     s_psi        :      0.01s CPU      0.01s WALL (     407 calls)
     g_psi        :      0.00s CPU      0.00s WALL (     279 calls)
     cdiaghg      :      0.13s CPU      0.14s WALL (     391 calls)

     Called by h_psi:
     h_psi:pot    :      0.34s CPU      0.38s WALL (     407 calls)
     h_psi:calbec :      0.02s CPU      0.02s WALL (     407 calls)
     vloc_psi     :      0.31s CPU      0.34s WALL (     407 calls)
     add_vuspsi   :      0.01s CPU      0.01s WALL (     407 calls)

     General routines
     calbec       :      0.03s CPU      0.03s WALL (     599 calls)
     fft          :      0.01s CPU      0.01s WALL (     114 calls)
     ffts         :      0.00s CPU      0.00s WALL (       7 calls)
     fftw         :      0.35s CPU      0.39s WALL (    9056 calls)

     Parallel routines
     fft_scatt_xy :      0.03s CPU      0.03s WALL (    9177 calls)
     fft_scatt_yz :      0.13s CPU      0.14s WALL (    9177 calls)

     PWSCF        :     1.53s CPU         1.65s WALL


   This run was terminated on:  22:33: 1  26Mar2024            

=------------------------------------------------------------------------------=
   JOB DONE.
=------------------------------------------------------------------------------=
