
     Program PWSCF v.6.3MaX starts on 26Mar2024 at 22:21:10 

     This program is part of the open-source Quantum ESPRESSO suite
     for quantum simulation of materials; please cite
         "P. Giannozzi et al., J. Phys.:Condens. Matter 21 395502 (2009);
         "P. Giannozzi et al., J. Phys.:Condens. Matter 29 465901 (2017);
          URL http://www.quantum-espresso.org", 
     in publications or presentations arising from this work. More details at
     http://www.quantum-espresso.org/quote

     Parallel version (MPI), running on     5 processors

     MPI processes distributed on     1 nodes
     R & G space division:  proc/nbgrp/npool/nimage =       5
     Waiting for input...
     Reading input from standard input

     Current dimensions of program PWSCF are:
     Max number of different atomic species (ntypx) = 10
     Max number of k-points (npk) =  40000
     Max angular momentum in pseudopotentials (lmaxx) =  3

     Subspace diagonalization in iterative solution of the eigenvalue problem:
     a serial algorithm will be used


     Parallelization info
     --------------------
     sticks:   dense  smooth     PW     G-vecs:    dense   smooth      PW
     Min         119     119     39                 1967     1967     361
     Max         119     119     40                 1969     1969     363
     Sum         595     595    199                 9841     9841    1807



     bravais-lattice index     =            2
     lattice parameter (alat)  =       6.6500  a.u.
     unit-cell volume          =      73.5199 (a.u.)^3
     number of atoms/cell      =            1
     number of atomic types    =            1
     number of electrons       =        18.00
     number of Kohn-Sham states=           13
     kinetic-energy cutoff     =     100.0000  Ry
     charge density cutoff     =     400.0000  Ry
     convergence threshold     =      1.0E-08
     mixing beta               =       0.7000
     number of iterations used =            8  plain     mixing
     Exchange-correlation      = PBESOL ( 1  4 10  8 0 0)

     celldm(1)=   6.650000  celldm(2)=   0.000000  celldm(3)=   0.000000
     celldm(4)=   0.000000  celldm(5)=   0.000000  celldm(6)=   0.000000

     crystal axes: (cart. coord. in units of alat)
               a(1) = (  -0.500000   0.000000   0.500000 )  
               a(2) = (   0.000000   0.500000   0.500000 )  
               a(3) = (  -0.500000   0.500000   0.000000 )  

     reciprocal axes: (cart. coord. in units 2 pi/alat)
               b(1) = ( -1.000000 -1.000000  1.000000 )  
               b(2) = (  1.000000  1.000000  1.000000 )  
               b(3) = ( -1.000000  1.000000 -1.000000 )  


     PseudoPot. # 1 for Ni read from file:
     /home/lorenzo/pseudos/Ni/Ni.pbesol-spn-rrkjus_psl.1.0.0.UPF
     MD5 check sum: 6fc0a587bf949a08f2faed986b854013
     Pseudo is Ultrasoft + core correction, Zval = 18.0
     Generated using "atomic" code by A. Dal Corso v.6.3
     Using radial grid of 1195 points,  6 beta functions with: 
                l(1) =   0
                l(2) =   0
                l(3) =   1
                l(4) =   1
                l(5) =   2
                l(6) =   2
     Q(r) pseudized with 0 coefficients 


     atomic species   valence    mass     pseudopotential
        Ni            18.00    58.69340     Ni( 1.00)

     48 Sym. Ops., with inversion, found



   Cartesian axes

     site n.     atom                  positions (alat units)
         1           Ni  tau(   1) = (   0.0000000   0.0000000   0.0000000  )

     number of k points=    35  gaussian smearing, width (Ry)=  0.0100
                       cart. coord. in units 2pi/alat
        k(    1) = (   0.0000000   0.0000000   0.0000000), wk =   0.0027435
        k(    2) = (  -0.1111111   0.1111111  -0.1111111), wk =   0.0219479
        k(    3) = (  -0.2222222   0.2222222  -0.2222222), wk =   0.0219479
        k(    4) = (  -0.3333333   0.3333333  -0.3333333), wk =   0.0219479
        k(    5) = (  -0.4444444   0.4444444  -0.4444444), wk =   0.0219479
        k(    6) = (   0.0000000   0.2222222   0.0000000), wk =   0.0164609
        k(    7) = (  -0.1111111   0.3333333  -0.1111111), wk =   0.0658436
        k(    8) = (  -0.2222222   0.4444444  -0.2222222), wk =   0.0658436
        k(    9) = (  -0.3333333   0.5555556  -0.3333333), wk =   0.0658436
        k(   10) = (   0.5555556  -0.3333333   0.5555556), wk =   0.0658436
        k(   11) = (   0.4444444  -0.2222222   0.4444444), wk =   0.0658436
        k(   12) = (   0.3333333  -0.1111111   0.3333333), wk =   0.0658436
        k(   13) = (   0.2222222  -0.0000000   0.2222222), wk =   0.0329218
        k(   14) = (   0.0000000   0.4444444   0.0000000), wk =   0.0164609
        k(   15) = (  -0.1111111   0.5555556  -0.1111111), wk =   0.0658436
        k(   16) = (  -0.2222222   0.6666667  -0.2222222), wk =   0.0658436
        k(   17) = (   0.6666667  -0.2222222   0.6666667), wk =   0.0658436
        k(   18) = (   0.5555556  -0.1111111   0.5555556), wk =   0.0658436
        k(   19) = (   0.4444444   0.0000000   0.4444444), wk =   0.0329218
        k(   20) = (   0.0000000   0.6666667   0.0000000), wk =   0.0164609
        k(   21) = (  -0.1111111   0.7777778  -0.1111111), wk =   0.0658436
        k(   22) = (   0.7777778  -0.1111111   0.7777778), wk =   0.0658436
        k(   23) = (   0.6666667  -0.0000000   0.6666667), wk =   0.0329218
        k(   24) = (   0.0000000   0.8888889   0.0000000), wk =   0.0164609
        k(   25) = (   0.8888889   0.0000000   0.8888889), wk =   0.0329218
        k(   26) = (  -0.2222222   0.4444444   0.0000000), wk =   0.0658436
        k(   27) = (  -0.3333333   0.5555556  -0.1111111), wk =   0.1316872
        k(   28) = (   0.5555556  -0.3333333   0.7777778), wk =   0.1316872
        k(   29) = (  -0.2222222   0.6666667   0.0000000), wk =   0.0658436
        k(   30) = (   0.6666667  -0.2222222   0.8888889), wk =   0.1316872
        k(   31) = (   0.5555556  -0.1111111   0.7777778), wk =   0.1316872
        k(   32) = (   0.4444444   0.0000000   0.6666667), wk =   0.0658436
        k(   33) = (   0.7777778  -0.1111111   1.0000000), wk =   0.0658436
        k(   34) = (   0.6666667  -0.0000000   0.8888889), wk =   0.0658436
        k(   35) = (   0.5555556  -0.1111111   1.0000000), wk =   0.0658436

     Dense  grid:     9841 G-vectors     FFT dimensions: (  30,  30,  30)

     Estimated max dynamical RAM per process >      10.77 MB

     Estimated total dynamical RAM >      53.83 MB

     Check: negative/imaginary core charge=   -0.000004    0.000000

     Initial potential from superposition of free atoms

     starting charge   17.99977, renormalised to   18.00000
     Starting wfcs are   10 randomized atomic wfcs +    3 random wfcs

     total cpu time spent up to now is        1.1 secs

     Self-consistent Calculation

     iteration #  1     ecut=   100.00 Ry     beta= 0.70
     Davidson diagonalization with overlap
     ethr =  1.00E-02,  avg # of iterations =  3.3

     Threshold (ethr) on eigenvalues was too large:
     Diagonalizing with lowered threshold

     Davidson diagonalization with overlap
     ethr =  1.11E-05,  avg # of iterations =  3.3

     total cpu time spent up to now is        2.5 secs

     total energy              =    -339.40227377 Ry
     Harris-Foulkes estimate   =    -339.40308041 Ry
     estimated scf accuracy    <       0.00193521 Ry

     iteration #  2     ecut=   100.00 Ry     beta= 0.70
     Davidson diagonalization with overlap
     ethr =  1.08E-05,  avg # of iterations =  2.0

     total cpu time spent up to now is        3.1 secs

     total energy              =    -339.40191999 Ry
     Harris-Foulkes estimate   =    -339.40292984 Ry
     estimated scf accuracy    <       0.00202576 Ry

     iteration #  3     ecut=   100.00 Ry     beta= 0.70
     Davidson diagonalization with overlap
     ethr =  1.08E-05,  avg # of iterations =  2.0

     total cpu time spent up to now is        3.6 secs

     total energy              =    -339.40243229 Ry
     Harris-Foulkes estimate   =    -339.40270119 Ry
     estimated scf accuracy    <       0.00079753 Ry

     iteration #  4     ecut=   100.00 Ry     beta= 0.70
     Davidson diagonalization with overlap
     ethr =  4.43E-06,  avg # of iterations =  1.5

     total cpu time spent up to now is        4.1 secs

     total energy              =    -339.40255033 Ry
     Harris-Foulkes estimate   =    -339.40255018 Ry
     estimated scf accuracy    <       0.00000031 Ry

     iteration #  5     ecut=   100.00 Ry     beta= 0.70
     Davidson diagonalization with overlap
     ethr =  1.71E-09,  avg # of iterations =  3.1

     total cpu time spent up to now is        4.9 secs

     total energy              =    -339.40255280 Ry
     Harris-Foulkes estimate   =    -339.40255290 Ry
     estimated scf accuracy    <       0.00000039 Ry

     iteration #  6     ecut=   100.00 Ry     beta= 0.70
     Davidson diagonalization with overlap
     ethr =  1.71E-09,  avg # of iterations =  1.0

     total cpu time spent up to now is        5.4 secs

     total energy              =    -339.40255280 Ry
     Harris-Foulkes estimate   =    -339.40255282 Ry
     estimated scf accuracy    <       0.00000007 Ry

     iteration #  7     ecut=   100.00 Ry     beta= 0.70
     Davidson diagonalization with overlap
     ethr =  3.73E-10,  avg # of iterations =  1.1

     total cpu time spent up to now is        5.8 secs

     End of self-consistent calculation

          k = 0.0000 0.0000 0.0000 (  1243 PWs)   bands (ev):

   -85.1759 -45.5885 -45.5885 -45.5885   8.6024  15.6994  15.6994  15.6994
    16.8265  16.8265  41.2799  45.1991  45.1991

          k =-0.1111 0.1111-0.1111 (  1248 PWs)   bands (ev):

   -85.1719 -45.6149 -45.5923 -45.5923   9.0820  15.5729  15.8003  15.8003
    16.7884  16.7884  39.0661  42.4565  44.2659

          k =-0.2222 0.2222-0.2222 (  1245 PWs)   bands (ev):

   -85.1617 -45.6813 -45.6018 -45.6018  10.4247  15.3392  15.9177  15.9177
    16.8510  16.8510  33.5133  41.6308  43.1948

          k =-0.3333 0.3333-0.3333 (  1236 PWs)   bands (ev):

   -85.1501 -45.7565 -45.6126 -45.6126  12.1380  15.5269  15.8109  15.8109
    17.2022  17.2022  28.2711  40.6066  42.5687

          k =-0.4444 0.4444-0.4444 (  1233 PWs)   bands (ev):

   -85.1426 -45.8051 -45.6198 -45.6198  13.0098  15.6807  15.6807  16.8981
    17.5172  17.5172  24.2902  39.8861  42.3390

          k = 0.0000 0.2222 0.0000 (  1251 PWs)   bands (ev):

   -85.1706 -45.6141 -45.5983 -45.5983   9.2401  15.4648  15.8821  15.8821
    16.6152  16.9097  40.1904  41.8156  41.8156

          k =-0.1111 0.3333-0.1111 (  1251 PWs)   bands (ev):

   -85.1625 -45.6634 -45.6096 -45.6060  10.2943  15.2081  15.9982  16.0624
    16.5648  17.0172  35.6944  40.1042  40.3894

          k =-0.2222 0.4444-0.2222 (  1245 PWs)   bands (ev):

   -85.1513 -45.7327 -45.6209 -45.6182  11.9398  15.0895  15.7635  16.0477
    17.1378  17.2999  30.2260  39.2078  39.3733

          k =-0.3333 0.5556-0.3333 (  1238 PWs)   bands (ev):

   -85.1424 -45.7875 -45.6315 -45.6268  13.1473  15.4257  15.7710  15.9076
    17.5566  18.2457  25.5880  38.1236  39.2440

          k = 0.5556-0.3333 0.5556 (  1233 PWs)   bands (ev):

   -85.1399 -45.8025 -45.6395 -45.6247  13.3555  15.4361  15.8378  16.1772
    17.5002  19.1428  23.7416  36.9892  40.3527

          k = 0.4444-0.2222 0.4444 (  1242 PWs)   bands (ev):

   -85.1449 -45.7715 -45.6379 -45.6155  12.8930  15.4723  15.6144  15.9144
    17.1129  18.0899  27.0063  36.4937  41.5983

          k = 0.3333-0.1111 0.3333 (  1250 PWs)   bands (ev):

   -85.1552 -45.7095 -45.6267 -45.6035  11.3748  15.1558  15.8368  16.0775
    16.6346  17.3784  32.0020  36.7732  43.4848

          k = 0.2222-0.0000 0.2222 (  1261 PWs)   bands (ev):

   -85.1659 -45.6475 -45.6088 -45.5944   9.8528  15.3672  15.9160  15.9627
    16.5865  16.9612  37.2289  38.1651  44.4804

          k = 0.0000 0.4444 0.0000 (  1259 PWs)   bands (ev):

   -85.1570 -45.6778 -45.6232 -45.6232  10.9882  14.8934  16.1991  16.3968
    16.3968  17.1232  37.8070  37.8070  38.7472

          k =-0.1111 0.5556-0.1111 (  1250 PWs)   bands (ev):

   -85.1480 -45.7247 -45.6385 -45.6362  12.2758  14.6300  15.8725  16.5596
    17.1665  17.3501  32.7994  36.4457  36.6352

          k =-0.2222 0.6667-0.2222 (  1247 PWs)   bands (ev):

   -85.1395 -45.7667 -45.6600 -45.6425  13.4856  14.6179  15.6075  16.4559
    17.5962  18.7963  27.7785  34.2639  36.1898

          k = 0.6667-0.2222 0.6667 (  1235 PWs)   bands (ev):

   -85.1357 -45.7812 -45.6808 -45.6392  13.9585  14.7792  15.5968  16.3254
    17.5198  21.1431  24.0799  32.4601  37.1455

          k = 0.5556-0.1111 0.5556 (  1242 PWs)   bands (ev):

   -85.1382 -45.7659 -45.6870 -45.6280  13.8960  15.0417  15.2811  16.2891
    17.1066  19.8850  26.3515  31.4799  39.2194

          k = 0.4444 0.0000 0.4444 (  1245 PWs)   bands (ev):

   -85.1459 -45.7379 -45.6653 -45.6139  12.8596  14.9756  15.4973  16.3438
    16.6049  18.3103  30.7610  31.7785  42.1354

          k = 0.0000 0.6667 0.0000 (  1258 PWs)   bands (ev):

   -85.1416 -45.7486 -45.6514 -45.6514  12.8484  14.2797  16.6893  17.1008
    17.1008  17.3712  33.3199  34.5770  34.5770

          k =-0.1111 0.7778-0.1111 (  1240 PWs)   bands (ev):

   -85.1353 -45.7737 -45.6704 -45.6594  13.3796  14.1385  16.5538  17.1287
    17.6147  18.9197  30.4383  30.9566  33.8842

          k = 0.7778-0.1111 0.7778 (  1236 PWs)   bands (ev):

   -85.1319 -45.7722 -45.7031 -45.6566  13.8645  14.2528  16.0463  16.9616
    17.5813  21.9150  26.2748  28.8006  34.5421

          k = 0.6667-0.0000 0.6667 (  1234 PWs)   bands (ev):

   -85.1330 -45.7399 -45.7389 -45.6442  14.3310  14.4880  15.4504  16.7067
    17.2830  22.5544  25.2564  28.2779  36.4303

          k = 0.0000 0.8889 0.0000 (  1234 PWs)   bands (ev):

   -85.1316 -45.7937 -45.6697 -45.6697  13.2552  13.8978  17.5360  17.6581
    17.6581  19.3083  28.0878  32.7024  32.7024

          k = 0.8889 0.0000 0.8889 (  1240 PWs)   bands (ev):

   -85.1302 -45.7923 -45.6835 -45.6687  13.4240  13.9507  17.0813  17.4190
    17.6894  21.0528  27.1018  29.9308  32.9413

          k =-0.2222 0.4444 0.0000 (  1246 PWs)   bands (ev):

   -85.1539 -45.7027 -45.6351 -45.6128  11.5182  14.9417  15.8119  16.4130
    16.5638  17.4015  34.1377  34.7991  40.5513

          k =-0.3333 0.5556-0.1111 (  1248 PWs)   bands (ev):

   -85.1441 -45.7505 -45.6571 -45.6242  13.0437  14.8791  15.4597  16.3521
    17.0590  18.2965  29.1405  33.9972  37.9375

          k = 0.5556-0.3333 0.7778 (  1235 PWs)   bands (ev):

   -85.1377 -45.7830 -45.6674 -45.6341  13.7813  15.0062  15.5310  16.2045
    17.4462  20.0448  24.8217  34.2971  35.9350

          k =-0.2222 0.6667 0.0000 (  1245 PWs)   bands (ev):

   -85.1403 -45.7530 -45.6651 -45.6448  13.2674  14.4327  15.7367  17.0769
    17.0984  18.3925  31.6282  32.2343  34.0429

          k = 0.6667-0.2222 0.8889 (  1236 PWs)   bands (ev):

   -85.1344 -45.7668 -45.6914 -45.6534  13.9735  14.4805  15.4954  16.8201
    17.5032  20.6276  27.1621  31.4232  32.3656

          k = 0.5556-0.1111 0.7778 (  1232 PWs)   bands (ev):

   -85.1330 -45.7598 -45.7128 -45.6503  14.4269  14.4886  15.2883  16.6234
    17.4591  22.6850  24.5595  29.9672  33.3907

          k = 0.4444 0.0000 0.6667 (  1239 PWs)   bands (ev):

   -85.1369 -45.7544 -45.6997 -45.6375  14.1244  14.8702  14.9661  16.6345
    17.1210  20.0828  28.1312  29.7682  35.3496

          k = 0.7778-0.1111 1.0000 (  1238 PWs)   bands (ev):

   -85.1314 -45.7814 -45.6846 -45.6693  13.5898  14.1077  16.4438  17.2883
    17.6572  20.9164  28.3549  30.1065  30.9983

          k = 0.6667-0.0000 0.8889 (  1243 PWs)   bands (ev):

   -85.1305 -45.7646 -45.7125 -45.6660  13.9609  14.3464  15.8249  16.9692
    17.6541  23.4118  26.2407  27.6819  31.5735

          k = 0.5556-0.1111 1.0000 (  1233 PWs)   bands (ev):

   -85.1310 -45.7498 -45.7220 -45.6677  14.1907  14.7502  15.1504  16.7828
    17.6548  23.4127  26.5578  28.6045  29.6859

     the Fermi energy is    17.5666 ev

!    total energy              =    -339.40255280 Ry
     Harris-Foulkes estimate   =    -339.40255280 Ry
     estimated scf accuracy    <          4.4E-10 Ry

     The total energy is the sum of the following terms:

     one-electron contribution =    -186.62978581 Ry
     hartree contribution      =     104.53659163 Ry
     xc contribution           =     -33.92417191 Ry
     ewald contribution        =    -223.38275369 Ry
     smearing contrib. (-TS)   =      -0.00243302 Ry

     convergence has been achieved in   7 iterations

     Forces acting on atoms (cartesian axes, Ry/au):

     atom    1 type  1   force =     0.00000000    0.00000000    0.00000000

     Total force =     0.000000     Total SCF correction =     0.000000


     Computing stress (Cartesian axis) and pressure

          total   stress  (Ry/bohr**3)                   (kbar)     P= -109.40
  -0.00074372  -0.00000000  -0.00000000       -109.40     -0.00     -0.00
  -0.00000000  -0.00074372   0.00000000         -0.00   -109.40      0.00
  -0.00000000   0.00000000  -0.00074372         -0.00      0.00   -109.40


     Writing output data file Ni.save/

     init_run     :      0.38s CPU      0.40s WALL (       1 calls)
     electrons    :      4.53s CPU      4.71s WALL (       1 calls)
     forces       :      0.07s CPU      0.07s WALL (       1 calls)
     stress       :      0.21s CPU      0.21s WALL (       1 calls)

     Called by init_run:
     wfcinit      :      0.16s CPU      0.17s WALL (       1 calls)
     potinit      :      0.01s CPU      0.01s WALL (       1 calls)
     hinit0       :      0.19s CPU      0.19s WALL (       1 calls)

     Called by electrons:
     c_bands      :      3.74s CPU      3.89s WALL (       8 calls)
     sum_band     :      0.67s CPU      0.70s WALL (       8 calls)
     v_of_rho     :      0.05s CPU      0.05s WALL (       8 calls)
     newd         :      0.08s CPU      0.08s WALL (       8 calls)
     mix_rho      :      0.00s CPU      0.01s WALL (       8 calls)

     Called by c_bands:
     init_us_2    :      0.10s CPU      0.11s WALL (     665 calls)
     cegterg      :      3.59s CPU      3.73s WALL (     280 calls)

     Called by sum_band:
     sum_band:bec :      0.00s CPU      0.00s WALL (     280 calls)
     addusdens    :      0.08s CPU      0.08s WALL (       8 calls)

     Called by *egterg:
     h_psi        :      2.75s CPU      2.86s WALL (     924 calls)
     s_psi        :      0.09s CPU      0.09s WALL (     924 calls)
     g_psi        :      0.01s CPU      0.01s WALL (     609 calls)
     cdiaghg      :      0.32s CPU      0.33s WALL (     854 calls)

     Called by h_psi:
     h_psi:pot    :      2.73s CPU      2.84s WALL (     924 calls)
     h_psi:calbec :      0.14s CPU      0.14s WALL (     924 calls)
     vloc_psi     :      2.50s CPU      2.60s WALL (     924 calls)
     add_vuspsi   :      0.09s CPU      0.09s WALL (     924 calls)

     General routines
     calbec       :      0.23s CPU      0.23s WALL (    1379 calls)
     fft          :      0.03s CPU      0.03s WALL (     115 calls)
     ffts         :      0.00s CPU      0.00s WALL (       8 calls)
     fftw         :      2.79s CPU      2.91s WALL (   22018 calls)

     Parallel routines
     fft_scatt_xy :      0.22s CPU      0.23s WALL (   22141 calls)
     fft_scatt_yz :      0.83s CPU      0.86s WALL (   22141 calls)

     PWSCF        :     5.97s CPU         6.22s WALL


   This run was terminated on:  22:21:16  26Mar2024            

=------------------------------------------------------------------------------=
   JOB DONE.
=------------------------------------------------------------------------------=
