
     Program PWSCF v.6.3MaX starts on 26Mar2024 at 22:59:47 

     This program is part of the open-source Quantum ESPRESSO suite
     for quantum simulation of materials; please cite
         "P. Giannozzi et al., J. Phys.:Condens. Matter 21 395502 (2009);
         "P. Giannozzi et al., J. Phys.:Condens. Matter 29 465901 (2017);
          URL http://www.quantum-espresso.org", 
     in publications or presentations arising from this work. More details at
     http://www.quantum-espresso.org/quote

     Parallel version (MPI), running on     5 processors

     MPI processes distributed on     1 nodes
     R & G space division:  proc/nbgrp/npool/nimage =       5
     Waiting for input...
     Reading input from standard input

     Current dimensions of program PWSCF are:
     Max number of different atomic species (ntypx) = 10
     Max number of k-points (npk) =  40000
     Max angular momentum in pseudopotentials (lmaxx) =  3

     Subspace diagonalization in iterative solution of the eigenvalue problem:
     a serial algorithm will be used


     Parallelization info
     --------------------
     sticks:   dense  smooth     PW     G-vecs:    dense   smooth      PW
     Min         102     102     32                 1559     1559     280
     Max         103     103     33                 1562     1562     283
     Sum         511     511    163                 7799     7799    1411



     bravais-lattice index     =            2
     lattice parameter (alat)  =       6.6500  a.u.
     unit-cell volume          =      73.5199 (a.u.)^3
     number of atoms/cell      =            1
     number of atomic types    =            1
     number of electrons       =        18.00
     number of Kohn-Sham states=           13
     kinetic-energy cutoff     =      85.0000  Ry
     charge density cutoff     =     340.0000  Ry
     convergence threshold     =      1.0E-08
     mixing beta               =       0.7000
     number of iterations used =            8  plain     mixing
     Exchange-correlation      = PBE ( 1  4  3  4 0 0)

     celldm(1)=   6.650000  celldm(2)=   0.000000  celldm(3)=   0.000000
     celldm(4)=   0.000000  celldm(5)=   0.000000  celldm(6)=   0.000000

     crystal axes: (cart. coord. in units of alat)
               a(1) = (  -0.500000   0.000000   0.500000 )  
               a(2) = (   0.000000   0.500000   0.500000 )  
               a(3) = (  -0.500000   0.500000   0.000000 )  

     reciprocal axes: (cart. coord. in units 2 pi/alat)
               b(1) = ( -1.000000 -1.000000  1.000000 )  
               b(2) = (  1.000000  1.000000  1.000000 )  
               b(3) = ( -1.000000  1.000000 -1.000000 )  


     PseudoPot. # 1 for Ni read from file:
     /home/lorenzo/pseudos/Ni/Ni.pbe-spn-rrkjus_psl.1.0.0.UPF
     MD5 check sum: 8b3fc9aac6dafe35f580d41bb18c3945
     Pseudo is Ultrasoft + core correction, Zval = 18.0
     Generated using "atomic" code by A. Dal Corso v.6.3
     Using radial grid of 1195 points,  6 beta functions with: 
                l(1) =   0
                l(2) =   0
                l(3) =   1
                l(4) =   1
                l(5) =   2
                l(6) =   2
     Q(r) pseudized with 0 coefficients 


     atomic species   valence    mass     pseudopotential
        Ni            18.00    58.69340     Ni( 1.00)

     48 Sym. Ops., with inversion, found



   Cartesian axes

     site n.     atom                  positions (alat units)
         1           Ni  tau(   1) = (   0.0000000   0.0000000   0.0000000  )

     number of k points=    29  gaussian smearing, width (Ry)=  0.0100
                       cart. coord. in units 2pi/alat
        k(    1) = (   0.0000000   0.0000000   0.0000000), wk =   0.0039062
        k(    2) = (  -0.1250000   0.1250000  -0.1250000), wk =   0.0312500
        k(    3) = (  -0.2500000   0.2500000  -0.2500000), wk =   0.0312500
        k(    4) = (  -0.3750000   0.3750000  -0.3750000), wk =   0.0312500
        k(    5) = (   0.5000000  -0.5000000   0.5000000), wk =   0.0156250
        k(    6) = (   0.0000000   0.2500000   0.0000000), wk =   0.0234375
        k(    7) = (  -0.1250000   0.3750000  -0.1250000), wk =   0.0937500
        k(    8) = (  -0.2500000   0.5000000  -0.2500000), wk =   0.0937500
        k(    9) = (   0.6250000  -0.3750000   0.6250000), wk =   0.0937500
        k(   10) = (   0.5000000  -0.2500000   0.5000000), wk =   0.0937500
        k(   11) = (   0.3750000  -0.1250000   0.3750000), wk =   0.0937500
        k(   12) = (   0.2500000   0.0000000   0.2500000), wk =   0.0468750
        k(   13) = (   0.0000000   0.5000000   0.0000000), wk =   0.0234375
        k(   14) = (  -0.1250000   0.6250000  -0.1250000), wk =   0.0937500
        k(   15) = (   0.7500000  -0.2500000   0.7500000), wk =   0.0937500
        k(   16) = (   0.6250000  -0.1250000   0.6250000), wk =   0.0937500
        k(   17) = (   0.5000000   0.0000000   0.5000000), wk =   0.0468750
        k(   18) = (   0.0000000   0.7500000   0.0000000), wk =   0.0234375
        k(   19) = (   0.8750000  -0.1250000   0.8750000), wk =   0.0937500
        k(   20) = (   0.7500000   0.0000000   0.7500000), wk =   0.0468750
        k(   21) = (   0.0000000  -1.0000000   0.0000000), wk =   0.0117188
        k(   22) = (  -0.2500000   0.5000000   0.0000000), wk =   0.0937500
        k(   23) = (   0.6250000  -0.3750000   0.8750000), wk =   0.1875000
        k(   24) = (   0.5000000  -0.2500000   0.7500000), wk =   0.0937500
        k(   25) = (   0.7500000  -0.2500000   1.0000000), wk =   0.0937500
        k(   26) = (   0.6250000  -0.1250000   0.8750000), wk =   0.1875000
        k(   27) = (   0.5000000   0.0000000   0.7500000), wk =   0.0937500
        k(   28) = (  -0.2500000  -1.0000000   0.0000000), wk =   0.0468750
        k(   29) = (  -0.5000000  -1.0000000   0.0000000), wk =   0.0234375

     Dense  grid:     7799 G-vectors     FFT dimensions: (  27,  27,  27)

     Estimated max dynamical RAM per process >       8.51 MB

     Estimated total dynamical RAM >      42.54 MB

     Check: negative/imaginary core charge=   -0.000003    0.000000

     Initial potential from superposition of free atoms

     starting charge   17.99975, renormalised to   18.00000
     Starting wfcs are   10 randomized atomic wfcs +    3 random wfcs

     total cpu time spent up to now is        1.0 secs

     Self-consistent Calculation

     iteration #  1     ecut=    85.00 Ry     beta= 0.70
     Davidson diagonalization with overlap
     ethr =  1.00E-02,  avg # of iterations =  3.5

     Threshold (ethr) on eigenvalues was too large:
     Diagonalizing with lowered threshold

     Davidson diagonalization with overlap
     ethr =  2.15E-05,  avg # of iterations =  3.1

     total cpu time spent up to now is        1.9 secs

     total energy              =    -339.60146052 Ry
     Harris-Foulkes estimate   =    -339.60380750 Ry
     estimated scf accuracy    <       0.00387065 Ry

     iteration #  2     ecut=    85.00 Ry     beta= 0.70
     Davidson diagonalization with overlap
     ethr =  2.15E-05,  avg # of iterations =  2.4

     total cpu time spent up to now is        2.3 secs

     total energy              =    -339.60051224 Ry
     Harris-Foulkes estimate   =    -339.60612762 Ry
     estimated scf accuracy    <       0.01649228 Ry

     iteration #  3     ecut=    85.00 Ry     beta= 0.70
     Davidson diagonalization with overlap
     ethr =  2.15E-05,  avg # of iterations =  2.1

     total cpu time spent up to now is        2.6 secs

     total energy              =    -339.60311690 Ry
     Harris-Foulkes estimate   =    -339.60313913 Ry
     estimated scf accuracy    <       0.00011297 Ry

     iteration #  4     ecut=    85.00 Ry     beta= 0.70
     Davidson diagonalization with overlap
     ethr =  6.28E-07,  avg # of iterations =  2.2

     total cpu time spent up to now is        3.0 secs

     total energy              =    -339.60313440 Ry
     Harris-Foulkes estimate   =    -339.60313423 Ry
     estimated scf accuracy    <       0.00000069 Ry

     iteration #  5     ecut=    85.00 Ry     beta= 0.70
     Davidson diagonalization with overlap
     ethr =  3.81E-09,  avg # of iterations =  2.2

     total cpu time spent up to now is        3.4 secs

     total energy              =    -339.60313454 Ry
     Harris-Foulkes estimate   =    -339.60313456 Ry
     estimated scf accuracy    <       0.00000006 Ry

     iteration #  6     ecut=    85.00 Ry     beta= 0.70
     Davidson diagonalization with overlap
     ethr =  3.27E-10,  avg # of iterations =  1.7

     total cpu time spent up to now is        3.7 secs

     End of self-consistent calculation

          k = 0.0000 0.0000 0.0000 (   941 PWs)   bands (ev):

   -85.3088 -45.5696 -45.5696 -45.5696   8.8227  15.8916  15.8916  15.8916
    16.9974  16.9974  41.4889  45.4338  45.4338

          k =-0.1250 0.1250-0.1250 (   953 PWs)   bands (ev):

   -85.3039 -45.6028 -45.5745 -45.5745   9.4272  15.7359  16.0131  16.0131
    16.9549  16.9549  38.6339  42.5457  44.3479

          k =-0.2500 0.2500-0.2500 (   962 PWs)   bands (ev):

   -85.2919 -45.6813 -45.5861 -45.5861  11.0749  15.5078  16.0952  16.0952
    17.0939  17.0939  32.3551  41.5914  43.2339

          k =-0.3750 0.3750-0.3750 (   972 PWs)   bands (ev):

   -85.2800 -45.7598 -45.5974 -45.5974  12.8270  15.9363  15.9363  16.1240
    17.5216  17.5216  26.7642  40.4732  42.6887

          k = 0.5000-0.5000 0.5000 (   978 PWs)   bands (ev):

   -85.2750 -45.7920 -45.6023 -45.6023  13.2902  15.8447  15.8447  17.5447
    17.7396  17.7396  23.7722  39.9920  42.5715

          k = 0.0000 0.2500 0.0000 (   950 PWs)   bands (ev):

   -85.3022 -45.6012 -45.5821 -45.5821   9.6258  15.5996  16.1210  16.1210
    16.7372  17.1011  40.2008  41.5280  41.5280

          k =-0.1250 0.3750-0.1250 (   962 PWs)   bands (ev):

   -85.2926 -45.6601 -45.5956 -45.5917  10.9269  15.3053  16.1602  16.3114
    16.8102  17.2564  34.8158  39.6876  40.1758

          k =-0.2500 0.5000-0.2500 (   964 PWs)   bands (ev):

   -85.2807 -45.7338 -45.6071 -45.6068  12.7599  15.2949  15.8446  16.2348
    17.6023  17.6989  28.8383  38.8135  38.9438

          k = 0.6250-0.3750 0.6250 (   976 PWs)   bands (ev):

   -85.2734 -45.7780 -45.6217 -45.6100  13.5975  15.5369  16.0888  16.1687
    17.7549  19.3146  24.3530  37.2004  39.4834

          k = 0.5000-0.2500 0.5000 (   975 PWs)   bands (ev):

   -85.2750 -45.7676 -45.6260 -45.6022  13.4880  15.6395  15.9698  16.0885
    17.4613  18.8993  25.5575  36.1787  41.4207

          k = 0.3750-0.1250 0.3750 (   964 PWs)   bands (ev):

   -85.2847 -45.7096 -45.6165 -45.5885  12.1894  15.3238  15.9319  16.2594
    16.9010  17.8136  30.7561  36.1567  43.1102

          k = 0.2500 0.0000 0.2500 (   963 PWs)   bands (ev):

   -85.2966 -45.6415 -45.5954 -45.5773  10.3881  15.4932  16.1105  16.2188
    16.7121  17.2117  36.6129  37.4615  45.0391

          k = 0.0000 0.5000 0.0000 (   982 PWs)   bands (ev):

   -85.2864 -45.6775 -45.6122 -45.6122  11.7390  14.9270  16.3345  16.7524
    16.7524  17.3553  37.1404  37.1404  37.9064

          k =-0.1250 0.6250-0.1250 (   981 PWs)   bands (ev):

   -85.2767 -45.7249 -45.6313 -45.6253  13.0777  14.6706  16.0798  16.8800
    17.6398  17.8459  31.7596  35.0318  35.8447

          k = 0.7500-0.2500 0.7500 (   977 PWs)   bands (ev):

   -85.2695 -45.7543 -45.6594 -45.6280  14.0351  14.7237  15.8501  16.7273
    17.7934  20.3333  26.4403  32.4840  36.0575

          k = 0.6250-0.1250 0.6250 (   974 PWs)   bands (ev):

   -85.2688 -45.7481 -45.6811 -45.6185  14.3548  14.9428  15.6181  16.5982
    17.4865  21.5580  25.0100  30.8730  37.8128

          k = 0.5000 0.0000 0.5000 (   975 PWs)   bands (ev):

   -85.2751 -45.7290 -45.6642 -45.6023  13.7557  15.1834  15.4515  16.5425
    16.9723  19.1832  29.4945  30.8283  40.7981

          k = 0.0000 0.7500 0.0000 (   982 PWs)   bands (ev):

   -85.2705 -45.7503 -45.6414 -45.6414  13.3407  14.2955  17.5357  17.5357
    17.6158  17.7268  31.3479  33.9200  33.9200

          k = 0.8750-0.1250 0.8750 (   978 PWs)   bands (ev):

   -85.2655 -45.7647 -45.6628 -45.6460  13.6643  14.2346  16.9785  17.4460
    17.8466  20.5073  28.6864  29.9830  33.6078

          k = 0.7500 0.0000 0.7500 (   977 PWs)   bands (ev):

   -85.2648 -45.7438 -45.6997 -45.6363  14.1786  14.4808  16.1383  17.1537
    17.6617  23.7119  25.2630  27.9170  35.0309

          k = 0.0000-1.0000 0.0000 (   982 PWs)   bands (ev):

   -85.2639 -45.7796 -45.6537 -45.6537  13.4466  14.0448  17.7253  17.9246
    17.9246  20.2930  27.2318  32.6898  32.6898

          k =-0.2500 0.5000 0.0000 (   971 PWs)   bands (ev):

   -85.2830 -45.7012 -45.6274 -45.6000  12.3644  15.0239  15.8613  16.7667
    16.8127  17.8483  33.2020  33.8965  39.2599

          k = 0.6250-0.3750 0.8750 (   977 PWs)   bands (ev):

   -85.2734 -45.7437 -45.6519 -45.6136  13.8301  15.0498  15.5031  16.6000
    17.4183  19.2912  27.7961  33.3270  36.4217

          k = 0.5000-0.2500 0.7500 (   972 PWs)   bands (ev):

   -85.2694 -45.7616 -45.6595 -45.6208  14.2040  15.0307  15.7132  16.4700
    17.6616  21.3871  24.1396  33.8763  34.7769

          k = 0.7500-0.2500 1.0000 (   977 PWs)   bands (ev):

   -85.2695 -45.7460 -45.6588 -45.6363  13.8147  14.5241  16.0220  17.3271
    17.5319  19.6020  30.6744  31.2880  32.2422

          k = 0.6250-0.1250 0.8750 (   977 PWs)   bands (ev):

   -85.2655 -45.7417 -45.6912 -45.6415  14.3168  14.6747  15.6864  17.0034
    17.7646  22.7893  26.0275  29.6767  31.9139

          k = 0.5000 0.0000 0.7500 (   976 PWs)   bands (ev):

   -85.2671 -45.7296 -45.7014 -45.6300  14.6047  14.9098  15.1995  16.8534
    17.5393  21.9528  26.7960  29.0615  33.7031

          k =-0.2500-1.0000 0.0000 (   974 PWs)   bands (ev):

   -85.2639 -45.7610 -45.6718 -45.6541  13.8419  14.3200  16.5998  17.3844
    17.9253  22.2956  27.4325  29.6704  30.7293

          k =-0.5000-1.0000 0.0000 (   952 PWs)   bands (ev):

   -85.2638 -45.7159 -45.7159 -45.6536  14.3598  15.1697  15.1697  16.9153
    17.9262  25.7106  25.7106  27.9466  29.0161

     the Fermi energy is    17.7551 ev

!    total energy              =    -339.60313455 Ry
     Harris-Foulkes estimate   =    -339.60313455 Ry
     estimated scf accuracy    <          1.7E-10 Ry

     The total energy is the sum of the following terms:

     one-electron contribution =    -186.66288037 Ry
     hartree contribution      =     104.77006333 Ry
     xc contribution           =     -34.32479815 Ry
     ewald contribution        =    -223.38275369 Ry
     smearing contrib. (-TS)   =      -0.00276567 Ry

     convergence has been achieved in   6 iterations

     Forces acting on atoms (cartesian axes, Ry/au):

     atom    1 type  1   force =     0.00000000    0.00000000    0.00000000

     Total force =     0.000000     Total SCF correction =     0.000000


     Computing stress (Cartesian axis) and pressure

          total   stress  (Ry/bohr**3)                   (kbar)     P=  -43.87
  -0.00029820  -0.00000000   0.00000000        -43.87     -0.00      0.00
  -0.00000000  -0.00029820   0.00000000         -0.00    -43.87      0.00
   0.00000000  -0.00000000  -0.00029820          0.00     -0.00    -43.87


     Writing output data file Ni.save/

     init_run     :      0.30s CPU      0.31s WALL (       1 calls)
     electrons    :      2.56s CPU      2.67s WALL (       1 calls)
     forces       :      0.04s CPU      0.04s WALL (       1 calls)
     stress       :      0.17s CPU      0.17s WALL (       1 calls)

     Called by init_run:
     wfcinit      :      0.12s CPU      0.12s WALL (       1 calls)
     potinit      :      0.01s CPU      0.01s WALL (       1 calls)
     hinit0       :      0.16s CPU      0.16s WALL (       1 calls)

     Called by electrons:
     c_bands      :      2.08s CPU      2.17s WALL (       7 calls)
     sum_band     :      0.41s CPU      0.42s WALL (       7 calls)
     v_of_rho     :      0.03s CPU      0.03s WALL (       7 calls)
     newd         :      0.05s CPU      0.05s WALL (       7 calls)
     mix_rho      :      0.00s CPU      0.00s WALL (       7 calls)

     Called by c_bands:
     init_us_2    :      0.06s CPU      0.06s WALL (     493 calls)
     cegterg      :      2.00s CPU      2.09s WALL (     203 calls)

     Called by sum_band:
     sum_band:bec :      0.00s CPU      0.00s WALL (     203 calls)
     addusdens    :      0.05s CPU      0.05s WALL (       7 calls)

     Called by *egterg:
     h_psi        :      1.51s CPU      1.58s WALL (     732 calls)
     s_psi        :      0.05s CPU      0.05s WALL (     732 calls)
     g_psi        :      0.00s CPU      0.00s WALL (     500 calls)
     cdiaghg      :      0.23s CPU      0.24s WALL (     674 calls)

     Called by h_psi:
     h_psi:pot    :      1.50s CPU      1.58s WALL (     732 calls)
     h_psi:calbec :      0.07s CPU      0.07s WALL (     732 calls)
     vloc_psi     :      1.38s CPU      1.44s WALL (     732 calls)
     add_vuspsi   :      0.05s CPU      0.06s WALL (     732 calls)

     General routines
     calbec       :      0.13s CPU      0.13s WALL (    1080 calls)
     fft          :      0.02s CPU      0.02s WALL (     104 calls)
     ffts         :      0.00s CPU      0.00s WALL (       7 calls)
     fftw         :      1.56s CPU      1.63s WALL (   16139 calls)

     Parallel routines
     fft_scatt_xy :      0.14s CPU      0.14s WALL (   16250 calls)
     fft_scatt_yz :      0.35s CPU      0.36s WALL (   16250 calls)

     PWSCF        :     3.82s CPU         3.99s WALL


   This run was terminated on:  22:59:51  26Mar2024            

=------------------------------------------------------------------------------=
   JOB DONE.
=------------------------------------------------------------------------------=
