
     Program PWSCF v.6.3MaX starts on 26Mar2024 at 23: 4:31 

     This program is part of the open-source Quantum ESPRESSO suite
     for quantum simulation of materials; please cite
         "P. Giannozzi et al., J. Phys.:Condens. Matter 21 395502 (2009);
         "P. Giannozzi et al., J. Phys.:Condens. Matter 29 465901 (2017);
          URL http://www.quantum-espresso.org", 
     in publications or presentations arising from this work. More details at
     http://www.quantum-espresso.org/quote

     Parallel version (MPI), running on     5 processors

     MPI processes distributed on     1 nodes
     R & G space division:  proc/nbgrp/npool/nimage =       5
     Waiting for input...
     Reading input from standard input

     Current dimensions of program PWSCF are:
     Max number of different atomic species (ntypx) = 10
     Max number of k-points (npk) =  40000
     Max angular momentum in pseudopotentials (lmaxx) =  3
               file Ni.pbe-spn-kjpaw_psl.1.0.0.UPF: wavefunction(s)  3P 3D renormalized

     Subspace diagonalization in iterative solution of the eigenvalue problem:
     a serial algorithm will be used


     Parallelization info
     --------------------
     sticks:   dense  smooth     PW     G-vecs:    dense   smooth      PW
     Min         116     116     37                 1850     1850     327
     Max         117     117     38                 1853     1853     329
     Sum         583     583    187                 9257     9257    1639



     bravais-lattice index     =            2
     lattice parameter (alat)  =       6.6500  a.u.
     unit-cell volume          =      73.5199 (a.u.)^3
     number of atoms/cell      =            1
     number of atomic types    =            1
     number of electrons       =        18.00
     number of Kohn-Sham states=           13
     kinetic-energy cutoff     =      95.0000  Ry
     charge density cutoff     =     380.0000  Ry
     convergence threshold     =      1.0E-08
     mixing beta               =       0.7000
     number of iterations used =            8  plain     mixing
     Exchange-correlation      = SLA PW PBX PBC ( 1  4  3  4 0 0)

     celldm(1)=   6.650000  celldm(2)=   0.000000  celldm(3)=   0.000000
     celldm(4)=   0.000000  celldm(5)=   0.000000  celldm(6)=   0.000000

     crystal axes: (cart. coord. in units of alat)
               a(1) = (  -0.500000   0.000000   0.500000 )  
               a(2) = (   0.000000   0.500000   0.500000 )  
               a(3) = (  -0.500000   0.500000   0.000000 )  

     reciprocal axes: (cart. coord. in units 2 pi/alat)
               b(1) = ( -1.000000 -1.000000  1.000000 )  
               b(2) = (  1.000000  1.000000  1.000000 )  
               b(3) = ( -1.000000  1.000000 -1.000000 )  


     PseudoPot. # 1 for Ni read from file:
     /home/lorenzo/pseudos/Ni/Ni.pbe-spn-kjpaw_psl.1.0.0.UPF
     MD5 check sum: 6e86b733589c3ad8389697b807d86aa7
     Pseudo is Projector augmented-wave + core cor, Zval = 18.0
     Generated using "atomic" code by A. Dal Corso v.6.3
     Shape of augmentation charge: PSQ
     Using radial grid of 1195 points,  6 beta functions with: 
                l(1) =   0
                l(2) =   0
                l(3) =   1
                l(4) =   1
                l(5) =   2
                l(6) =   2
     Q(r) pseudized with 0 coefficients 


     atomic species   valence    mass     pseudopotential
        Ni            18.00    58.69340     Ni( 1.00)

     48 Sym. Ops., with inversion, found



   Cartesian axes

     site n.     atom                  positions (alat units)
         1           Ni  tau(   1) = (   0.0000000   0.0000000   0.0000000  )

     number of k points=    56  gaussian smearing, width (Ry)=  0.0100
                       cart. coord. in units 2pi/alat
        k(    1) = (   0.0000000   0.0000000   0.0000000), wk =   0.0015026
        k(    2) = (  -0.0909091   0.0909091  -0.0909091), wk =   0.0120210
        k(    3) = (  -0.1818182   0.1818182  -0.1818182), wk =   0.0120210
        k(    4) = (  -0.2727273   0.2727273  -0.2727273), wk =   0.0120210
        k(    5) = (  -0.3636364   0.3636364  -0.3636364), wk =   0.0120210
        k(    6) = (  -0.4545455   0.4545455  -0.4545455), wk =   0.0120210
        k(    7) = (   0.0000000   0.1818182   0.0000000), wk =   0.0090158
        k(    8) = (  -0.0909091   0.2727273  -0.0909091), wk =   0.0360631
        k(    9) = (  -0.1818182   0.3636364  -0.1818182), wk =   0.0360631
        k(   10) = (  -0.2727273   0.4545455  -0.2727273), wk =   0.0360631
        k(   11) = (  -0.3636364   0.5454545  -0.3636364), wk =   0.0360631
        k(   12) = (   0.5454545  -0.3636364   0.5454545), wk =   0.0360631
        k(   13) = (   0.4545455  -0.2727273   0.4545455), wk =   0.0360631
        k(   14) = (   0.3636364  -0.1818182   0.3636364), wk =   0.0360631
        k(   15) = (   0.2727273  -0.0909091   0.2727273), wk =   0.0360631
        k(   16) = (   0.1818182  -0.0000000   0.1818182), wk =   0.0180316
        k(   17) = (   0.0000000   0.3636364   0.0000000), wk =   0.0090158
        k(   18) = (  -0.0909091   0.4545455  -0.0909091), wk =   0.0360631
        k(   19) = (  -0.1818182   0.5454545  -0.1818182), wk =   0.0360631
        k(   20) = (  -0.2727273   0.6363636  -0.2727273), wk =   0.0360631
        k(   21) = (   0.6363636  -0.2727273   0.6363636), wk =   0.0360631
        k(   22) = (   0.5454545  -0.1818182   0.5454545), wk =   0.0360631
        k(   23) = (   0.4545455  -0.0909091   0.4545455), wk =   0.0360631
        k(   24) = (   0.3636364   0.0000000   0.3636364), wk =   0.0180316
        k(   25) = (   0.0000000   0.5454545   0.0000000), wk =   0.0090158
        k(   26) = (  -0.0909091   0.6363636  -0.0909091), wk =   0.0360631
        k(   27) = (  -0.1818182   0.7272727  -0.1818182), wk =   0.0360631
        k(   28) = (   0.7272727  -0.1818182   0.7272727), wk =   0.0360631
        k(   29) = (   0.6363636  -0.0909091   0.6363636), wk =   0.0360631
        k(   30) = (   0.5454545   0.0000000   0.5454545), wk =   0.0180316
        k(   31) = (   0.0000000   0.7272727   0.0000000), wk =   0.0090158
        k(   32) = (  -0.0909091   0.8181818  -0.0909091), wk =   0.0360631
        k(   33) = (   0.8181818  -0.0909091   0.8181818), wk =   0.0360631
        k(   34) = (   0.7272727   0.0000000   0.7272727), wk =   0.0180316
        k(   35) = (   0.0000000   0.9090909   0.0000000), wk =   0.0090158
        k(   36) = (   0.9090909  -0.0000000   0.9090909), wk =   0.0180316
        k(   37) = (  -0.1818182   0.3636364   0.0000000), wk =   0.0360631
        k(   38) = (  -0.2727273   0.4545455  -0.0909091), wk =   0.0721262
        k(   39) = (  -0.3636364   0.5454545  -0.1818182), wk =   0.0721262
        k(   40) = (   0.5454545  -0.3636364   0.7272727), wk =   0.0721262
        k(   41) = (  -0.1818182   0.5454545   0.0000000), wk =   0.0360631
        k(   42) = (  -0.2727273   0.6363636  -0.0909091), wk =   0.0721262
        k(   43) = (   0.6363636  -0.2727273   0.8181818), wk =   0.0721262
        k(   44) = (   0.5454545  -0.1818182   0.7272727), wk =   0.0721262
        k(   45) = (   0.4545455  -0.0909091   0.6363636), wk =   0.0721262
        k(   46) = (   0.3636364   0.0000000   0.5454545), wk =   0.0360631
        k(   47) = (  -0.1818182   0.7272727   0.0000000), wk =   0.0360631
        k(   48) = (   0.7272727  -0.1818182   0.9090909), wk =   0.0721262
        k(   49) = (   0.6363636  -0.0909091   0.8181818), wk =   0.0721262
        k(   50) = (   0.5454545   0.0000000   0.7272727), wk =   0.0360631
        k(   51) = (   0.8181818  -0.0909091   1.0000000), wk =   0.0360631
        k(   52) = (   0.7272727   0.0000000   0.9090909), wk =   0.0360631
        k(   53) = (   0.6363636  -0.2727273   1.0000000), wk =   0.0360631
        k(   54) = (   0.5454545  -0.1818182   0.9090909), wk =   0.0721262
        k(   55) = (   0.6363636  -0.0909091   1.0000000), wk =   0.0360631
        k(   56) = (   0.5454545   0.0000000   0.9090909), wk =   0.0360631

     Dense  grid:     9257 G-vectors     FFT dimensions: (  30,  30,  30)

     Estimated max dynamical RAM per process >      11.14 MB

     Estimated total dynamical RAM >      55.69 MB

     Check: negative/imaginary core charge=   -0.000003    0.000000

     Initial potential from superposition of free atoms

     starting charge   17.99975, renormalised to   18.00000
     Starting wfcs are   10 randomized atomic wfcs +    3 random wfcs
     Checking if some PAW data can be deallocated... 

     total cpu time spent up to now is        1.3 secs

     Self-consistent Calculation

     iteration #  1     ecut=    95.00 Ry     beta= 0.70
     Davidson diagonalization with overlap
     ethr =  1.00E-02,  avg # of iterations =  3.6

     Threshold (ethr) on eigenvalues was too large:
     Diagonalizing with lowered threshold

     Davidson diagonalization with overlap
     ethr =  1.90E-05,  avg # of iterations =  2.9

     total cpu time spent up to now is        3.4 secs

     total energy              =    -429.15791729 Ry
     Harris-Foulkes estimate   =    -429.15986320 Ry
     estimated scf accuracy    <       0.00339613 Ry

     iteration #  2     ecut=    95.00 Ry     beta= 0.70
     Davidson diagonalization with overlap
     ethr =  1.89E-05,  avg # of iterations =  2.3

     total cpu time spent up to now is        4.4 secs

     total energy              =    -429.15716475 Ry
     Harris-Foulkes estimate   =    -429.16120571 Ry
     estimated scf accuracy    <       0.01091819 Ry

     iteration #  3     ecut=    95.00 Ry     beta= 0.70
     Davidson diagonalization with overlap
     ethr =  1.89E-05,  avg # of iterations =  2.1

     total cpu time spent up to now is        5.3 secs

     total energy              =    -429.15914587 Ry
     Harris-Foulkes estimate   =    -429.15920790 Ry
     estimated scf accuracy    <       0.00021659 Ry

     iteration #  4     ecut=    95.00 Ry     beta= 0.70
     Davidson diagonalization with overlap
     ethr =  1.20E-06,  avg # of iterations =  1.5

     total cpu time spent up to now is        6.1 secs

     total energy              =    -429.15917786 Ry
     Harris-Foulkes estimate   =    -429.15917765 Ry
     estimated scf accuracy    <       0.00000040 Ry

     iteration #  5     ecut=    95.00 Ry     beta= 0.70
     Davidson diagonalization with overlap
     ethr =  2.24E-09,  avg # of iterations =  3.6

     total cpu time spent up to now is        7.3 secs

     total energy              =    -429.15917875 Ry
     Harris-Foulkes estimate   =    -429.15917879 Ry
     estimated scf accuracy    <       0.00000010 Ry

     iteration #  6     ecut=    95.00 Ry     beta= 0.70
     Davidson diagonalization with overlap
     ethr =  5.33E-10,  avg # of iterations =  1.0

     total cpu time spent up to now is        8.1 secs

     End of self-consistent calculation

          k = 0.0000 0.0000 0.0000 (  1139 PWs)   bands (ev):

   -85.3166 -45.5800 -45.5800 -45.5800   8.8208  15.8878  15.8878  15.8878
    16.9930  16.9930  41.4868  45.4329  45.4329

          k =-0.0909 0.0909-0.0909 (  1167 PWs)   bands (ev):

   -85.3139 -45.5981 -45.5828 -45.5828   9.1431  15.8008  15.9583  15.9583
    16.9645  16.9645  40.1316  42.9395  44.7280

          k =-0.1818 0.1818-0.1818 (  1167 PWs)   bands (ev):

   -85.3067 -45.6452 -45.5898 -45.5898  10.0711  15.6049  16.0842  16.0842
    16.9616  16.9616  35.7760  42.1499  43.7715

          k =-0.2727 0.2727-0.2727 (  1164 PWs)   bands (ev):

   -85.2973 -45.7068 -45.5987 -45.5987  11.4358  15.5097  16.0715  16.0715
    17.1599  17.1599  31.2543  41.3776  43.0919

          k =-0.3636 0.3636-0.3636 (  1155 PWs)   bands (ev):

   -85.2886 -45.7632 -45.6068 -45.6068  12.7137  15.9477  15.9477  15.9913
    17.4808  17.4808  27.2122  40.5586  42.7148

          k =-0.4545 0.4545-0.4545 (  1164 PWs)   bands (ev):

   -85.2834 -45.7968 -45.6117 -45.6117  13.2400  15.8537  15.8537  17.2401
    17.7051  17.7051  24.2672  40.0583  42.5808

          k = 0.0000 0.1818 0.0000 (  1163 PWs)   bands (ev):

   -85.3130 -45.5975 -45.5869 -45.5869   9.2499  15.7286  16.0101  16.0101
    16.8491  17.0490  40.6866  42.8123  42.8123

          k =-0.0909 0.2727-0.0909 (  1164 PWs)   bands (ev):

   -85.3073 -45.6326 -45.5950 -45.5918   9.9749  15.5371  16.1412  16.1546
    16.7452  17.1070  37.5248  41.1911  41.3407

          k =-0.1818 0.3636-0.1818 (  1145 PWs)   bands (ev):

   -85.2986 -45.6877 -45.6044 -45.5998  11.2057  15.3591  16.0870  16.2114
    16.9585  17.2741  32.9315  40.3698  40.4394

          k =-0.2727 0.4545-0.2727 (  1145 PWs)   bands (ev):

   -85.2897 -45.7444 -45.6124 -45.6101  12.5750  15.4699  15.8972  16.1224
    17.5181  17.5463  28.6706  39.6414  39.9439

          k =-0.3636 0.5455-0.3636 (  1149 PWs)   bands (ev):

   -85.2834 -45.7842 -45.6195 -45.6162  13.3409  15.7039  16.0075  16.2101
    17.7318  18.4017  25.1699  38.8118  40.1429

          k = 0.5455-0.3636 0.5455 (  1156 PWs)   bands (ev):

   -85.2816 -45.7950 -45.6247 -45.6149  13.4715  15.6895  15.9593  16.5592
    17.6938  19.0090  23.8829  38.0800  41.0498

          k = 0.4545-0.2727 0.4545 (  1145 PWs)   bands (ev):

   -85.2851 -45.7731 -45.6239 -45.6085  13.1868  15.7869  15.9879  16.0119
    17.4248  18.2576  26.2156  37.6945  41.5862

          k = 0.3636-0.1818 0.3636 (  1148 PWs)   bands (ev):

   -85.2926 -45.7261 -45.6173 -45.5994  12.1529  15.4233  15.9660  16.1429
    17.0362  17.6699  30.0415  37.7795  42.7862

          k = 0.2727-0.0909 0.2727 (  1152 PWs)   bands (ev):

   -85.3018 -45.6689 -45.6066 -45.5903  10.7546  15.4467  16.0963  16.2161
    16.7606  17.2662  34.4472  38.3318  44.2326

          k = 0.1818-0.0000 0.1818 (  1163 PWs)   bands (ev):

   -85.3097 -45.6212 -45.5938 -45.5842   9.6681  15.6522  16.0661  16.0665
    16.8218  17.0557  38.6367  39.7873  44.3300

          k = 0.0000 0.3636 0.0000 (  1162 PWs)   bands (ev):

   -85.3034 -45.6429 -45.6046 -45.6046  10.4717  15.3134  16.3634  16.3634
    16.5069  17.2009  39.4261  39.4382  39.4382

          k =-0.0909 0.4545-0.0909 (  1151 PWs)   bands (ev):

   -85.2962 -45.6821 -45.6153 -45.6144  11.4789  15.0783  16.1617  16.5299
    16.8650  17.3449  35.0050  38.1185  39.0341

          k =-0.1818 0.5455-0.1818 (  1146 PWs)   bands (ev):

   -85.2881 -45.7290 -45.6273 -45.6238  12.7395  14.9645  15.8622  16.5074
    17.5938  17.6725  30.6017  37.4238  37.4499

          k =-0.2727 0.6364-0.2727 (  1144 PWs)   bands (ev):

   -85.2815 -45.7652 -45.6424 -45.6274  13.6611  15.0951  15.7523  16.3930
    17.7640  19.0177  26.6926  35.7398  37.5133

          k = 0.6364-0.2727 0.6364 (  1155 PWs)   bands (ev):

   -85.2786 -45.7797 -45.6548 -45.6252  13.9445  15.2142  15.9126  16.3004
    17.7045  20.6039  24.0787  34.3970  38.3580

          k = 0.5455-0.1818 0.5455 (  1150 PWs)   bands (ev):

   -85.2803 -45.7688 -45.6593 -45.6173  13.8750  15.3641  15.7094  16.2888
    17.4075  19.7949  25.6276  33.5789  39.9480

          k = 0.4545-0.0909 0.4545 (  1141 PWs)   bands (ev):

   -85.2861 -45.7382 -45.6520 -45.6067  13.2041  15.2525  15.6645  16.3763
    16.9727  18.5632  29.2789  33.3588  42.1533

          k = 0.3636 0.0000 0.3636 (  1151 PWs)   bands (ev):

   -85.2941 -45.7012 -45.6324 -45.5967  11.9184  15.2497  15.9424  16.5328
    16.5510  17.7881  33.2435  34.0265  43.8425

          k = 0.0000 0.5455 0.0000 (  1146 PWs)   bands (ev):

   -85.2909 -45.7013 -45.6275 -45.6275  12.1626  14.7935  16.3554  16.8928
    16.8928  17.4030  36.4430  36.4430  36.7617

          k =-0.0909 0.6364-0.0909 (  1141 PWs)   bands (ev):

   -85.2842 -45.7329 -45.6412 -45.6372  13.0265  14.5963  16.2763  17.0145
    17.6031  17.6680  32.8355  34.6055  35.4601

          k =-0.1818 0.7273-0.1818 (  1151 PWs)   bands (ev):

   -85.2784 -45.7571 -45.6617 -45.6416  13.7511  14.5641  16.0645  16.9253
    17.7904  19.3096  28.8301  32.5572  35.2852

          k = 0.7273-0.1818 0.7273 (  1150 PWs)   bands (ev):

   -85.2752 -45.7625 -45.6854 -45.6390  14.2083  14.6625  15.8680  16.7985
    17.7393  21.6413  25.3506  30.9744  35.9705

          k = 0.6364-0.0909 0.6364 (  1144 PWs)   bands (ev):

   -85.2758 -45.7505 -45.7018 -45.6302  14.4482  14.8467  15.5802  16.6930
    17.4585  21.8897  25.2718  29.9669  37.4516

          k = 0.5455 0.0000 0.5455 (  1147 PWs)   bands (ev):

   -85.2798 -45.7420 -45.6890 -45.6183  14.1691  15.2389  15.2397  16.5923
    17.1134  19.9237  28.3305  30.0161  39.5729

          k = 0.0000 0.7273 0.0000 (  1150 PWs)   bands (ev):

   -85.2794 -45.7543 -45.6487 -45.6487  13.2843  14.3377  17.4601  17.4679
    17.4679  17.5920  31.9265  34.1411  34.1411

          k =-0.0909 0.8182-0.0909 (  1152 PWs)   bands (ev):

   -85.2751 -45.7706 -45.6626 -45.6542  13.5466  14.2412  17.0881  17.4499
    17.8050  19.3603  29.8078  31.4075  33.6626

          k = 0.8182-0.0909 0.8182 (  1148 PWs)   bands (ev):

   -85.2727 -45.7684 -45.6870 -45.6522  13.8736  14.3307  16.5745  17.3075
    17.8001  21.7644  27.6480  28.5329  34.1173

          k = 0.7273 0.0000 0.7273 (  1136 PWs)   bands (ev):

   -85.2729 -45.7470 -45.7153 -45.6432  14.2842  14.5314  15.9842  17.0712
    17.6100  24.1702  24.5485  28.0344  35.4407

          k = 0.0000 0.9091 0.0000 (  1154 PWs)   bands (ev):

   -85.2725 -45.7852 -45.6614 -45.6614  13.4449  14.0758  17.7058  17.8648
    17.8648  19.7528  27.9616  32.8566  32.8566

          k = 0.9091-0.0000 0.9091 (  1138 PWs)   bands (ev):

   -85.2716 -45.7842 -45.6704 -45.6604  13.5571  14.1120  17.4417  17.6266
    17.8859  20.9865  27.2765  30.8177  33.0175

          k =-0.1818 0.3636 0.0000 (  1153 PWs)   bands (ev):

   -85.3009 -45.6645 -45.6121 -45.5965  10.8547  15.3185  16.1333  16.3789
    16.6748  17.2999  36.0959  36.8155  42.7770

          k =-0.2727 0.4545-0.0909 (  1146 PWs)   bands (ev):

   -85.2925 -45.7106 -45.6285 -45.6045  12.1384  15.1635  15.9032  16.4350
    16.9397  17.7437  31.8639  35.7908  40.7426

          k =-0.3636 0.5455-0.1818 (  1148 PWs)   bands (ev):

   -85.2847 -45.7546 -45.6397 -45.6143  13.3202  15.3012  15.6838  16.3114
    17.3944  18.5211  27.7623  35.5876  38.8275

          k = 0.5455-0.3636 0.7273 (  1153 PWs)   bands (ev):

   -85.2801 -45.7811 -45.6450 -45.6212  13.7789  15.3852  15.9411  16.2130
    17.6542  19.8324  24.5624  35.8698  37.4218

          k =-0.1818 0.5455 0.0000 (  1139 PWs)   bands (ev):

   -85.2893 -45.7129 -45.6359 -45.6203  12.4861  14.8622  15.9613  16.8941
    16.9954  17.7291  33.8158  34.3419  37.5680

          k =-0.2727 0.6364-0.0909 (  1151 PWs)   bands (ev):

   -85.2823 -45.7437 -45.6549 -45.6293  13.5314  14.7933  15.6974  16.8304
    17.4435  18.7015  29.8133  33.7055  35.4302

          k = 0.6364-0.2727 0.8182 (  1142 PWs)   bands (ev):

   -85.2775 -45.7626 -45.6707 -45.6349  14.1444  14.8676  15.6148  16.6741
    17.6807  20.4869  26.0924  33.3085  34.3311

          k = 0.5455-0.1818 0.7273 (  1154 PWs)   bands (ev):

   -85.2763 -45.7645 -45.6811 -45.6329  14.3440  14.9105  15.6243  16.5741
    17.6224  21.8057  24.3583  32.1880  35.1298

          k = 0.4545-0.0909 0.6364 (  1152 PWs)   bands (ev):

   -85.2792 -45.7515 -45.6789 -45.6242  14.1595  15.1012  15.3423  16.6226
    17.3335  20.0178  27.2677  31.5431  36.6202

          k = 0.3636 0.0000 0.5455 (  1149 PWs)   bands (ev):

   -85.2852 -45.7322 -45.6590 -45.6132  13.3139  15.0412  15.5733  16.7105
    16.9340  18.6185  30.8567  31.8648  38.5748

          k =-0.1818 0.7273 0.0000 (  1152 PWs)   bands (ev):

   -85.2787 -45.7536 -45.6582 -45.6455  13.5529  14.4539  16.3180  17.4249
    17.4654  18.8052  31.9776  31.9780  32.9086

          k = 0.7273-0.1818 0.9091 (  1150 PWs)   bands (ev):

   -85.2746 -45.7609 -45.6798 -45.6507  13.9752  14.4918  16.0841  17.2023
    17.7453  20.8126  28.3825  30.3842  32.5074

          k = 0.6364-0.0909 0.8182 (  1152 PWs)   bands (ev):

   -85.2732 -45.7498 -45.7067 -45.6473  14.3519  14.6239  15.7572  16.9742
    17.7133  23.4021  25.0959  29.0899  33.3067

          k = 0.5455 0.0000 0.7273 (  1151 PWs)   bands (ev):

   -85.2749 -45.7365 -45.7166 -45.6369  14.6443  14.7713  15.3529  16.8226
    17.4900  22.1104  26.3574  28.8629  34.7355

          k = 0.8182-0.0909 1.0000 (  1152 PWs)   bands (ev):

   -85.2725 -45.7763 -45.6714 -45.6613  13.6714  14.2175  16.9524  17.5386
    17.8645  20.9466  28.1220  30.9082  31.5961

          k = 0.7273 0.0000 0.9091 (  1152 PWs)   bands (ev):

   -85.2718 -45.7652 -45.6913 -45.6586  13.9508  14.3873  16.3946  17.2945
    17.8618  22.7756  27.3172  28.1191  31.9856

          k = 0.6364-0.2727 1.0000 (  1151 PWs)   bands (ev):

   -85.2771 -45.7490 -45.6836 -45.6392  14.1971  14.8009  15.4151  17.0379
    17.4643  20.3013  29.0197  30.3540  33.2727

          k = 0.5455-0.1818 0.9091 (  1151 PWs)   bands (ev):

   -85.2739 -45.7466 -45.7035 -45.6477  14.5096  14.8552  15.3162  16.8786
    17.6959  22.5883  25.8892  30.3692  31.6668

          k = 0.6364-0.0909 1.0000 (  1153 PWs)   bands (ev):

   -85.2722 -45.7526 -45.6981 -45.6609  14.1821  14.6495  15.8004  17.1034
    17.8634  22.9673  27.9663  28.6078  29.8253

          k = 0.5455 0.0000 0.9091 (  1148 PWs)   bands (ev):

   -85.2720 -45.7330 -45.7210 -45.6597  14.3800  14.9324  15.3828  16.9275
    17.8616  25.1957  25.2322  28.2408  30.1778

     the Fermi energy is    17.7402 ev

!    total energy              =    -429.15917876 Ry
     Harris-Foulkes estimate   =    -429.15917876 Ry
     estimated scf accuracy    <          5.6E-09 Ry

     total all-electron energy =     -3041.591286 Ry

     The total energy is the sum of the following terms:

     one-electron contribution =    -185.12239461 Ry
     hartree contribution      =     104.76584186 Ry
     xc contribution           =     -34.32539636 Ry
     ewald contribution        =    -223.38275369 Ry
     one-center paw contrib.   =     -91.09169273 Ry
     smearing contrib. (-TS)   =      -0.00278323 Ry

     convergence has been achieved in   6 iterations

     Forces acting on atoms (cartesian axes, Ry/au):

     atom    1 type  1   force =     0.00000000    0.00000000    0.00000000

     Total force =     0.000000     Total SCF correction =     0.000000


     Computing stress (Cartesian axis) and pressure

          total   stress  (Ry/bohr**3)                   (kbar)     P=  -22.54
  -0.00015320  -0.00000000   0.00000000        -22.54     -0.00      0.00
  -0.00000000  -0.00015320   0.00000000         -0.00    -22.54      0.00
   0.00000000  -0.00000000  -0.00015320          0.00     -0.00    -22.54


     Writing output data file Ni.save/

     init_run     :      0.55s CPU      0.58s WALL (       1 calls)
     electrons    :      6.49s CPU      6.79s WALL (       1 calls)
     forces       :      0.07s CPU      0.07s WALL (       1 calls)
     stress       :      0.25s CPU      0.25s WALL (       1 calls)

     Called by init_run:
     wfcinit      :      0.24s CPU      0.26s WALL (       1 calls)
     potinit      :      0.11s CPU      0.12s WALL (       1 calls)
     hinit0       :      0.18s CPU      0.18s WALL (       1 calls)

     Called by electrons:
     c_bands      :      5.01s CPU      5.19s WALL (       7 calls)
     sum_band     :      0.85s CPU      0.88s WALL (       7 calls)
     v_of_rho     :      0.03s CPU      0.04s WALL (       7 calls)
     newd         :      0.06s CPU      0.07s WALL (       7 calls)
     PAW_pot      :      0.64s CPU      0.72s WALL (       7 calls)
     mix_rho      :      0.00s CPU      0.00s WALL (       7 calls)

     Called by c_bands:
     init_us_2    :      0.14s CPU      0.14s WALL (     952 calls)
     cegterg      :      4.82s CPU      5.01s WALL (     392 calls)

     Called by sum_band:
     sum_band:bec :      0.00s CPU      0.00s WALL (     392 calls)
     addusdens    :      0.06s CPU      0.06s WALL (       7 calls)

     Called by *egterg:
     h_psi        :      3.70s CPU      3.85s WALL (    1400 calls)
     s_psi        :      0.12s CPU      0.12s WALL (    1400 calls)
     g_psi        :      0.01s CPU      0.01s WALL (     952 calls)
     cdiaghg      :      0.48s CPU      0.50s WALL (    1288 calls)

     Called by h_psi:
     h_psi:pot    :      3.69s CPU      3.84s WALL (    1400 calls)
     h_psi:calbec :      0.16s CPU      0.17s WALL (    1400 calls)
     vloc_psi     :      3.39s CPU      3.53s WALL (    1400 calls)
     add_vuspsi   :      0.12s CPU      0.13s WALL (    1400 calls)

     General routines
     calbec       :      0.26s CPU      0.27s WALL (    2072 calls)
     fft          :      0.02s CPU      0.03s WALL (     104 calls)
     ffts         :      0.00s CPU      0.00s WALL (       7 calls)
     fftw         :      3.79s CPU      3.93s WALL (   31784 calls)

     Parallel routines
     fft_scatt_xy :      0.32s CPU      0.33s WALL (   31895 calls)
     fft_scatt_yz :      0.97s CPU      1.01s WALL (   31895 calls)

     PWSCF        :     8.15s CPU         8.58s WALL


   This run was terminated on:  23: 4:40  26Mar2024            

=------------------------------------------------------------------------------=
   JOB DONE.
=------------------------------------------------------------------------------=
