
     Program PWSCF v.6.3MaX starts on 26Mar2024 at 22:33:18 

     This program is part of the open-source Quantum ESPRESSO suite
     for quantum simulation of materials; please cite
         "P. Giannozzi et al., J. Phys.:Condens. Matter 21 395502 (2009);
         "P. Giannozzi et al., J. Phys.:Condens. Matter 29 465901 (2017);
          URL http://www.quantum-espresso.org", 
     in publications or presentations arising from this work. More details at
     http://www.quantum-espresso.org/quote

     Parallel version (MPI), running on     5 processors

     MPI processes distributed on     1 nodes
     R & G space division:  proc/nbgrp/npool/nimage =       5
     Waiting for input...
     Reading input from standard input

     Current dimensions of program PWSCF are:
     Max number of different atomic species (ntypx) = 10
     Max number of k-points (npk) =  40000
     Max angular momentum in pseudopotentials (lmaxx) =  3
               file Ni.pbe-spn-kjpaw_psl.1.0.0.UPF: wavefunction(s)  3P 3D renormalized

     Subspace diagonalization in iterative solution of the eigenvalue problem:
     a serial algorithm will be used


     Parallelization info
     --------------------
     sticks:   dense  smooth     PW     G-vecs:    dense   smooth      PW
     Min          42      42     16                  416      416      91
     Max          43      43     18                  418      418      92
     Sum         211     211     85                 2085     2085     459



     bravais-lattice index     =            2
     lattice parameter (alat)  =       6.6500  a.u.
     unit-cell volume          =      73.5199 (a.u.)^3
     number of atoms/cell      =            1
     number of atomic types    =            1
     number of electrons       =        18.00
     number of Kohn-Sham states=           13
     kinetic-energy cutoff     =      35.0000  Ry
     charge density cutoff     =     140.0000  Ry
     convergence threshold     =      1.0E-08
     mixing beta               =       0.7000
     number of iterations used =            8  plain     mixing
     Exchange-correlation      = SLA PW PBX PBC ( 1  4  3  4 0 0)

     celldm(1)=   6.650000  celldm(2)=   0.000000  celldm(3)=   0.000000
     celldm(4)=   0.000000  celldm(5)=   0.000000  celldm(6)=   0.000000

     crystal axes: (cart. coord. in units of alat)
               a(1) = (  -0.500000   0.000000   0.500000 )  
               a(2) = (   0.000000   0.500000   0.500000 )  
               a(3) = (  -0.500000   0.500000   0.000000 )  

     reciprocal axes: (cart. coord. in units 2 pi/alat)
               b(1) = ( -1.000000 -1.000000  1.000000 )  
               b(2) = (  1.000000  1.000000  1.000000 )  
               b(3) = ( -1.000000  1.000000 -1.000000 )  


     PseudoPot. # 1 for Ni read from file:
     /home/lorenzo/pseudos/Ni/Ni.pbe-spn-kjpaw_psl.1.0.0.UPF
     MD5 check sum: 6e86b733589c3ad8389697b807d86aa7
     Pseudo is Projector augmented-wave + core cor, Zval = 18.0
     Generated using "atomic" code by A. Dal Corso v.6.3
     Shape of augmentation charge: PSQ
     Using radial grid of 1195 points,  6 beta functions with: 
                l(1) =   0
                l(2) =   0
                l(3) =   1
                l(4) =   1
                l(5) =   2
                l(6) =   2
     Q(r) pseudized with 0 coefficients 


     atomic species   valence    mass     pseudopotential
        Ni            18.00    58.69340     Ni( 1.00)

     48 Sym. Ops., with inversion, found



   Cartesian axes

     site n.     atom                  positions (alat units)
         1           Ni  tau(   1) = (   0.0000000   0.0000000   0.0000000  )

     number of k points=    29  gaussian smearing, width (Ry)=  0.0100
                       cart. coord. in units 2pi/alat
        k(    1) = (   0.0000000   0.0000000   0.0000000), wk =   0.0039062
        k(    2) = (  -0.1250000   0.1250000  -0.1250000), wk =   0.0312500
        k(    3) = (  -0.2500000   0.2500000  -0.2500000), wk =   0.0312500
        k(    4) = (  -0.3750000   0.3750000  -0.3750000), wk =   0.0312500
        k(    5) = (   0.5000000  -0.5000000   0.5000000), wk =   0.0156250
        k(    6) = (   0.0000000   0.2500000   0.0000000), wk =   0.0234375
        k(    7) = (  -0.1250000   0.3750000  -0.1250000), wk =   0.0937500
        k(    8) = (  -0.2500000   0.5000000  -0.2500000), wk =   0.0937500
        k(    9) = (   0.6250000  -0.3750000   0.6250000), wk =   0.0937500
        k(   10) = (   0.5000000  -0.2500000   0.5000000), wk =   0.0937500
        k(   11) = (   0.3750000  -0.1250000   0.3750000), wk =   0.0937500
        k(   12) = (   0.2500000   0.0000000   0.2500000), wk =   0.0468750
        k(   13) = (   0.0000000   0.5000000   0.0000000), wk =   0.0234375
        k(   14) = (  -0.1250000   0.6250000  -0.1250000), wk =   0.0937500
        k(   15) = (   0.7500000  -0.2500000   0.7500000), wk =   0.0937500
        k(   16) = (   0.6250000  -0.1250000   0.6250000), wk =   0.0937500
        k(   17) = (   0.5000000   0.0000000   0.5000000), wk =   0.0468750
        k(   18) = (   0.0000000   0.7500000   0.0000000), wk =   0.0234375
        k(   19) = (   0.8750000  -0.1250000   0.8750000), wk =   0.0937500
        k(   20) = (   0.7500000   0.0000000   0.7500000), wk =   0.0468750
        k(   21) = (   0.0000000  -1.0000000   0.0000000), wk =   0.0117188
        k(   22) = (  -0.2500000   0.5000000   0.0000000), wk =   0.0937500
        k(   23) = (   0.6250000  -0.3750000   0.8750000), wk =   0.1875000
        k(   24) = (   0.5000000  -0.2500000   0.7500000), wk =   0.0937500
        k(   25) = (   0.7500000  -0.2500000   1.0000000), wk =   0.0937500
        k(   26) = (   0.6250000  -0.1250000   0.8750000), wk =   0.1875000
        k(   27) = (   0.5000000   0.0000000   0.7500000), wk =   0.0937500
        k(   28) = (  -0.2500000  -1.0000000   0.0000000), wk =   0.0468750
        k(   29) = (  -0.5000000  -1.0000000   0.0000000), wk =   0.0234375

     Dense  grid:     2085 G-vectors     FFT dimensions: (  18,  18,  18)

     Estimated max dynamical RAM per process >       2.86 MB

     Estimated total dynamical RAM >      14.32 MB

     Check: negative/imaginary core charge=   -0.000037    0.000000

     Initial potential from superposition of free atoms

     starting charge   17.99975, renormalised to   18.00000
     Starting wfcs are   10 randomized atomic wfcs +    3 random wfcs
     Checking if some PAW data can be deallocated... 

     total cpu time spent up to now is        1.1 secs

     Self-consistent Calculation

     iteration #  1     ecut=    35.00 Ry     beta= 0.70
     Davidson diagonalization with overlap
     ethr =  1.00E-02,  avg # of iterations =  4.5

     total cpu time spent up to now is        1.4 secs

     total energy              =    -427.53747956 Ry
     Harris-Foulkes estimate   =    -427.68420869 Ry
     estimated scf accuracy    <       0.21741188 Ry

     iteration #  2     ecut=    35.00 Ry     beta= 0.70
     Davidson diagonalization with overlap
     ethr =  1.21E-03,  avg # of iterations =  2.1

     total cpu time spent up to now is        1.7 secs

     total energy              =    -427.48499426 Ry
     Harris-Foulkes estimate   =    -427.77976627 Ry
     estimated scf accuracy    <       0.81389421 Ry

     iteration #  3     ecut=    35.00 Ry     beta= 0.70
     Davidson diagonalization with overlap
     ethr =  1.21E-03,  avg # of iterations =  2.0

     total cpu time spent up to now is        2.0 secs

     total energy              =    -427.62851736 Ry
     Harris-Foulkes estimate   =    -427.63164725 Ry
     estimated scf accuracy    <       0.01229789 Ry

     iteration #  4     ecut=    35.00 Ry     beta= 0.70
     Davidson diagonalization with overlap
     ethr =  6.83E-05,  avg # of iterations =  1.9

     total cpu time spent up to now is        2.2 secs

     total energy              =    -427.63001493 Ry
     Harris-Foulkes estimate   =    -427.63002951 Ry
     estimated scf accuracy    <       0.00015867 Ry

     iteration #  5     ecut=    35.00 Ry     beta= 0.70
     Davidson diagonalization with overlap
     ethr =  8.82E-07,  avg # of iterations =  2.3

     total cpu time spent up to now is        2.5 secs

     total energy              =    -427.63005391 Ry
     Harris-Foulkes estimate   =    -427.63005498 Ry
     estimated scf accuracy    <       0.00000316 Ry

     iteration #  6     ecut=    35.00 Ry     beta= 0.70
     Davidson diagonalization with overlap
     ethr =  1.76E-08,  avg # of iterations =  1.8

     total cpu time spent up to now is        2.7 secs

     total energy              =    -427.63005439 Ry
     Harris-Foulkes estimate   =    -427.63005440 Ry
     estimated scf accuracy    <       0.00000001 Ry

     iteration #  7     ecut=    35.00 Ry     beta= 0.70
     Davidson diagonalization with overlap
     ethr =  5.65E-11,  avg # of iterations =  2.7

     total cpu time spent up to now is        3.0 secs

     End of self-consistent calculation

          k = 0.0000 0.0000 0.0000 (   259 PWs)   bands (ev):

   -86.7380 -45.1026 -45.1026 -45.1026   9.1285  15.8755  15.8755  15.8755
    17.3999  17.3999  41.5191  45.4653  45.4653

          k =-0.1250 0.1250-0.1250 (   271 PWs)   bands (ev):

   -86.7522 -45.4931 -45.4931 -45.4639   9.6880  15.6473  15.8745  15.8745
    16.8092  16.8092  38.5088  42.6261  44.1998

          k =-0.2500 0.2500-0.2500 (   268 PWs)   bands (ev):

   -86.7352 -45.4690 -45.4690 -45.2760  11.2974  15.7086  15.9727  15.9727
    17.0068  17.0068  32.2454  41.6473  43.0566

          k =-0.3750 0.3750-0.3750 (   256 PWs)   bands (ev):

   -86.7119 -45.1945 -45.1945 -44.9862  13.0044  15.9397  15.9397  16.3020
    17.9022  17.9022  26.8601  40.5293  42.6151

          k = 0.5000-0.5000 0.5000 (   266 PWs)   bands (ev):

   -86.7253 -45.6499 -45.6499 -45.1667  13.3355  15.5675  15.5675  17.5371
    17.8231  17.8231  24.0461  40.0551  42.5374

          k = 0.0000 0.2500 0.0000 (   267 PWs)   bands (ev):

   -86.7428 -45.5078 -45.2771 -45.2771   9.8928  15.6286  16.0070  16.0070
    16.6919  17.1774  40.0367  41.3824  41.3824

          k =-0.1250 0.3750-0.1250 (   263 PWs)   bands (ev):

   -86.7259 -45.3874 -45.2291 -45.0690  11.1736  15.3084  16.1001  16.4591
    17.0461  17.3520  34.6606  39.5865  40.0792

          k =-0.2500 0.5000-0.2500 (   257 PWs)   bands (ev):

   -86.7113 -45.2464 -45.0779 -45.0687  12.9825  15.4354  15.8904  16.4184
    17.8681  17.9868  28.8297  38.6641  38.8290

          k = 0.6250-0.3750 0.6250 (   259 PWs)   bands (ev):

   -86.7136 -45.4839 -45.2389 -45.0996  13.6945  15.5028  16.0519  16.3273
    17.9754  19.4321  24.5488  37.0861  39.3542

          k = 0.5000-0.2500 0.5000 (   254 PWs)   bands (ev):

   -86.7069 -45.2169 -45.0992 -44.9793  13.6812  15.8311  16.0834  16.2051
    17.8182  19.1811  25.6447  36.1349  41.2802

          k = 0.3750-0.1250 0.3750 (   262 PWs)   bands (ev):

   -86.7222 -45.4467 -45.2357 -45.1402  12.4046  15.5238  16.0118  16.1412
    16.8696  18.0266  30.7029  36.0967  43.1494

          k = 0.2500 0.0000 0.2500 (   273 PWs)   bands (ev):

   -86.7462 -45.5637 -45.5326 -45.5241  10.6256  15.3431  15.9749  16.0598
    16.5256  17.0800  36.3512  37.4811  45.0538

          k = 0.0000 0.5000 0.0000 (   258 PWs)   bands (ev):

   -86.7142 -45.1163 -45.1163 -45.0651  11.9817  15.0738  16.6217  16.9480
    16.9480  17.5107  37.0297  37.0297  37.7142

          k =-0.1250 0.6250-0.1250 (   257 PWs)   bands (ev):

   -86.7083 -45.1911 -45.1246 -45.0982  13.2888  14.6900  16.3200  17.0833
    17.9157  18.0519  31.6570  34.9218  35.7658

          k = 0.7500-0.2500 0.7500 (   254 PWs)   bands (ev):

   -86.7015 -45.2529 -45.0709 -44.9892  14.2369  14.8584  16.0648  16.8984
    18.2211  20.4175  26.4395  32.5079  36.0022

          k = 0.6250-0.1250 0.6250 (   253 PWs)   bands (ev):

   -86.6994 -45.1185 -45.1154 -44.9882  14.5096  15.1872  15.9739  16.7405
    17.8517  21.5778  25.0299  30.9988  37.7251

          k = 0.5000 0.0000 0.5000 (   256 PWs)   bands (ev):

   -86.7080 -45.2567 -45.2092 -44.9727  13.9522  15.5016  15.5662  16.7084
    17.0375  19.4052  29.2853  31.0267  40.6237

          k = 0.0000 0.7500 0.0000 (   254 PWs)   bands (ev):

   -86.6994 -45.0759 -45.0759 -45.0343  13.5762  14.3799  17.8518  17.8927
    17.8969  17.8969  31.3387  33.8605  33.8605

          k = 0.8750-0.1250 0.8750 (   252 PWs)   bands (ev):

   -86.6929 -45.0847 -45.0685 -44.9189  13.8620  14.4174  17.3681  17.6919
    18.2677  20.5774  28.6928  30.1255  33.5658

          k = 0.7500 0.0000 0.7500 (   264 PWs)   bands (ev):

   -86.7118 -45.5054 -45.3917 -45.3775  14.0517  14.4557  16.2336  17.2508
    17.8223  23.5517  25.0644  28.1101  34.9753

          k = 0.0000-1.0000 0.0000 (   254 PWs)   bands (ev):

   -86.6974 -45.2097 -45.0855 -45.0855  13.4866  14.1129  18.0208  18.3481
    18.3481  20.2667  27.2814  32.6850  32.6850

          k =-0.2500 0.5000 0.0000 (   258 PWs)   bands (ev):

   -86.7125 -45.1948 -45.1369 -45.0446  12.5897  15.0655  15.9989  17.0079
    17.0090  18.1671  32.9503  33.9644  39.2123

          k = 0.6250-0.3750 0.8750 (   258 PWs)   bands (ev):

   -86.7098 -45.3711 -45.2197 -45.0514  14.0374  15.1670  15.6125  16.5958
    17.6113  19.5034  27.7803  33.2654  36.4523

          k = 0.5000-0.2500 0.7500 (   254 PWs)   bands (ev):

   -86.7029 -45.2279 -45.1248 -45.0094  14.3560  15.3150  15.9620  16.4947
    18.0363  21.3532  24.3184  33.6885  34.9918

          k = 0.7500-0.2500 1.0000 (   253 PWs)   bands (ev):

   -86.6994 -45.1698 -45.0462 -44.9745  14.0714  14.6329  16.2572  17.5903
    17.8772  19.8048  30.4860  31.1187  32.6310

          k = 0.6250-0.1250 0.8750 (   258 PWs)   bands (ev):

   -86.7050 -45.4002 -45.1903 -45.1763  14.4179  14.7092  15.8990  17.0660
    18.0810  22.7039  25.9328  29.6914  32.0851

          k = 0.5000 0.0000 0.7500 (   254 PWs)   bands (ev):

   -86.6989 -45.1810 -45.1763 -44.9622  14.8714  15.0637  15.3910  17.0903
    17.8677  22.0073  26.5877  29.2575  33.8222

          k =-0.2500-1.0000 0.0000 (   254 PWs)   bands (ev):

   -86.6957 -45.2848 -45.0917 -44.9546  13.9079  14.4793  16.9002  17.7283
    18.3417  22.2453  27.3729  29.4895  31.0414

          k =-0.5000-1.0000 0.0000 (   252 PWs)   bands (ev):

   -86.6941 -45.1969 -45.0058 -45.0058  14.6695  15.3093  15.3093  17.2217
    18.3438  25.5670  25.5670  27.7895  29.7609

     the Fermi energy is    18.0448 ev

!    total energy              =    -427.63005440 Ry
     Harris-Foulkes estimate   =    -427.63005440 Ry
     estimated scf accuracy    <          1.8E-09 Ry

     total all-electron energy =     -3040.062162 Ry

     The total energy is the sum of the following terms:

     one-electron contribution =    -182.52600788 Ry
     hartree contribution      =     103.32903399 Ry
     xc contribution           =     -34.22266920 Ry
     ewald contribution        =    -223.38275373 Ry
     one-center paw contrib.   =     -90.82527610 Ry
     smearing contrib. (-TS)   =      -0.00238147 Ry

     convergence has been achieved in   7 iterations

     Forces acting on atoms (cartesian axes, Ry/au):

     atom    1 type  1   force =     0.00000000    0.00000000    0.00000000

     Total force =     0.000000     Total SCF correction =     0.000000


     Computing stress (Cartesian axis) and pressure

          total   stress  (Ry/bohr**3)                   (kbar)     P=********
  -0.10168998   0.00000000  -0.00000000     -14959.11      0.00     -0.00
   0.00000000  -0.10168998   0.00000000          0.00 -14959.11      0.00
   0.00000000   0.00000000  -0.10168998          0.00      0.00 -14959.11


     Writing output data file Ni.save/

     init_run     :      0.30s CPU      0.33s WALL (       1 calls)
     electrons    :      1.75s CPU      1.97s WALL (       1 calls)
     forces       :      0.01s CPU      0.02s WALL (       1 calls)
     stress       :      0.05s CPU      0.05s WALL (       1 calls)

     Called by init_run:
     wfcinit      :      0.06s CPU      0.07s WALL (       1 calls)
     potinit      :      0.12s CPU      0.14s WALL (       1 calls)
     hinit0       :      0.10s CPU      0.10s WALL (       1 calls)

     Called by electrons:
     c_bands      :      0.93s CPU      1.03s WALL (       7 calls)
     sum_band     :      0.16s CPU      0.17s WALL (       7 calls)
     v_of_rho     :      0.01s CPU      0.01s WALL (       8 calls)
     newd         :      0.02s CPU      0.02s WALL (       8 calls)
     PAW_pot      :      0.74s CPU      0.86s WALL (       8 calls)
     mix_rho      :      0.00s CPU      0.00s WALL (       7 calls)

     Called by c_bands:
     init_us_2    :      0.02s CPU      0.02s WALL (     493 calls)
     cegterg      :      0.90s CPU      1.00s WALL (     203 calls)

     Called by sum_band:
     sum_band:bec :      0.00s CPU      0.00s WALL (     203 calls)
     addusdens    :      0.01s CPU      0.02s WALL (       7 calls)

     Called by *egterg:
     h_psi        :      0.60s CPU      0.67s WALL (     736 calls)
     s_psi        :      0.02s CPU      0.02s WALL (     736 calls)
     g_psi        :      0.00s CPU      0.00s WALL (     504 calls)
     cdiaghg      :      0.23s CPU      0.24s WALL (     707 calls)

     Called by h_psi:
     h_psi:pot    :      0.59s CPU      0.67s WALL (     736 calls)
     h_psi:calbec :      0.03s CPU      0.03s WALL (     736 calls)
     vloc_psi     :      0.54s CPU      0.61s WALL (     736 calls)
     add_vuspsi   :      0.02s CPU      0.02s WALL (     736 calls)

     General routines
     calbec       :      0.04s CPU      0.05s WALL (    1084 calls)
     fft          :      0.01s CPU      0.01s WALL (     114 calls)
     ffts         :      0.00s CPU      0.00s WALL (       7 calls)
     fftw         :      0.61s CPU      0.68s WALL (   16485 calls)

     Parallel routines
     fft_scatt_xy :      0.06s CPU      0.07s WALL (   16606 calls)
     fft_scatt_yz :      0.18s CPU      0.21s WALL (   16606 calls)

     PWSCF        :     2.87s CPU         3.20s WALL


   This run was terminated on:  22:33:21  26Mar2024            

=------------------------------------------------------------------------------=
   JOB DONE.
=------------------------------------------------------------------------------=
