
     Program PWSCF v.6.3MaX starts on 26Mar2024 at 23: 6:31 

     This program is part of the open-source Quantum ESPRESSO suite
     for quantum simulation of materials; please cite
         "P. Giannozzi et al., J. Phys.:Condens. Matter 21 395502 (2009);
         "P. Giannozzi et al., J. Phys.:Condens. Matter 29 465901 (2017);
          URL http://www.quantum-espresso.org", 
     in publications or presentations arising from this work. More details at
     http://www.quantum-espresso.org/quote

     Parallel version (MPI), running on     5 processors

     MPI processes distributed on     1 nodes
     R & G space division:  proc/nbgrp/npool/nimage =       5
     Waiting for input...
     Reading input from standard input

     Current dimensions of program PWSCF are:
     Max number of different atomic species (ntypx) = 10
     Max number of k-points (npk) =  40000
     Max angular momentum in pseudopotentials (lmaxx) =  3

     Subspace diagonalization in iterative solution of the eigenvalue problem:
     a serial algorithm will be used


     Parallelization info
     --------------------
     sticks:   dense  smooth     PW     G-vecs:    dense   smooth      PW
     Min         116     116     37                 1850     1850     327
     Max         117     117     38                 1853     1853     329
     Sum         583     583    187                 9257     9257    1639



     bravais-lattice index     =            2
     lattice parameter (alat)  =       6.6500  a.u.
     unit-cell volume          =      73.5199 (a.u.)^3
     number of atoms/cell      =            1
     number of atomic types    =            1
     number of electrons       =        18.00
     number of Kohn-Sham states=           13
     kinetic-energy cutoff     =      95.0000  Ry
     charge density cutoff     =     380.0000  Ry
     convergence threshold     =      1.0E-08
     mixing beta               =       0.7000
     number of iterations used =            8  plain     mixing
     Exchange-correlation      = PBESOL ( 1  4 10  8 0 0)

     celldm(1)=   6.650000  celldm(2)=   0.000000  celldm(3)=   0.000000
     celldm(4)=   0.000000  celldm(5)=   0.000000  celldm(6)=   0.000000

     crystal axes: (cart. coord. in units of alat)
               a(1) = (  -0.500000   0.000000   0.500000 )  
               a(2) = (   0.000000   0.500000   0.500000 )  
               a(3) = (  -0.500000   0.500000   0.000000 )  

     reciprocal axes: (cart. coord. in units 2 pi/alat)
               b(1) = ( -1.000000 -1.000000  1.000000 )  
               b(2) = (  1.000000  1.000000  1.000000 )  
               b(3) = ( -1.000000  1.000000 -1.000000 )  


     PseudoPot. # 1 for Ni read from file:
     /home/lorenzo/pseudos/Ni/Ni.pbesol-spn-rrkjus_psl.1.0.0.UPF
     MD5 check sum: 6fc0a587bf949a08f2faed986b854013
     Pseudo is Ultrasoft + core correction, Zval = 18.0
     Generated using "atomic" code by A. Dal Corso v.6.3
     Using radial grid of 1195 points,  6 beta functions with: 
                l(1) =   0
                l(2) =   0
                l(3) =   1
                l(4) =   1
                l(5) =   2
                l(6) =   2
     Q(r) pseudized with 0 coefficients 


     atomic species   valence    mass     pseudopotential
        Ni            18.00    58.69340     Ni( 1.00)

     48 Sym. Ops., with inversion, found



   Cartesian axes

     site n.     atom                  positions (alat units)
         1           Ni  tau(   1) = (   0.0000000   0.0000000   0.0000000  )

     number of k points=    29  gaussian smearing, width (Ry)=  0.0100
                       cart. coord. in units 2pi/alat
        k(    1) = (   0.0000000   0.0000000   0.0000000), wk =   0.0039062
        k(    2) = (  -0.1250000   0.1250000  -0.1250000), wk =   0.0312500
        k(    3) = (  -0.2500000   0.2500000  -0.2500000), wk =   0.0312500
        k(    4) = (  -0.3750000   0.3750000  -0.3750000), wk =   0.0312500
        k(    5) = (   0.5000000  -0.5000000   0.5000000), wk =   0.0156250
        k(    6) = (   0.0000000   0.2500000   0.0000000), wk =   0.0234375
        k(    7) = (  -0.1250000   0.3750000  -0.1250000), wk =   0.0937500
        k(    8) = (  -0.2500000   0.5000000  -0.2500000), wk =   0.0937500
        k(    9) = (   0.6250000  -0.3750000   0.6250000), wk =   0.0937500
        k(   10) = (   0.5000000  -0.2500000   0.5000000), wk =   0.0937500
        k(   11) = (   0.3750000  -0.1250000   0.3750000), wk =   0.0937500
        k(   12) = (   0.2500000   0.0000000   0.2500000), wk =   0.0468750
        k(   13) = (   0.0000000   0.5000000   0.0000000), wk =   0.0234375
        k(   14) = (  -0.1250000   0.6250000  -0.1250000), wk =   0.0937500
        k(   15) = (   0.7500000  -0.2500000   0.7500000), wk =   0.0937500
        k(   16) = (   0.6250000  -0.1250000   0.6250000), wk =   0.0937500
        k(   17) = (   0.5000000   0.0000000   0.5000000), wk =   0.0468750
        k(   18) = (   0.0000000   0.7500000   0.0000000), wk =   0.0234375
        k(   19) = (   0.8750000  -0.1250000   0.8750000), wk =   0.0937500
        k(   20) = (   0.7500000   0.0000000   0.7500000), wk =   0.0468750
        k(   21) = (   0.0000000  -1.0000000   0.0000000), wk =   0.0117188
        k(   22) = (  -0.2500000   0.5000000   0.0000000), wk =   0.0937500
        k(   23) = (   0.6250000  -0.3750000   0.8750000), wk =   0.1875000
        k(   24) = (   0.5000000  -0.2500000   0.7500000), wk =   0.0937500
        k(   25) = (   0.7500000  -0.2500000   1.0000000), wk =   0.0937500
        k(   26) = (   0.6250000  -0.1250000   0.8750000), wk =   0.1875000
        k(   27) = (   0.5000000   0.0000000   0.7500000), wk =   0.0937500
        k(   28) = (  -0.2500000  -1.0000000   0.0000000), wk =   0.0468750
        k(   29) = (  -0.5000000  -1.0000000   0.0000000), wk =   0.0234375

     Dense  grid:     9257 G-vectors     FFT dimensions: (  30,  30,  30)

     Estimated max dynamical RAM per process >       9.91 MB

     Estimated total dynamical RAM >      49.53 MB

     Check: negative/imaginary core charge=   -0.000003    0.000000

     Initial potential from superposition of free atoms

     starting charge   17.99977, renormalised to   18.00000
     Starting wfcs are   10 randomized atomic wfcs +    3 random wfcs

     total cpu time spent up to now is        1.0 secs

     Self-consistent Calculation

     iteration #  1     ecut=    95.00 Ry     beta= 0.70
     Davidson diagonalization with overlap
     ethr =  1.00E-02,  avg # of iterations =  3.5

     Threshold (ethr) on eigenvalues was too large:
     Diagonalizing with lowered threshold

     Davidson diagonalization with overlap
     ethr =  1.01E-05,  avg # of iterations =  3.3

     total cpu time spent up to now is        2.2 secs

     total energy              =    -339.39915795 Ry
     Harris-Foulkes estimate   =    -339.39993266 Ry
     estimated scf accuracy    <       0.00173762 Ry

     iteration #  2     ecut=    95.00 Ry     beta= 0.70
     Davidson diagonalization with overlap
     ethr =  9.65E-06,  avg # of iterations =  2.0

     total cpu time spent up to now is        2.6 secs

     total energy              =    -339.39873472 Ry
     Harris-Foulkes estimate   =    -339.39999900 Ry
     estimated scf accuracy    <       0.00294245 Ry

     iteration #  3     ecut=    95.00 Ry     beta= 0.70
     Davidson diagonalization with overlap
     ethr =  9.65E-06,  avg # of iterations =  2.1

     total cpu time spent up to now is        3.0 secs

     total energy              =    -339.39938724 Ry
     Harris-Foulkes estimate   =    -339.39958619 Ry
     estimated scf accuracy    <       0.00063693 Ry

     iteration #  4     ecut=    95.00 Ry     beta= 0.70
     Davidson diagonalization with overlap
     ethr =  3.54E-06,  avg # of iterations =  1.2

     total cpu time spent up to now is        3.4 secs

     total energy              =    -339.39948021 Ry
     Harris-Foulkes estimate   =    -339.39948014 Ry
     estimated scf accuracy    <       0.00000074 Ry

     iteration #  5     ecut=    95.00 Ry     beta= 0.70
     Davidson diagonalization with overlap
     ethr =  4.09E-09,  avg # of iterations =  3.0

     total cpu time spent up to now is        4.0 secs

     total energy              =    -339.39948211 Ry
     Harris-Foulkes estimate   =    -339.39948217 Ry
     estimated scf accuracy    <       0.00000019 Ry

     iteration #  6     ecut=    95.00 Ry     beta= 0.70
     Davidson diagonalization with overlap
     ethr =  1.04E-09,  avg # of iterations =  1.0

     total cpu time spent up to now is        4.3 secs

     total energy              =    -339.39948211 Ry
     Harris-Foulkes estimate   =    -339.39948211 Ry
     estimated scf accuracy    <       0.00000002 Ry

     iteration #  7     ecut=    95.00 Ry     beta= 0.70
     Davidson diagonalization with overlap
     ethr =  1.29E-10,  avg # of iterations =  1.0

     total cpu time spent up to now is        4.7 secs

     End of self-consistent calculation

          k = 0.0000 0.0000 0.0000 (  1139 PWs)   bands (ev):

   -85.1868 -45.5977 -45.5977 -45.5977   8.6023  15.6937  15.6937  15.6937
    16.8152  16.8152  41.2817  45.1974  45.1974

          k =-0.1250 0.1250-0.1250 (  1167 PWs)   bands (ev):

   -85.1817 -45.6310 -45.6029 -45.6029   9.2068  15.5376  15.8159  15.8159
    16.7722  16.7722  38.4139  42.3320  44.1105

          k =-0.2500 0.2500-0.2500 (  1152 PWs)   bands (ev):

   -85.1696 -45.7098 -45.6143 -45.6143  10.8549  15.3074  15.9013  15.9013
    16.9089  16.9089  32.1366  41.3856  42.9942

          k =-0.3750 0.3750-0.3750 (  1155 PWs)   bands (ev):

   -85.1574 -45.7889 -45.6257 -45.6257  12.6117  15.7442  15.7442  15.9160
    17.3360  17.3360  26.5508  40.2684  42.4421

          k = 0.5000-0.5000 0.5000 (  1158 PWs)   bands (ev):

   -85.1523 -45.8216 -45.6303 -45.6303  13.0795  15.6528  15.6528  17.3273
    17.5549  17.5549  23.5639  39.7872  42.3184

          k = 0.0000 0.2500 0.0000 (  1155 PWs)   bands (ev):

   -85.1801 -45.6300 -45.6102 -45.6102   9.4055  15.4009  15.9239  15.9239
    16.5533  16.9194  39.9914  41.2908  41.2908

          k =-0.1250 0.3750-0.1250 (  1151 PWs)   bands (ev):

   -85.1703 -45.6883 -45.6237 -45.6202  10.7071  15.1057  15.9678  16.1168
    16.6212  17.0738  34.5949  39.4502  39.9679

          k =-0.2500 0.5000-0.2500 (  1151 PWs)   bands (ev):

   -85.1581 -45.7632 -45.6355 -45.6351  12.5433  15.0934  15.6518  16.0430
    17.4179  17.5075  28.6218  38.6058  38.7049

          k = 0.6250-0.3750 0.6250 (  1149 PWs)   bands (ev):

   -85.1507 -45.8079 -45.6497 -45.6378  13.3878  15.3446  15.8980  15.9662
    17.5699  19.1146  24.1420  36.9840  39.2425

          k = 0.5000-0.2500 0.5000 (  1147 PWs)   bands (ev):

   -85.1524 -45.7971 -45.6542 -45.6303  13.2765  15.4469  15.7663  15.8980
    17.2743  18.7048  25.3450  35.9576  41.1792

          k = 0.3750-0.1250 0.3750 (  1147 PWs)   bands (ev):

   -85.1622 -45.7385 -45.6446 -45.6169  11.9707  15.1229  15.7391  16.0684
    16.7125  17.6273  30.5384  35.9346  42.8879

          k = 0.2500 0.0000 0.2500 (  1159 PWs)   bands (ev):

   -85.1743 -45.6696 -45.6236 -45.6056  10.1679  15.2942  15.9156  16.0222
    16.5284  17.0279  36.3935  37.2371  44.8164

          k = 0.0000 0.5000 0.0000 (  1174 PWs)   bands (ev):

   -85.1639 -45.7058 -45.6402 -45.6402  11.5206  14.7265  16.1452  16.5583
    16.5583  17.1750  36.9034  36.9034  37.6989

          k =-0.1250 0.6250-0.1250 (  1147 PWs)   bands (ev):

   -85.1541 -45.7535 -45.6595 -45.6531  12.8656  14.4691  15.8839  16.6901
    17.4568  17.6516  31.5375  34.8170  35.6069

          k = 0.7500-0.2500 0.7500 (  1150 PWs)   bands (ev):

   -85.1467 -45.7837 -45.6882 -45.6560  13.8310  14.5245  15.6500  16.5395
    17.6082  20.1311  26.2236  32.2677  35.8192

          k = 0.6250-0.1250 0.6250 (  1146 PWs)   bands (ev):

   -85.1460 -45.7777 -45.7099 -45.6464  14.1484  14.7485  15.4172  16.4118
    17.2977  21.3538  24.7967  30.6552  37.5746

          k = 0.5000 0.0000 0.5000 (  1135 PWs)   bands (ev):

   -85.1524 -45.7580 -45.6926 -45.6302  13.5417  14.9825  15.2586  16.3579
    16.7793  18.9904  29.2784  30.6086  40.5597

          k = 0.0000 0.7500 0.0000 (  1150 PWs)   bands (ev):

   -85.1477 -45.7795 -45.6694 -45.6694  13.1368  14.0933  17.3450  17.3450
    17.4367  17.5169  31.1378  33.6813  33.6813

          k = 0.8750-0.1250 0.8750 (  1146 PWs)   bands (ev):

   -85.1427 -45.7944 -45.6912 -45.6740  13.4656  14.0319  16.7809  17.2635
    17.6599  20.2964  28.4806  29.7536  33.3688

          k = 0.7500 0.0000 0.7500 (  1144 PWs)   bands (ev):

   -85.1420 -45.7731 -45.7286 -45.6646  13.9819  14.2785  15.9384  16.9718
    17.4717  23.4976  25.0507  27.7033  34.7927

          k = 0.0000-1.0000 0.0000 (  1162 PWs)   bands (ev):

   -85.1410 -45.8096 -45.6819 -45.6819  13.2481  13.8418  17.5469  17.7359
    17.7359  20.0689  27.0288  32.4498  32.4498

          k =-0.2500 0.5000 0.0000 (  1153 PWs)   bands (ev):

   -85.1605 -45.7299 -45.6555 -45.6284  12.1464  14.8232  15.6693  16.5726
    16.6266  17.6616  32.9820  33.6737  39.0359

          k = 0.6250-0.3750 0.8750 (  1146 PWs)   bands (ev):

   -85.1507 -45.7728 -45.6802 -45.6417  13.6195  14.8502  15.3069  16.4116
    17.2303  19.0956  27.5798  33.1061  36.1958

          k = 0.5000-0.2500 0.7500 (  1154 PWs)   bands (ev):

   -85.1467 -45.7914 -45.6881 -45.6491  13.9972  14.8367  15.5122  16.2818
    17.4746  21.1832  23.9270  33.6636  34.5423

          k = 0.7500-0.2500 1.0000 (  1142 PWs)   bands (ev):

   -85.1467 -45.7752 -45.6872 -45.6645  13.6123  14.3219  15.8226  17.1450
    17.3412  19.4012  30.4518  31.0760  32.0113

          k = 0.6250-0.1250 0.8750 (  1153 PWs)   bands (ev):

   -85.1427 -45.7713 -45.7198 -45.6699  14.1202  14.4725  15.4855  16.8197
    17.5756  22.5803  25.8112  29.4633  31.6861

          k = 0.5000 0.0000 0.7500 (  1153 PWs)   bands (ev):

   -85.1443 -45.7591 -45.7302 -45.6584  14.4052  14.7098  14.9981  16.6695
    17.3488  21.7471  26.5801  28.8449  33.4781

          k =-0.2500-1.0000 0.0000 (  1152 PWs)   bands (ev):

   -85.1410 -45.7908 -45.7005 -45.6826  13.6448  14.1173  16.4014  17.2036
    17.7365  22.0798  27.2289  29.4460  30.4977

          k =-0.5000-1.0000 0.0000 (  1144 PWs)   bands (ev):

   -85.1410 -45.7457 -45.7457 -45.6831  14.1648  14.9678  14.9678  16.7309
    17.7370  25.4935  25.4935  27.7482  28.7832

     the Fermi energy is    17.5672 ev

!    total energy              =    -339.39948211 Ry
     Harris-Foulkes estimate   =    -339.39948211 Ry
     estimated scf accuracy    <          6.6E-10 Ry

     The total energy is the sum of the following terms:

     one-electron contribution =    -186.61617682 Ry
     hartree contribution      =     104.52486595 Ry
     xc contribution           =     -33.92264700 Ry
     ewald contribution        =    -223.38275369 Ry
     smearing contrib. (-TS)   =      -0.00277055 Ry

     convergence has been achieved in   7 iterations

     Forces acting on atoms (cartesian axes, Ry/au):

     atom    1 type  1   force =     0.00000000    0.00000000    0.00000000

     Total force =     0.000000     Total SCF correction =     0.000000


     Computing stress (Cartesian axis) and pressure

          total   stress  (Ry/bohr**3)                   (kbar)     P= -111.97
  -0.00076115   0.00000000   0.00000000       -111.97      0.00      0.00
   0.00000000  -0.00076115  -0.00000000          0.00   -111.97     -0.00
   0.00000000  -0.00000000  -0.00076115          0.00     -0.00   -111.97


     Writing output data file Ni.save/

     init_run     :      0.31s CPU      0.32s WALL (       1 calls)
     electrons    :      3.56s CPU      3.70s WALL (       1 calls)
     forces       :      0.05s CPU      0.05s WALL (       1 calls)
     stress       :      0.17s CPU      0.17s WALL (       1 calls)

     Called by init_run:
     wfcinit      :      0.12s CPU      0.12s WALL (       1 calls)
     potinit      :      0.01s CPU      0.01s WALL (       1 calls)
     hinit0       :      0.17s CPU      0.17s WALL (       1 calls)

     Called by electrons:
     c_bands      :      2.91s CPU      3.02s WALL (       8 calls)
     sum_band     :      0.54s CPU      0.57s WALL (       8 calls)
     v_of_rho     :      0.04s CPU      0.04s WALL (       8 calls)
     newd         :      0.07s CPU      0.08s WALL (       8 calls)
     mix_rho      :      0.00s CPU      0.00s WALL (       8 calls)

     Called by c_bands:
     init_us_2    :      0.08s CPU      0.08s WALL (     551 calls)
     cegterg      :      2.80s CPU      2.91s WALL (     232 calls)

     Called by sum_band:
     sum_band:bec :      0.00s CPU      0.00s WALL (     232 calls)
     addusdens    :      0.07s CPU      0.07s WALL (       8 calls)

     Called by *egterg:
     h_psi        :      2.16s CPU      2.24s WALL (     759 calls)
     s_psi        :      0.07s CPU      0.07s WALL (     759 calls)
     g_psi        :      0.01s CPU      0.01s WALL (     498 calls)
     cdiaghg      :      0.26s CPU      0.26s WALL (     701 calls)

     Called by h_psi:
     h_psi:pot    :      2.15s CPU      2.23s WALL (     759 calls)
     h_psi:calbec :      0.10s CPU      0.10s WALL (     759 calls)
     vloc_psi     :      1.97s CPU      2.05s WALL (     759 calls)
     add_vuspsi   :      0.07s CPU      0.08s WALL (     759 calls)

     General routines
     calbec       :      0.16s CPU      0.17s WALL (    1136 calls)
     fft          :      0.03s CPU      0.03s WALL (     115 calls)
     ffts         :      0.00s CPU      0.00s WALL (       8 calls)
     fftw         :      2.20s CPU      2.30s WALL (   18312 calls)

     Parallel routines
     fft_scatt_xy :      0.19s CPU      0.20s WALL (   18435 calls)
     fft_scatt_yz :      0.53s CPU      0.55s WALL (   18435 calls)

     PWSCF        :     4.85s CPU         5.06s WALL


   This run was terminated on:  23: 6:36  26Mar2024            

=------------------------------------------------------------------------------=
   JOB DONE.
=------------------------------------------------------------------------------=
