
     Program PWSCF v.6.3MaX starts on 26Mar2024 at 22:27:52 

     This program is part of the open-source Quantum ESPRESSO suite
     for quantum simulation of materials; please cite
         "P. Giannozzi et al., J. Phys.:Condens. Matter 21 395502 (2009);
         "P. Giannozzi et al., J. Phys.:Condens. Matter 29 465901 (2017);
          URL http://www.quantum-espresso.org", 
     in publications or presentations arising from this work. More details at
     http://www.quantum-espresso.org/quote

     Parallel version (MPI), running on     5 processors

     MPI processes distributed on     1 nodes
     R & G space division:  proc/nbgrp/npool/nimage =       5
     Waiting for input...
     Reading input from standard input

     Current dimensions of program PWSCF are:
     Max number of different atomic species (ntypx) = 10
     Max number of k-points (npk) =  40000
     Max angular momentum in pseudopotentials (lmaxx) =  3
               file Ni.pbesol-spn-kjpaw_psl.1.0.0.UPF: wavefunction(s)  3P 3D renormalized

     Subspace diagonalization in iterative solution of the eigenvalue problem:
     a serial algorithm will be used


     Parallelization info
     --------------------
     sticks:   dense  smooth     PW     G-vecs:    dense   smooth      PW
     Min          30      30     12                  248      248      61
     Max          31      31     13                  250      250      62
     Sum         151     151     61                 1243     1243     307



     bravais-lattice index     =            2
     lattice parameter (alat)  =       6.6500  a.u.
     unit-cell volume          =      73.5199 (a.u.)^3
     number of atoms/cell      =            1
     number of atomic types    =            1
     number of electrons       =        18.00
     number of Kohn-Sham states=           13
     kinetic-energy cutoff     =      25.0000  Ry
     charge density cutoff     =     100.0000  Ry
     convergence threshold     =      1.0E-08
     mixing beta               =       0.7000
     number of iterations used =            8  plain     mixing
     Exchange-correlation      = SLA PW PSX PSC ( 1  4 10  8 0 0)

     celldm(1)=   6.650000  celldm(2)=   0.000000  celldm(3)=   0.000000
     celldm(4)=   0.000000  celldm(5)=   0.000000  celldm(6)=   0.000000

     crystal axes: (cart. coord. in units of alat)
               a(1) = (  -0.500000   0.000000   0.500000 )  
               a(2) = (   0.000000   0.500000   0.500000 )  
               a(3) = (  -0.500000   0.500000   0.000000 )  

     reciprocal axes: (cart. coord. in units 2 pi/alat)
               b(1) = ( -1.000000 -1.000000  1.000000 )  
               b(2) = (  1.000000  1.000000  1.000000 )  
               b(3) = ( -1.000000  1.000000 -1.000000 )  


     PseudoPot. # 1 for Ni read from file:
     /home/lorenzo/pseudos/Ni/Ni.pbesol-spn-kjpaw_psl.1.0.0.UPF
     MD5 check sum: ef06ee83099c2673f0516457bd731f51
     Pseudo is Projector augmented-wave + core cor, Zval = 18.0
     Generated using "atomic" code by A. Dal Corso v.6.3
     Shape of augmentation charge: PSQ
     Using radial grid of 1195 points,  6 beta functions with: 
                l(1) =   0
                l(2) =   0
                l(3) =   1
                l(4) =   1
                l(5) =   2
                l(6) =   2
     Q(r) pseudized with 0 coefficients 


     atomic species   valence    mass     pseudopotential
        Ni            18.00    58.69340     Ni( 1.00)

     48 Sym. Ops., with inversion, found



   Cartesian axes

     site n.     atom                  positions (alat units)
         1           Ni  tau(   1) = (   0.0000000   0.0000000   0.0000000  )

     number of k points=    56  gaussian smearing, width (Ry)=  0.0100
                       cart. coord. in units 2pi/alat
        k(    1) = (   0.0000000   0.0000000   0.0000000), wk =   0.0015026
        k(    2) = (  -0.0909091   0.0909091  -0.0909091), wk =   0.0120210
        k(    3) = (  -0.1818182   0.1818182  -0.1818182), wk =   0.0120210
        k(    4) = (  -0.2727273   0.2727273  -0.2727273), wk =   0.0120210
        k(    5) = (  -0.3636364   0.3636364  -0.3636364), wk =   0.0120210
        k(    6) = (  -0.4545455   0.4545455  -0.4545455), wk =   0.0120210
        k(    7) = (   0.0000000   0.1818182   0.0000000), wk =   0.0090158
        k(    8) = (  -0.0909091   0.2727273  -0.0909091), wk =   0.0360631
        k(    9) = (  -0.1818182   0.3636364  -0.1818182), wk =   0.0360631
        k(   10) = (  -0.2727273   0.4545455  -0.2727273), wk =   0.0360631
        k(   11) = (  -0.3636364   0.5454545  -0.3636364), wk =   0.0360631
        k(   12) = (   0.5454545  -0.3636364   0.5454545), wk =   0.0360631
        k(   13) = (   0.4545455  -0.2727273   0.4545455), wk =   0.0360631
        k(   14) = (   0.3636364  -0.1818182   0.3636364), wk =   0.0360631
        k(   15) = (   0.2727273  -0.0909091   0.2727273), wk =   0.0360631
        k(   16) = (   0.1818182  -0.0000000   0.1818182), wk =   0.0180316
        k(   17) = (   0.0000000   0.3636364   0.0000000), wk =   0.0090158
        k(   18) = (  -0.0909091   0.4545455  -0.0909091), wk =   0.0360631
        k(   19) = (  -0.1818182   0.5454545  -0.1818182), wk =   0.0360631
        k(   20) = (  -0.2727273   0.6363636  -0.2727273), wk =   0.0360631
        k(   21) = (   0.6363636  -0.2727273   0.6363636), wk =   0.0360631
        k(   22) = (   0.5454545  -0.1818182   0.5454545), wk =   0.0360631
        k(   23) = (   0.4545455  -0.0909091   0.4545455), wk =   0.0360631
        k(   24) = (   0.3636364   0.0000000   0.3636364), wk =   0.0180316
        k(   25) = (   0.0000000   0.5454545   0.0000000), wk =   0.0090158
        k(   26) = (  -0.0909091   0.6363636  -0.0909091), wk =   0.0360631
        k(   27) = (  -0.1818182   0.7272727  -0.1818182), wk =   0.0360631
        k(   28) = (   0.7272727  -0.1818182   0.7272727), wk =   0.0360631
        k(   29) = (   0.6363636  -0.0909091   0.6363636), wk =   0.0360631
        k(   30) = (   0.5454545   0.0000000   0.5454545), wk =   0.0180316
        k(   31) = (   0.0000000   0.7272727   0.0000000), wk =   0.0090158
        k(   32) = (  -0.0909091   0.8181818  -0.0909091), wk =   0.0360631
        k(   33) = (   0.8181818  -0.0909091   0.8181818), wk =   0.0360631
        k(   34) = (   0.7272727   0.0000000   0.7272727), wk =   0.0180316
        k(   35) = (   0.0000000   0.9090909   0.0000000), wk =   0.0090158
        k(   36) = (   0.9090909  -0.0000000   0.9090909), wk =   0.0180316
        k(   37) = (  -0.1818182   0.3636364   0.0000000), wk =   0.0360631
        k(   38) = (  -0.2727273   0.4545455  -0.0909091), wk =   0.0721262
        k(   39) = (  -0.3636364   0.5454545  -0.1818182), wk =   0.0721262
        k(   40) = (   0.5454545  -0.3636364   0.7272727), wk =   0.0721262
        k(   41) = (  -0.1818182   0.5454545   0.0000000), wk =   0.0360631
        k(   42) = (  -0.2727273   0.6363636  -0.0909091), wk =   0.0721262
        k(   43) = (   0.6363636  -0.2727273   0.8181818), wk =   0.0721262
        k(   44) = (   0.5454545  -0.1818182   0.7272727), wk =   0.0721262
        k(   45) = (   0.4545455  -0.0909091   0.6363636), wk =   0.0721262
        k(   46) = (   0.3636364   0.0000000   0.5454545), wk =   0.0360631
        k(   47) = (  -0.1818182   0.7272727   0.0000000), wk =   0.0360631
        k(   48) = (   0.7272727  -0.1818182   0.9090909), wk =   0.0721262
        k(   49) = (   0.6363636  -0.0909091   0.8181818), wk =   0.0721262
        k(   50) = (   0.5454545   0.0000000   0.7272727), wk =   0.0360631
        k(   51) = (   0.8181818  -0.0909091   1.0000000), wk =   0.0360631
        k(   52) = (   0.7272727   0.0000000   0.9090909), wk =   0.0360631
        k(   53) = (   0.6363636  -0.2727273   1.0000000), wk =   0.0360631
        k(   54) = (   0.5454545  -0.1818182   0.9090909), wk =   0.0721262
        k(   55) = (   0.6363636  -0.0909091   1.0000000), wk =   0.0360631
        k(   56) = (   0.5454545   0.0000000   0.9090909), wk =   0.0360631

     Dense  grid:     1243 G-vectors     FFT dimensions: (  15,  15,  15)

     Estimated max dynamical RAM per process >       2.12 MB

     Estimated total dynamical RAM >      10.60 MB

     Check: negative/imaginary core charge=   -0.000245    0.000000

     Initial potential from superposition of free atoms
     Check: negative starting charge=   -0.002896

     starting charge   17.99977, renormalised to   18.00000

     negative rho (up, down):  2.896E-03 0.000E+00
     Starting wfcs are   10 randomized atomic wfcs +    3 random wfcs
     Checking if some PAW data can be deallocated... 

     total cpu time spent up to now is        1.0 secs

     Self-consistent Calculation

     iteration #  1     ecut=    25.00 Ry     beta= 0.70
     Davidson diagonalization with overlap
     ethr =  1.00E-02,  avg # of iterations =  3.9

     total cpu time spent up to now is        1.5 secs

     total energy              =    -411.09840280 Ry
     Harris-Foulkes estimate   =    -416.98203943 Ry
     estimated scf accuracy    <       6.99742621 Ry

     iteration #  2     ecut=    25.00 Ry     beta= 0.70
     Davidson diagonalization with overlap
     ethr =  1.00E-02,  avg # of iterations =  2.0

     total cpu time spent up to now is        1.9 secs

     total energy              =    -413.47378595 Ry
     Harris-Foulkes estimate   =    -418.22290855 Ry
     estimated scf accuracy    <       9.88462407 Ry

     iteration #  3     ecut=    25.00 Ry     beta= 0.70
     Davidson diagonalization with overlap
     ethr =  1.00E-02,  avg # of iterations =  2.0

     negative rho (up, down):  7.650E-04 0.000E+00

     total cpu time spent up to now is        2.2 secs

     total energy              =    -414.65622365 Ry
     Harris-Foulkes estimate   =    -414.75488399 Ry
     estimated scf accuracy    <       0.15637522 Ry

     iteration #  4     ecut=    25.00 Ry     beta= 0.70
     Davidson diagonalization with overlap
     ethr =  8.69E-04,  avg # of iterations =  2.0

     negative rho (up, down):  2.299E-04 0.000E+00

     total cpu time spent up to now is        2.6 secs

     total energy              =    -414.70189384 Ry
     Harris-Foulkes estimate   =    -414.76986350 Ry
     estimated scf accuracy    <       0.24652453 Ry

     iteration #  5     ecut=    25.00 Ry     beta= 0.70
     Davidson diagonalization with overlap
     ethr =  8.69E-04,  avg # of iterations =  1.1

     total cpu time spent up to now is        2.8 secs

     total energy              =    -414.70715628 Ry
     Harris-Foulkes estimate   =    -414.71816043 Ry
     estimated scf accuracy    <       0.03073404 Ry

     iteration #  6     ecut=    25.00 Ry     beta= 0.70
     Davidson diagonalization with overlap
     ethr =  1.71E-04,  avg # of iterations =  1.2

     total cpu time spent up to now is        3.1 secs

     total energy              =    -414.71151249 Ry
     Harris-Foulkes estimate   =    -414.71151504 Ry
     estimated scf accuracy    <       0.00000562 Ry

     iteration #  7     ecut=    25.00 Ry     beta= 0.70
     Davidson diagonalization with overlap
     ethr =  3.12E-08,  avg # of iterations =  2.4

     total cpu time spent up to now is        3.5 secs

     total energy              =    -414.71151634 Ry
     Harris-Foulkes estimate   =    -414.71152213 Ry
     estimated scf accuracy    <       0.00001627 Ry

     iteration #  8     ecut=    25.00 Ry     beta= 0.70
     Davidson diagonalization with overlap
     ethr =  3.12E-08,  avg # of iterations =  2.0

     total cpu time spent up to now is        3.8 secs

     total energy              =    -414.71151892 Ry
     Harris-Foulkes estimate   =    -414.71151899 Ry
     estimated scf accuracy    <       0.00000025 Ry

     iteration #  9     ecut=    25.00 Ry     beta= 0.70
     Davidson diagonalization with overlap
     ethr =  1.41E-09,  avg # of iterations =  1.0

     total cpu time spent up to now is        4.1 secs

     total energy              =    -414.71151890 Ry
     Harris-Foulkes estimate   =    -414.71151893 Ry
     estimated scf accuracy    <       0.00000007 Ry

     iteration # 10     ecut=    25.00 Ry     beta= 0.70
     Davidson diagonalization with overlap
     ethr =  3.65E-10,  avg # of iterations =  1.5

     total cpu time spent up to now is        4.4 secs

     End of self-consistent calculation

          k = 0.0000 0.0000 0.0000 (   169 PWs)   bands (ev):

   -98.8681 -48.8011 -48.8011 -48.8011   9.8733  13.3299  13.3299  14.7108
    14.7108  14.7108  42.5535  46.1100  46.1100

          k =-0.0909 0.0909-0.0909 (   165 PWs)   bands (ev):

   -98.7484 -48.3528 -48.3528 -46.7955  10.2063  14.3739  14.3739  15.1956
    15.1956  16.5207  40.4549  43.9107  44.8037

          k =-0.1818 0.1818-0.1818 (   153 PWs)   bands (ev):

   -98.4790 -45.2558 -45.2558 -44.6565  11.2669  16.9115  17.4754  17.4754
    19.4600  19.4600  36.4782  43.1435  44.1571

          k =-0.2727 0.2727-0.2727 (   153 PWs)   bands (ev):

   -98.4669 -45.6330 -45.6330 -43.8598  12.7058  17.0111  17.0111  18.5559
    19.1539  19.1539  32.4928  42.3758  43.3945

          k =-0.3636 0.3636-0.3636 (   153 PWs)   bands (ev):

   -98.4489 -45.6142 -45.6142 -43.7083  14.5308  17.0795  17.0795  17.8335
    19.3969  19.3969  29.3984  41.6107  43.2345

          k =-0.4545 0.4545-0.4545 (   156 PWs)   bands (ev):

   -98.4811 -46.9601 -44.8531 -44.8531  12.9440  17.7202  17.7202  17.9040
    19.9021  19.9021  23.3439  41.0882  43.4441

          k = 0.0000 0.1818 0.0000 (   161 PWs)   bands (ev):

   -98.6518 -47.7643 -47.7643 -45.3046  10.3323  13.4443  16.1426  16.8753
    17.0214  17.0214  41.1434  42.9736  42.9736

          k =-0.0909 0.2727-0.0909 (   158 PWs)   bands (ev):

   -98.5859 -47.2208 -46.4681 -45.0577  11.0661  15.4626  15.8955  16.6998
    17.7146  18.4509  37.9167  41.6353  41.7324

          k =-0.1818 0.3636-0.1818 (   157 PWs)   bands (ev):

   -98.5501 -46.4575 -46.3548 -45.0064  12.3308  16.1605  16.3873  16.9592
    17.8427  18.5407  33.6986  40.7353  40.8810

          k =-0.2727 0.4545-0.2727 (   154 PWs)   bands (ev):

   -98.4647 -46.2469 -45.4604 -43.8373  14.0691  16.1105  17.1599  18.0683
    18.8245  19.6555  30.4479  40.1630  40.7159

          k =-0.3636 0.5455-0.3636 (   155 PWs)   bands (ev):

   -98.4605 -45.8996 -45.2190 -44.7675  13.7839  17.3707  17.6664  17.7166
    19.4742  20.1294  25.5811  39.3772  40.9142

          k = 0.5455-0.3636 0.5455 (   160 PWs)   bands (ev):

   -98.5617 -47.9163 -46.0747 -45.3324  13.0452  16.2608  17.1099  17.5740
    18.4095  18.9998  22.9637  38.6427  41.6018

          k = 0.4545-0.2727 0.4545 (   153 PWs)   bands (ev):

   -98.4279 -45.5927 -44.8709 -44.1449  14.9657  17.4002  17.4993  17.6128
    19.0169  20.3848  28.1637  38.4704  42.6697

          k = 0.3636-0.1818 0.3636 (   154 PWs)   bands (ev):

   -98.4710 -46.0950 -45.6593 -43.8664  13.4734  16.3900  17.2439  18.3125
    18.8855  18.9854  31.4951  38.3222  43.7977

          k = 0.2727-0.0909 0.2727 (   157 PWs)   bands (ev):

   -98.5597 -46.3107 -46.2548 -45.3361  11.8683  16.0906  16.1808  16.3027
    18.4056  18.7814  35.0859  38.8696  45.0774

          k = 0.1818-0.0000 0.1818 (   159 PWs)   bands (ev):

   -98.6103 -48.0579 -46.3368 -45.0703  10.7365  15.0858  15.4123  16.5626
    16.8597  18.9946  38.8096  40.4885  45.2124

          k = 0.0000 0.3636 0.0000 (   161 PWs)   bands (ev):

   -98.6410 -47.5809 -47.5809 -45.4661  11.4518  13.7808  15.7868  16.5207
    17.3684  17.3684  39.1949  39.9914  39.9914

          k =-0.0909 0.4545-0.0909 (   158 PWs)   bands (ev):

   -98.5560 -46.6644 -46.4904 -45.1335  12.5601  15.6781  16.1694  17.4578
    17.6055  18.1073  35.5330  38.7016  39.1422

          k =-0.1818 0.5455-0.1818 (   152 PWs)   bands (ev):

   -98.4017 -45.7801 -44.9965 -43.1170  14.1209  16.7701  17.2106  19.1122
    19.8114  20.0352  32.2374  37.8374  38.3598

          k =-0.2727 0.6364-0.2727 (   150 PWs)   bands (ev):

   -98.3383 -44.6398 -44.0380 -43.3949  15.4196  17.5139  18.3668  18.5991
    19.8636  22.4457  29.0204  36.5539  38.7157

          k = 0.6364-0.2727 0.6364 (   156 PWs)   bands (ev):

   -98.4520 -45.8482 -45.3058 -44.9592  14.5459  16.4178  17.4694  17.8106
    19.2085  21.8248  24.7242  35.2407  39.2500

          k = 0.5455-0.1818 0.5455 (   159 PWs)   bands (ev):

   -98.5299 -46.8884 -45.9268 -45.5636  13.9679  16.2258  17.1221  17.2127
    17.7148  19.3173  26.7067  34.2316  40.5727

          k = 0.4545-0.0909 0.4545 (   153 PWs)   bands (ev):

   -98.4154 -46.0552 -44.5595 -43.8736  14.3205  17.1404  17.1778  18.2983
    18.9178  20.3269  31.1917  34.5235  42.8536

          k = 0.3636 0.0000 0.3636 (   154 PWs)   bands (ev):

   -98.4658 -46.2238 -46.1303 -43.2728  13.0014  16.2438  16.2439  18.3606
    19.4092  19.5394  34.3525  34.9772  44.8659

          k = 0.0000 0.5455 0.0000 (   153 PWs)   bands (ev):

   -98.4158 -45.2482 -45.2482 -43.9088  13.5386  16.5816  18.4724  18.9852
    18.9852  19.1827  37.1333  37.1333  37.4479

          k =-0.0909 0.6364-0.0909 (   153 PWs)   bands (ev):

   -98.3905 -45.9175 -45.2964 -42.9779  14.5180  16.4476  16.5553  18.5154
    20.0113  21.0927  34.1534  35.5998  36.6238

          k =-0.1818 0.7273-0.1818 (   154 PWs)   bands (ev):

   -98.3984 -45.3466 -45.1179 -44.1590  14.3358  17.2637  17.5861  18.4433
    20.1620  20.3645  30.6106  33.2200  36.3602

          k = 0.7273-0.1818 0.7273 (   154 PWs)   bands (ev):

   -98.3901 -45.6030 -44.6048 -44.2353  15.2923  16.7636  18.2614  18.5156
    19.3226  22.5359  26.5120  32.1006  37.3217

          k = 0.6364-0.0909 0.6364 (   156 PWs)   bands (ev):

   -98.4294 -45.8846 -45.4982 -44.4204  15.0988  17.0485  17.3496  17.5459
    18.5332  22.3951  26.6227  31.2256  38.5267

          k = 0.5455 0.0000 0.5455 (   158 PWs)   bands (ev):

   -98.4989 -46.3465 -46.0325 -45.1720  13.2882  16.2289  17.2965  18.1304
    18.3026  18.9564  30.4919  30.7503  40.5495

          k = 0.0000 0.7273 0.0000 (   154 PWs)   bands (ev):

   -98.3950 -45.0629 -45.0629 -44.4259  15.2640  16.2795  18.1906  18.6571
    19.7428  19.7428  32.8710  35.3035  35.3035

          k =-0.0909 0.8182-0.0909 (   156 PWs)   bands (ev):

   -98.4146 -46.1771 -44.9488 -44.5682  14.4077  17.1069  17.7938  18.6199
    19.6222  20.0602  30.0747  32.5144  34.4592

          k = 0.8182-0.0909 0.8182 (   156 PWs)   bands (ev):

   -98.4001 -45.7503 -44.8790 -44.8785  15.7921  16.5673  17.3256  17.5161
    20.0614  22.4303  28.5234  29.4707  34.9620

          k = 0.7273 0.0000 0.7273 (   154 PWs)   bands (ev):

   -98.3482 -45.1787 -45.0058 -43.7920  17.0240  17.0831  17.3162  17.8621
    18.9062  25.2568  26.0848  29.8626  36.4426

          k = 0.0000 0.9091 0.0000 (   150 PWs)   bands (ev):

   -98.2892 -43.8641 -43.8641 -43.7413  16.0386  17.9545  19.6894  21.0606
    21.0606  21.1343  28.8479  33.8390  33.8390

          k = 0.9091-0.0000 0.9091 (   154 PWs)   bands (ev):

   -98.3633 -45.5418 -44.6307 -44.0489  16.2430  17.0147  17.4751  18.9590
    20.6433  21.7841  28.3993  31.6286  33.9461

          k =-0.1818 0.3636 0.0000 (   156 PWs)   bands (ev):

   -98.5268 -46.2008 -45.4563 -45.4197  11.9765  16.6863  16.7467  17.0989
    17.7837  18.8356  36.4385  37.5508  43.3540

          k =-0.2727 0.4545-0.0909 (   155 PWs)   bands (ev):

   -98.4825 -46.4565 -45.7830 -43.9249  13.2852  16.0703  16.5309  17.6268
    19.0684  19.5493  32.9969  36.4348  41.5508

          k =-0.3636 0.5455-0.1818 (   152 PWs)   bands (ev):

   -98.3957 -45.5086 -45.0068 -43.2938  14.8109  16.4367  17.8080  18.1235
    19.6413  21.2743  29.9749  36.2978  39.8527

          k = 0.5455-0.3636 0.7273 (   157 PWs)   bands (ev):

   -98.4833 -46.7577 -45.3385 -44.8957  14.0251  16.8413  17.2736  17.7822
    18.7308  19.8856  25.5297  36.4415  38.5986

          k =-0.1818 0.5455 0.0000 (   154 PWs)   bands (ev):

   -98.4402 -45.3366 -45.2950 -44.4323  13.8893  16.5938  17.5285  18.0604
    18.9791  19.5791  34.3851  35.2794  38.6792

          k =-0.2727 0.6364-0.0909 (   151 PWs)   bands (ev):

   -98.3608 -44.8065 -44.2304 -43.8169  14.8575  17.3948  17.9368  18.7028
    20.4102  20.9420  31.5990  34.6623  36.7906

          k = 0.6364-0.2727 0.8182 (   155 PWs)   bands (ev):

   -98.4166 -46.3300 -44.8954 -44.1135  14.3518  17.1428  17.9265  18.7738
    19.2477  20.2487  27.3754  33.9179  35.7383

          k = 0.5455-0.1818 0.7273 (   157 PWs)   bands (ev):

   -98.4549 -46.4755 -45.3900 -44.7379  14.7556  16.1422  16.9226  18.0410
    18.7964  22.3811  25.1079  33.0582  36.4285

          k = 0.4545-0.0909 0.6364 (   154 PWs)   bands (ev):

   -98.4064 -45.9777 -45.0079 -43.7893  14.4487  17.7734  17.9427  18.2925
    19.5214  19.6638  28.9451  32.8357  37.7151

          k = 0.3636 0.0000 0.5455 (   152 PWs)   bands (ev):

   -98.3906 -45.2024 -44.7137 -43.8068  14.3453  16.8250  17.9088  18.4184
    20.0777  20.1934  32.8757  32.9941  39.4932

          k =-0.1818 0.7273 0.0000 (   155 PWs)   bands (ev):

   -98.4179 -45.4628 -45.1953 -44.6408  14.0025  17.0786  17.7937  18.2203
    19.5191  20.3435  32.7667  32.8008  34.0279

          k = 0.7273-0.1818 0.9091 (   156 PWs)   bands (ev):

   -98.4252 -45.8890 -45.2587 -44.6816  14.9907  16.4721  17.6219  18.2599
    18.9583  21.3815  29.4714  31.1975  33.6453

          k = 0.6364-0.0909 0.8182 (   157 PWs)   bands (ev):

   -98.4429 -46.4832 -45.2639 -44.7345  15.5661  16.2259  16.7916  17.9504
    18.1933  23.8171  26.2934  30.2619  34.2614

          k = 0.5455 0.0000 0.7273 (   154 PWs)   bands (ev):

   -98.3868 -45.5317 -44.5316 -44.3521  15.2771  17.3075  17.4328  18.9681
    19.0455  22.5725  28.1143  30.1437  35.9646

          k = 0.8182-0.0909 1.0000 (   157 PWs)   bands (ev):

   -98.4155 -47.2699 -44.8887 -44.0775  15.3960  15.9612  16.3083  18.8604
    19.6071  21.8448  28.5547  31.8557  32.7365

          k = 0.7273 0.0000 0.9091 (   160 PWs)   bands (ev):

   -98.4918 -46.7068 -46.6828 -44.9826  14.3056  15.5056  16.3064  17.8172
    18.6717  22.9210  27.5751  29.1138  32.9589

          k = 0.6364-0.2727 1.0000 (   157 PWs)   bands (ev):

   -98.4633 -46.9633 -45.0918 -44.7111  14.0930  17.1007  17.2515  18.0556
    18.7913  19.6528  29.9842  31.3863  34.1263

          k = 0.5455-0.1818 0.9091 (   157 PWs)   bands (ev):

   -98.4533 -46.7268 -45.0940 -44.8404  14.8679  16.8754  17.0888  17.6090
    18.2764  22.5341  27.1501  31.3283  32.8782

          k = 0.6364-0.0909 1.0000 (   156 PWs)   bands (ev):

   -98.4252 -45.9877 -44.9430 -44.9025  15.3846  16.5922  16.8095  18.3823
    18.8174  23.5877  29.1332  29.6791  31.3055

          k = 0.5455 0.0000 0.9091 (   153 PWs)   bands (ev):

   -98.3655 -44.9276 -44.7521 -44.0224  16.6414  16.9107  17.0663  18.8100
    19.1682  26.7312  27.0627  29.3991  31.8073

     the Fermi energy is    19.5720 ev

!    total energy              =    -414.71151891 Ry
     Harris-Foulkes estimate   =    -414.71151892 Ry
     estimated scf accuracy    <          3.8E-09 Ry

     total all-electron energy =     -3027.169864 Ry

     The total energy is the sum of the following terms:

     one-electron contribution =    -162.72114737 Ry
     hartree contribution      =      92.36086443 Ry
     xc contribution           =     -32.71475865 Ry
     ewald contribution        =    -223.38275373 Ry
     one-center paw contrib.   =     -88.25234335 Ry
     smearing contrib. (-TS)   =      -0.00138024 Ry

     convergence has been achieved in  10 iterations

     Forces acting on atoms (cartesian axes, Ry/au):

     atom    1 type  1   force =     0.00000000    0.00000000    0.00000000

     Total force =     0.000000     Total SCF correction =     0.000000


     Computing stress (Cartesian axis) and pressure

          total   stress  (Ry/bohr**3)                   (kbar)     P=********
  -0.54164267   0.00000000  -0.00000000     -79678.37      0.00     -0.00
   0.00000000  -0.54164267   0.00000000          0.00 -79678.37      0.00
  -0.00000000   0.00000000  -0.54164267         -0.00      0.00 -79678.37


     Writing output data file Ni.save/

     init_run     :      0.24s CPU      0.26s WALL (       1 calls)
     electrons    :      3.00s CPU      3.39s WALL (       1 calls)
     forces       :      0.02s CPU      0.02s WALL (       1 calls)
     stress       :      0.04s CPU      0.04s WALL (       1 calls)

     Called by init_run:
     wfcinit      :      0.05s CPU      0.06s WALL (       1 calls)
     potinit      :      0.10s CPU      0.11s WALL (       1 calls)
     hinit0       :      0.08s CPU      0.08s WALL (       1 calls)

     Called by electrons:
     c_bands      :      1.74s CPU      1.98s WALL (      10 calls)
     sum_band     :      0.27s CPU      0.31s WALL (      10 calls)
     v_of_rho     :      0.01s CPU      0.01s WALL (      11 calls)
     newd         :      0.01s CPU      0.01s WALL (      11 calls)
     PAW_pot      :      1.04s CPU      1.18s WALL (      11 calls)
     mix_rho      :      0.00s CPU      0.00s WALL (      10 calls)

     Called by c_bands:
     init_us_2    :      0.03s CPU      0.04s WALL (    1288 calls)
     cegterg      :      1.69s CPU      1.92s WALL (     560 calls)

     Called by sum_band:
     sum_band:bec :      0.01s CPU      0.01s WALL (     560 calls)
     addusdens    :      0.01s CPU      0.01s WALL (      10 calls)

     Called by *egterg:
     h_psi        :      0.99s CPU      1.13s WALL (    1689 calls)
     s_psi        :      0.03s CPU      0.04s WALL (    1689 calls)
     g_psi        :      0.00s CPU      0.00s WALL (    1073 calls)
     cdiaghg      :      0.49s CPU      0.55s WALL (    1633 calls)

     Called by h_psi:
     h_psi:pot    :      0.98s CPU      1.12s WALL (    1689 calls)
     h_psi:calbec :      0.05s CPU      0.06s WALL (    1689 calls)
     vloc_psi     :      0.88s CPU      1.01s WALL (    1689 calls)
     add_vuspsi   :      0.03s CPU      0.04s WALL (    1689 calls)

     General routines
     calbec       :      0.08s CPU      0.09s WALL (    2529 calls)
     fft          :      0.01s CPU      0.01s WALL (     147 calls)
     ffts         :      0.00s CPU      0.00s WALL (      10 calls)
     fftw         :      0.98s CPU      1.12s WALL (   43436 calls)

     Parallel routines
     fft_scatt_xy :      0.10s CPU      0.12s WALL (   43593 calls)
     fft_scatt_yz :      0.41s CPU      0.47s WALL (   43593 calls)

     PWSCF        :     4.07s CPU         4.56s WALL


   This run was terminated on:  22:27:57  26Mar2024            

=------------------------------------------------------------------------------=
   JOB DONE.
=------------------------------------------------------------------------------=
