
     Program PWSCF v.6.3MaX starts on 26Mar2024 at 22:40: 4 

     This program is part of the open-source Quantum ESPRESSO suite
     for quantum simulation of materials; please cite
         "P. Giannozzi et al., J. Phys.:Condens. Matter 21 395502 (2009);
         "P. Giannozzi et al., J. Phys.:Condens. Matter 29 465901 (2017);
          URL http://www.quantum-espresso.org", 
     in publications or presentations arising from this work. More details at
     http://www.quantum-espresso.org/quote

     Parallel version (MPI), running on     5 processors

     MPI processes distributed on     1 nodes
     R & G space division:  proc/nbgrp/npool/nimage =       5
     Waiting for input...
     Reading input from standard input

     Current dimensions of program PWSCF are:
     Max number of different atomic species (ntypx) = 10
     Max number of k-points (npk) =  40000
     Max angular momentum in pseudopotentials (lmaxx) =  3
               file Ni.pbe-spn-kjpaw_psl.1.0.0.UPF: wavefunction(s)  3P 3D renormalized

     Subspace diagonalization in iterative solution of the eigenvalue problem:
     a serial algorithm will be used


     Parallelization info
     --------------------
     sticks:   dense  smooth     PW     G-vecs:    dense   smooth      PW
     Min          62      62     21                  705      705     144
     Max          63      63     22                  706      706     146
     Sum         313     313    109                 3527     3527     725



     bravais-lattice index     =            2
     lattice parameter (alat)  =       6.6500  a.u.
     unit-cell volume          =      73.5199 (a.u.)^3
     number of atoms/cell      =            1
     number of atomic types    =            1
     number of electrons       =        18.00
     number of Kohn-Sham states=           13
     kinetic-energy cutoff     =      50.0000  Ry
     charge density cutoff     =     200.0000  Ry
     convergence threshold     =      1.0E-08
     mixing beta               =       0.7000
     number of iterations used =            8  plain     mixing
     Exchange-correlation      = SLA PW PBX PBC ( 1  4  3  4 0 0)

     celldm(1)=   6.650000  celldm(2)=   0.000000  celldm(3)=   0.000000
     celldm(4)=   0.000000  celldm(5)=   0.000000  celldm(6)=   0.000000

     crystal axes: (cart. coord. in units of alat)
               a(1) = (  -0.500000   0.000000   0.500000 )  
               a(2) = (   0.000000   0.500000   0.500000 )  
               a(3) = (  -0.500000   0.500000   0.000000 )  

     reciprocal axes: (cart. coord. in units 2 pi/alat)
               b(1) = ( -1.000000 -1.000000  1.000000 )  
               b(2) = (  1.000000  1.000000  1.000000 )  
               b(3) = ( -1.000000  1.000000 -1.000000 )  


     PseudoPot. # 1 for Ni read from file:
     /home/lorenzo/pseudos/Ni/Ni.pbe-spn-kjpaw_psl.1.0.0.UPF
     MD5 check sum: 6e86b733589c3ad8389697b807d86aa7
     Pseudo is Projector augmented-wave + core cor, Zval = 18.0
     Generated using "atomic" code by A. Dal Corso v.6.3
     Shape of augmentation charge: PSQ
     Using radial grid of 1195 points,  6 beta functions with: 
                l(1) =   0
                l(2) =   0
                l(3) =   1
                l(4) =   1
                l(5) =   2
                l(6) =   2
     Q(r) pseudized with 0 coefficients 


     atomic species   valence    mass     pseudopotential
        Ni            18.00    58.69340     Ni( 1.00)

     48 Sym. Ops., with inversion, found



   Cartesian axes

     site n.     atom                  positions (alat units)
         1           Ni  tau(   1) = (   0.0000000   0.0000000   0.0000000  )

     number of k points=    29  gaussian smearing, width (Ry)=  0.0100
                       cart. coord. in units 2pi/alat
        k(    1) = (   0.0000000   0.0000000   0.0000000), wk =   0.0039062
        k(    2) = (  -0.1250000   0.1250000  -0.1250000), wk =   0.0312500
        k(    3) = (  -0.2500000   0.2500000  -0.2500000), wk =   0.0312500
        k(    4) = (  -0.3750000   0.3750000  -0.3750000), wk =   0.0312500
        k(    5) = (   0.5000000  -0.5000000   0.5000000), wk =   0.0156250
        k(    6) = (   0.0000000   0.2500000   0.0000000), wk =   0.0234375
        k(    7) = (  -0.1250000   0.3750000  -0.1250000), wk =   0.0937500
        k(    8) = (  -0.2500000   0.5000000  -0.2500000), wk =   0.0937500
        k(    9) = (   0.6250000  -0.3750000   0.6250000), wk =   0.0937500
        k(   10) = (   0.5000000  -0.2500000   0.5000000), wk =   0.0937500
        k(   11) = (   0.3750000  -0.1250000   0.3750000), wk =   0.0937500
        k(   12) = (   0.2500000   0.0000000   0.2500000), wk =   0.0468750
        k(   13) = (   0.0000000   0.5000000   0.0000000), wk =   0.0234375
        k(   14) = (  -0.1250000   0.6250000  -0.1250000), wk =   0.0937500
        k(   15) = (   0.7500000  -0.2500000   0.7500000), wk =   0.0937500
        k(   16) = (   0.6250000  -0.1250000   0.6250000), wk =   0.0937500
        k(   17) = (   0.5000000   0.0000000   0.5000000), wk =   0.0468750
        k(   18) = (   0.0000000   0.7500000   0.0000000), wk =   0.0234375
        k(   19) = (   0.8750000  -0.1250000   0.8750000), wk =   0.0937500
        k(   20) = (   0.7500000   0.0000000   0.7500000), wk =   0.0468750
        k(   21) = (   0.0000000  -1.0000000   0.0000000), wk =   0.0117188
        k(   22) = (  -0.2500000   0.5000000   0.0000000), wk =   0.0937500
        k(   23) = (   0.6250000  -0.3750000   0.8750000), wk =   0.1875000
        k(   24) = (   0.5000000  -0.2500000   0.7500000), wk =   0.0937500
        k(   25) = (   0.7500000  -0.2500000   1.0000000), wk =   0.0937500
        k(   26) = (   0.6250000  -0.1250000   0.8750000), wk =   0.1875000
        k(   27) = (   0.5000000   0.0000000   0.7500000), wk =   0.0937500
        k(   28) = (  -0.2500000  -1.0000000   0.0000000), wk =   0.0468750
        k(   29) = (  -0.5000000  -1.0000000   0.0000000), wk =   0.0234375

     Dense  grid:     3527 G-vectors     FFT dimensions: (  24,  24,  24)

     Estimated max dynamical RAM per process >       4.40 MB

     Estimated total dynamical RAM >      22.00 MB

     Check: negative/imaginary core charge=   -0.000020    0.000000

     Initial potential from superposition of free atoms

     starting charge   17.99975, renormalised to   18.00000
     Starting wfcs are   10 randomized atomic wfcs +    3 random wfcs
     Checking if some PAW data can be deallocated... 

     total cpu time spent up to now is        1.0 secs

     Self-consistent Calculation

     iteration #  1     ecut=    50.00 Ry     beta= 0.70
     Davidson diagonalization with overlap
     ethr =  1.00E-02,  avg # of iterations =  3.7

     Threshold (ethr) on eigenvalues was too large:
     Diagonalizing with lowered threshold

     Davidson diagonalization with overlap
     ethr =  2.19E-05,  avg # of iterations =  2.7

     total cpu time spent up to now is        1.7 secs

     total energy              =    -429.10491993 Ry
     Harris-Foulkes estimate   =    -429.10693406 Ry
     estimated scf accuracy    <       0.00398157 Ry

     iteration #  2     ecut=    50.00 Ry     beta= 0.70
     Davidson diagonalization with overlap
     ethr =  2.21E-05,  avg # of iterations =  2.1

     total cpu time spent up to now is        2.0 secs

     total energy              =    -429.10392806 Ry
     Harris-Foulkes estimate   =    -429.10862902 Ry
     estimated scf accuracy    <       0.01321486 Ry

     iteration #  3     ecut=    50.00 Ry     beta= 0.70
     Davidson diagonalization with overlap
     ethr =  2.21E-05,  avg # of iterations =  2.1

     total cpu time spent up to now is        2.4 secs

     total energy              =    -429.10624074 Ry
     Harris-Foulkes estimate   =    -429.10632437 Ry
     estimated scf accuracy    <       0.00033725 Ry

     iteration #  4     ecut=    50.00 Ry     beta= 0.70
     Davidson diagonalization with overlap
     ethr =  1.87E-06,  avg # of iterations =  1.4

     total cpu time spent up to now is        2.8 secs

     total energy              =    -429.10629466 Ry
     Harris-Foulkes estimate   =    -429.10629443 Ry
     estimated scf accuracy    <       0.00000317 Ry

     iteration #  5     ecut=    50.00 Ry     beta= 0.70
     Davidson diagonalization with overlap
     ethr =  1.76E-08,  avg # of iterations =  2.8

     total cpu time spent up to now is        3.3 secs

     total energy              =    -429.10629609 Ry
     Harris-Foulkes estimate   =    -429.10629614 Ry
     estimated scf accuracy    <       0.00000013 Ry

     iteration #  6     ecut=    50.00 Ry     beta= 0.70
     Davidson diagonalization with overlap
     ethr =  6.96E-10,  avg # of iterations =  2.0

     total cpu time spent up to now is        3.8 secs

     End of self-consistent calculation

          k = 0.0000 0.0000 0.0000 (   459 PWs)   bands (ev):

   -85.3303 -45.5466 -45.5466 -45.5466   8.8744  15.9056  15.9056  15.9056
    17.0006  17.0006  41.4900  45.4359  45.4359

          k =-0.1250 0.1250-0.1250 (   432 PWs)   bands (ev):

   -85.3252 -45.5663 -45.5158 -45.5158   9.4944  15.7593  16.0445  16.0445
    16.9673  16.9673  38.6421  42.5636  44.3470

          k =-0.2500 0.2500-0.2500 (   438 PWs)   bands (ev):

   -85.3132 -45.6568 -45.5379 -45.5379  11.1339  15.5289  16.1206  16.1206
    17.0994  17.0994  32.3801  41.6090  43.2305

          k =-0.3750 0.3750-0.3750 (   431 PWs)   bands (ev):

   -85.3010 -45.7237 -45.5516 -45.5516  12.8751  15.9576  15.9576  16.1421
    17.5316  17.5316  26.8175  40.4850  42.6835

          k = 0.5000-0.5000 0.5000 (   434 PWs)   bands (ev):

   -85.2961 -45.7721 -45.5557 -45.5557  13.3303  15.8671  15.8671  17.5450
    17.7471  17.7471  23.8385  40.0017  42.5655

          k = 0.0000 0.2500 0.0000 (   443 PWs)   bands (ev):

   -85.3235 -45.5767 -45.5396 -45.5396   9.6848  15.6258  16.1420  16.1420
    16.7372  17.1095  40.2007  41.5263  41.5263

          k =-0.1250 0.3750-0.1250 (   447 PWs)   bands (ev):

   -85.3139 -45.6335 -45.5653 -45.5619  10.9778  15.3215  16.1718  16.3252
    16.8259  17.2598  34.8299  39.6843  40.1886

          k =-0.2500 0.5000-0.2500 (   436 PWs)   bands (ev):

   -85.3018 -45.6996 -45.5739 -45.5660  12.8034  15.3133  15.8632  16.2487
    17.6081  17.7163  28.8766  38.8157  38.9390

          k = 0.6250-0.3750 0.6250 (   441 PWs)   bands (ev):

   -85.2944 -45.7471 -45.5918 -45.5851  13.6233  15.5465  16.1012  16.1791
    17.7624  19.3190  24.4205  37.2076  39.4767

          k = 0.5000-0.2500 0.5000 (   437 PWs)   bands (ev):

   -85.2961 -45.7307 -45.5987 -45.5661  13.5200  15.6498  15.9815  16.1047
    17.4724  18.9119  25.6153  36.1925  41.4108

          k = 0.3750-0.1250 0.3750 (   437 PWs)   bands (ev):

   -85.3058 -45.6770 -45.5820 -45.5426  12.2393  15.3388  15.9479  16.2756
    16.9203  17.8257  30.7855  36.1748  43.1207

          k = 0.2500 0.0000 0.2500 (   445 PWs)   bands (ev):

   -85.3179 -45.6172 -45.5613 -45.5361  10.4434  15.5060  16.1307  16.2417
    16.7161  17.2211  36.6104  37.4929  45.0404

          k = 0.0000 0.5000 0.0000 (   431 PWs)   bands (ev):

   -85.3074 -45.6319 -45.5682 -45.5682  11.7914  14.9479  16.3522  16.7755
    16.7755  17.3686  37.1373  37.1373  37.9058

          k =-0.1250 0.6250-0.1250 (   441 PWs)   bands (ev):

   -85.2978 -45.6974 -45.6011 -45.5962  13.1099  14.6860  16.0971  16.8933
    17.6418  17.8630  31.7740  35.0472  35.8405

          k = 0.7500-0.2500 0.7500 (   437 PWs)   bands (ev):

   -85.2905 -45.7286 -45.6170 -45.5980  14.0550  14.7392  15.8708  16.7399
    17.8024  20.3447  26.4821  32.5157  36.0519

          k = 0.6250-0.1250 0.6250 (   438 PWs)   bands (ev):

   -85.2898 -45.7209 -45.6404 -45.5908  14.3737  14.9512  15.6353  16.6092
    17.4998  21.5737  25.0487  30.9193  37.8053

          k = 0.5000 0.0000 0.5000 (   435 PWs)   bands (ev):

   -85.2961 -45.6890 -45.6300 -45.5683  13.7869  15.2034  15.4597  16.5551
    16.9924  19.2056  29.4918  30.8979  40.7889

          k = 0.0000 0.7500 0.0000 (   444 PWs)   bands (ev):

   -85.2915 -45.7181 -45.6232 -45.6232  13.3588  14.3081  17.5473  17.5473
    17.6121  17.7465  31.3780  33.9159  33.9159

          k = 0.8750-0.1250 0.8750 (   445 PWs)   bands (ev):

   -85.2866 -45.7449 -45.6350 -45.6250  13.6768  14.2494  16.9912  17.4513
    17.8506  20.5156  28.7177  30.0171  33.6032

          k = 0.7500 0.0000 0.7500 (   434 PWs)   bands (ev):

   -85.2858 -45.7144 -45.6569 -45.6038  14.1912  14.4996  16.1524  17.1613
    17.6783  23.7100  25.2809  28.0101  35.0249

          k = 0.0000-1.0000 0.0000 (   444 PWs)   bands (ev):

   -85.2849 -45.7508 -45.6348 -45.6348  13.4583  14.0590  17.7199  17.9367
    17.9367  20.2883  27.2992  32.6856  32.6856

          k =-0.2500 0.5000 0.0000 (   440 PWs)   bands (ev):

   -85.3042 -45.6735 -45.5916 -45.5634  12.4100  15.0401  15.8750  16.7876
    16.8226  17.8583  33.1987  33.9353  39.2750

          k = 0.6250-0.3750 0.8750 (   436 PWs)   bands (ev):

   -85.2945 -45.7132 -45.6183 -45.5741  13.8613  15.0648  15.5193  16.6146
    17.4291  19.3087  27.8303  33.3472  36.4524

          k = 0.5000-0.2500 0.7500 (   442 PWs)   bands (ev):

   -85.2905 -45.7396 -45.6320 -45.5892  14.2254  15.0368  15.7270  16.4807
    17.6710  21.3867  24.1999  33.8738  34.8278

          k = 0.7500-0.2500 1.0000 (   440 PWs)   bands (ev):

   -85.2905 -45.7188 -45.6342 -45.6002  13.8333  14.5414  16.0406  17.3295
    17.5457  19.6188  30.6710  31.2909  32.3204

          k = 0.6250-0.1250 0.8750 (   437 PWs)   bands (ev):

   -85.2865 -45.7113 -45.6617 -45.6039  14.3302  14.6953  15.7013  17.0096
    17.7769  22.7996  26.0550  29.7195  31.9603

          k = 0.5000 0.0000 0.7500 (   436 PWs)   bands (ev):

   -85.2882 -45.7005 -45.6730 -45.5857  14.6151  14.9312  15.2169  16.8653
    17.5531  21.9745  26.7936  29.1326  33.7388

          k =-0.2500-1.0000 0.0000 (   438 PWs)   bands (ev):

   -85.2849 -45.7339 -45.6465 -45.6138  13.8581  14.3427  16.6120  17.3876
    17.9348  22.2932  27.4884  29.6673  30.7899

          k =-0.5000-1.0000 0.0000 (   444 PWs)   bands (ev):

   -85.2849 -45.6957 -45.6957 -45.6223  14.3649  15.1839  15.1839  16.9214
    17.9350  25.7076  25.7076  27.9434  29.1491

     the Fermi energy is    17.7657 ev

!    total energy              =    -429.10629610 Ry
     Harris-Foulkes estimate   =    -429.10629611 Ry
     estimated scf accuracy    <          3.1E-09 Ry

     total all-electron energy =     -3041.538404 Ry

     The total energy is the sum of the following terms:

     one-electron contribution =    -185.06614169 Ry
     hartree contribution      =     104.74089012 Ry
     xc contribution           =     -34.32406369 Ry
     ewald contribution        =    -223.38275374 Ry
     one-center paw contrib.   =     -91.07147221 Ry
     smearing contrib. (-TS)   =      -0.00275490 Ry

     convergence has been achieved in   6 iterations

     Forces acting on atoms (cartesian axes, Ry/au):

     atom    1 type  1   force =     0.00000000    0.00000000    0.00000000

     Total force =     0.000000     Total SCF correction =     0.000000


     Computing stress (Cartesian axis) and pressure

          total   stress  (Ry/bohr**3)                   (kbar)     P= -774.99
  -0.00526826  -0.00000000  -0.00000000       -774.99     -0.00     -0.00
  -0.00000000  -0.00526826  -0.00000000         -0.00   -774.99     -0.00
  -0.00000000  -0.00000000  -0.00526826         -0.00     -0.00   -774.99


     Writing output data file Ni.save/

     init_run     :      0.30s CPU      0.32s WALL (       1 calls)
     electrons    :      2.51s CPU      2.72s WALL (       1 calls)
     forces       :      0.04s CPU      0.04s WALL (       1 calls)
     stress       :      0.09s CPU      0.10s WALL (       1 calls)

     Called by init_run:
     wfcinit      :      0.06s CPU      0.07s WALL (       1 calls)
     potinit      :      0.09s CPU      0.11s WALL (       1 calls)
     hinit0       :      0.12s CPU      0.12s WALL (       1 calls)

     Called by electrons:
     c_bands      :      1.50s CPU      1.61s WALL (       7 calls)
     sum_band     :      0.29s CPU      0.31s WALL (       7 calls)
     v_of_rho     :      0.02s CPU      0.02s WALL (       7 calls)
     newd         :      0.03s CPU      0.03s WALL (       7 calls)
     PAW_pot      :      0.75s CPU      0.84s WALL (       7 calls)
     mix_rho      :      0.00s CPU      0.00s WALL (       7 calls)

     Called by c_bands:
     init_us_2    :      0.03s CPU      0.03s WALL (     493 calls)
     cegterg      :      1.45s CPU      1.56s WALL (     203 calls)

     Called by sum_band:
     sum_band:bec :      0.00s CPU      0.00s WALL (     203 calls)
     addusdens    :      0.02s CPU      0.02s WALL (       7 calls)

     Called by *egterg:
     h_psi        :      1.05s CPU      1.13s WALL (     718 calls)
     s_psi        :      0.03s CPU      0.03s WALL (     718 calls)
     g_psi        :      0.00s CPU      0.00s WALL (     486 calls)
     cdiaghg      :      0.24s CPU      0.25s WALL (     660 calls)

     Called by h_psi:
     h_psi:pot    :      1.05s CPU      1.13s WALL (     718 calls)
     h_psi:calbec :      0.05s CPU      0.05s WALL (     718 calls)
     vloc_psi     :      0.97s CPU      1.04s WALL (     718 calls)
     add_vuspsi   :      0.03s CPU      0.03s WALL (     718 calls)

     General routines
     calbec       :      0.09s CPU      0.09s WALL (    1066 calls)
     fft          :      0.02s CPU      0.02s WALL (     104 calls)
     ffts         :      0.00s CPU      0.00s WALL (       7 calls)
     fftw         :      1.10s CPU      1.19s WALL (   16271 calls)

     Parallel routines
     fft_scatt_xy :      0.10s CPU      0.10s WALL (   16382 calls)
     fft_scatt_yz :      0.40s CPU      0.43s WALL (   16382 calls)

     PWSCF        :     3.71s CPU         4.02s WALL


   This run was terminated on:  22:40: 8  26Mar2024            

=------------------------------------------------------------------------------=
   JOB DONE.
=------------------------------------------------------------------------------=
