
     Program PWSCF v.6.3MaX starts on 26Mar2024 at 23: 1:39 

     This program is part of the open-source Quantum ESPRESSO suite
     for quantum simulation of materials; please cite
         "P. Giannozzi et al., J. Phys.:Condens. Matter 21 395502 (2009);
         "P. Giannozzi et al., J. Phys.:Condens. Matter 29 465901 (2017);
          URL http://www.quantum-espresso.org", 
     in publications or presentations arising from this work. More details at
     http://www.quantum-espresso.org/quote

     Parallel version (MPI), running on     5 processors

     MPI processes distributed on     1 nodes
     R & G space division:  proc/nbgrp/npool/nimage =       5
     Waiting for input...
     Reading input from standard input

     Current dimensions of program PWSCF are:
     Max number of different atomic species (ntypx) = 10
     Max number of k-points (npk) =  40000
     Max angular momentum in pseudopotentials (lmaxx) =  3
               file Ni.pbe-spn-kjpaw_psl.1.0.0.UPF: wavefunction(s)  3P 3D renormalized

     Subspace diagonalization in iterative solution of the eigenvalue problem:
     a serial algorithm will be used


     Parallelization info
     --------------------
     sticks:   dense  smooth     PW     G-vecs:    dense   smooth      PW
     Min         111     111     32                 1688     1688     280
     Max         112     112     33                 1689     1689     283
     Sum         559     559    163                 8441     8441    1411



     bravais-lattice index     =            2
     lattice parameter (alat)  =       6.6500  a.u.
     unit-cell volume          =      73.5199 (a.u.)^3
     number of atoms/cell      =            1
     number of atomic types    =            1
     number of electrons       =        18.00
     number of Kohn-Sham states=           13
     kinetic-energy cutoff     =      90.0000  Ry
     charge density cutoff     =     360.0000  Ry
     convergence threshold     =      1.0E-08
     mixing beta               =       0.7000
     number of iterations used =            8  plain     mixing
     Exchange-correlation      = SLA PW PBX PBC ( 1  4  3  4 0 0)

     celldm(1)=   6.650000  celldm(2)=   0.000000  celldm(3)=   0.000000
     celldm(4)=   0.000000  celldm(5)=   0.000000  celldm(6)=   0.000000

     crystal axes: (cart. coord. in units of alat)
               a(1) = (  -0.500000   0.000000   0.500000 )  
               a(2) = (   0.000000   0.500000   0.500000 )  
               a(3) = (  -0.500000   0.500000   0.000000 )  

     reciprocal axes: (cart. coord. in units 2 pi/alat)
               b(1) = ( -1.000000 -1.000000  1.000000 )  
               b(2) = (  1.000000  1.000000  1.000000 )  
               b(3) = ( -1.000000  1.000000 -1.000000 )  


     PseudoPot. # 1 for Ni read from file:
     /home/lorenzo/pseudos/Ni/Ni.pbe-spn-kjpaw_psl.1.0.0.UPF
     MD5 check sum: 6e86b733589c3ad8389697b807d86aa7
     Pseudo is Projector augmented-wave + core cor, Zval = 18.0
     Generated using "atomic" code by A. Dal Corso v.6.3
     Shape of augmentation charge: PSQ
     Using radial grid of 1195 points,  6 beta functions with: 
                l(1) =   0
                l(2) =   0
                l(3) =   1
                l(4) =   1
                l(5) =   2
                l(6) =   2
     Q(r) pseudized with 0 coefficients 


     atomic species   valence    mass     pseudopotential
        Ni            18.00    58.69340     Ni( 1.00)

     48 Sym. Ops., with inversion, found



   Cartesian axes

     site n.     atom                  positions (alat units)
         1           Ni  tau(   1) = (   0.0000000   0.0000000   0.0000000  )

     number of k points=     3  gaussian smearing, width (Ry)=  0.0100
                       cart. coord. in units 2pi/alat
        k(    1) = (   0.0000000   0.0000000   0.0000000), wk =   0.2500000
        k(    2) = (   0.5000000  -0.5000000   0.5000000), wk =   1.0000000
        k(    3) = (   0.0000000  -1.0000000   0.0000000), wk =   0.7500000

     Dense  grid:     8441 G-vectors     FFT dimensions: (  30,  30,  30)

     Estimated max dynamical RAM per process >       8.09 MB

     Estimated total dynamical RAM >      40.44 MB

     Check: negative/imaginary core charge=   -0.000002    0.000000

     Initial potential from superposition of free atoms

     starting charge   17.99975, renormalised to   18.00000
     Starting wfcs are   10 randomized atomic wfcs +    3 random wfcs
     Checking if some PAW data can be deallocated... 

     total cpu time spent up to now is        1.2 secs

     Self-consistent Calculation

     iteration #  1     ecut=    90.00 Ry     beta= 0.70
     Davidson diagonalization with overlap
     ethr =  1.00E-02,  avg # of iterations =  5.0

     Threshold (ethr) on eigenvalues was too large:
     Diagonalizing with lowered threshold

     Davidson diagonalization with overlap
     ethr =  4.63E-05,  avg # of iterations =  3.3

     total cpu time spent up to now is        1.5 secs

     total energy              =    -428.96770710 Ry
     Harris-Foulkes estimate   =    -428.96904167 Ry
     estimated scf accuracy    <       0.00833336 Ry

     iteration #  2     ecut=    90.00 Ry     beta= 0.70
     Davidson diagonalization with overlap
     ethr =  4.63E-05,  avg # of iterations =  1.0

     total cpu time spent up to now is        1.6 secs

     total energy              =    -428.96688960 Ry
     Harris-Foulkes estimate   =    -428.96799518 Ry
     estimated scf accuracy    <       0.00170785 Ry

     iteration #  3     ecut=    90.00 Ry     beta= 0.70
     Davidson diagonalization with overlap
     ethr =  9.49E-06,  avg # of iterations =  3.0

     total cpu time spent up to now is        1.8 secs

     total energy              =    -428.95403736 Ry
     Harris-Foulkes estimate   =    -428.97916666 Ry
     estimated scf accuracy    <       0.37197049 Ry

     iteration #  4     ecut=    90.00 Ry     beta= 0.70
     Davidson diagonalization with overlap
     ethr =  9.49E-06,  avg # of iterations =  3.0

     total cpu time spent up to now is        2.0 secs

     total energy              =    -428.96787977 Ry
     Harris-Foulkes estimate   =    -428.96791406 Ry
     estimated scf accuracy    <       0.00069660 Ry

     iteration #  5     ecut=    90.00 Ry     beta= 0.70
     Davidson diagonalization with overlap
     ethr =  3.87E-06,  avg # of iterations =  1.0

     total cpu time spent up to now is        2.2 secs

     total energy              =    -428.96785799 Ry
     Harris-Foulkes estimate   =    -428.96788554 Ry
     estimated scf accuracy    <       0.00032454 Ry

     iteration #  6     ecut=    90.00 Ry     beta= 0.70
     Davidson diagonalization with overlap
     ethr =  1.80E-06,  avg # of iterations =  1.0

     total cpu time spent up to now is        2.4 secs

     total energy              =    -428.96786234 Ry
     Harris-Foulkes estimate   =    -428.96786631 Ry
     estimated scf accuracy    <       0.00004146 Ry

     iteration #  7     ecut=    90.00 Ry     beta= 0.70
     Davidson diagonalization with overlap
     ethr =  2.30E-07,  avg # of iterations =  1.0

     total cpu time spent up to now is        2.6 secs

     total energy              =    -428.96786366 Ry
     Harris-Foulkes estimate   =    -428.96786400 Ry
     estimated scf accuracy    <       0.00000164 Ry

     iteration #  8     ecut=    90.00 Ry     beta= 0.70
     Davidson diagonalization with overlap
     ethr =  9.13E-09,  avg # of iterations =  2.0

     total cpu time spent up to now is        2.7 secs

     total energy              =    -428.96786395 Ry
     Harris-Foulkes estimate   =    -428.96786402 Ry
     estimated scf accuracy    <       0.00000121 Ry

     iteration #  9     ecut=    90.00 Ry     beta= 0.70
     Davidson diagonalization with overlap
     ethr =  6.74E-09,  avg # of iterations =  1.0

     total cpu time spent up to now is        2.9 secs

     total energy              =    -428.96786396 Ry
     Harris-Foulkes estimate   =    -428.96786397 Ry
     estimated scf accuracy    <       0.00000038 Ry

     iteration # 10     ecut=    90.00 Ry     beta= 0.70
     Davidson diagonalization with overlap
     ethr =  2.09E-09,  avg # of iterations =  1.0

     total cpu time spent up to now is        3.1 secs

     total energy              =    -428.96786393 Ry
     Harris-Foulkes estimate   =    -428.96786397 Ry
     estimated scf accuracy    <       0.00000033 Ry

     iteration # 11     ecut=    90.00 Ry     beta= 0.70
     Davidson diagonalization with overlap
     ethr =  1.84E-09,  avg # of iterations =  1.0

     total cpu time spent up to now is        3.2 secs

     End of self-consistent calculation

          k = 0.0000 0.0000 0.0000 (  1067 PWs)   bands (ev):

   -85.5196 -45.7790 -45.7790 -45.7790   8.7987  15.7008  15.7008  15.7008
    16.8453  16.8453  41.4241  45.4435  45.4435

          k = 0.5000-0.5000 0.5000 (  1068 PWs)   bands (ev):

   -85.4860 -45.9989 -45.8107 -45.8107  13.1572  15.6851  15.6851  17.5354
    17.5542  17.5542  23.6554  40.0016  42.5185

          k = 0.0000-1.0000 0.0000 (  1034 PWs)   bands (ev):

   -85.4749 -45.9863 -45.8605 -45.8605  13.3563  13.8753  17.5693  17.7164
    17.7164  20.2487  27.1707  32.6618  32.6618

     the Fermi energy is    17.6860 ev

!    total energy              =    -428.96786395 Ry
     Harris-Foulkes estimate   =    -428.96786395 Ry
     estimated scf accuracy    <          1.8E-09 Ry

     total all-electron energy =     -3041.399971 Ry

     The total energy is the sum of the following terms:

     one-electron contribution =    -184.70210515 Ry
     hartree contribution      =     104.54543463 Ry
     xc contribution           =     -34.31482913 Ry
     ewald contribution        =    -223.38275369 Ry
     one-center paw contrib.   =     -91.10553522 Ry
     smearing contrib. (-TS)   =      -0.00807540 Ry

     convergence has been achieved in  11 iterations

     Forces acting on atoms (cartesian axes, Ry/au):

     atom    1 type  1   force =     0.00000000    0.00000000    0.00000000

     Total force =     0.000000     Total SCF correction =     0.000000


     Computing stress (Cartesian axis) and pressure

          total   stress  (Ry/bohr**3)                   (kbar)     P=  306.13
   0.00208104   0.00000000  -0.00000000        306.13      0.00     -0.00
   0.00000000   0.00208104   0.00000000          0.00    306.13      0.00
  -0.00000000   0.00000000   0.00208104         -0.00      0.00    306.13


     Writing output data file Ni.save/

     init_run     :      0.35s CPU      0.37s WALL (       1 calls)
     electrons    :      1.92s CPU      2.09s WALL (       1 calls)
     forces       :      0.03s CPU      0.03s WALL (       1 calls)
     stress       :      0.09s CPU      0.09s WALL (       1 calls)

     Called by init_run:
     wfcinit      :      0.03s CPU      0.03s WALL (       1 calls)
     potinit      :      0.11s CPU      0.12s WALL (       1 calls)
     hinit0       :      0.19s CPU      0.19s WALL (       1 calls)

     Called by electrons:
     c_bands      :      0.45s CPU      0.47s WALL (      12 calls)
     sum_band     :      0.23s CPU      0.24s WALL (      12 calls)
     v_of_rho     :      0.07s CPU      0.08s WALL (      12 calls)
     newd         :      0.13s CPU      0.14s WALL (      12 calls)
     PAW_pot      :      1.14s CPU      1.28s WALL (      12 calls)
     mix_rho      :      0.01s CPU      0.01s WALL (      12 calls)

     Called by c_bands:
     init_us_2    :      0.02s CPU      0.02s WALL (      81 calls)
     cegterg      :      0.43s CPU      0.45s WALL (      36 calls)

     Called by sum_band:
     sum_band:bec :      0.00s CPU      0.00s WALL (      36 calls)
     addusdens    :      0.11s CPU      0.12s WALL (      12 calls)

     Called by *egterg:
     h_psi        :      0.34s CPU      0.36s WALL (     109 calls)
     s_psi        :      0.01s CPU      0.01s WALL (     109 calls)
     g_psi        :      0.00s CPU      0.00s WALL (      70 calls)
     cdiaghg      :      0.04s CPU      0.05s WALL (     103 calls)

     Called by h_psi:
     h_psi:pot    :      0.34s CPU      0.36s WALL (     109 calls)
     h_psi:calbec :      0.02s CPU      0.02s WALL (     109 calls)
     vloc_psi     :      0.31s CPU      0.33s WALL (     109 calls)
     add_vuspsi   :      0.01s CPU      0.01s WALL (     109 calls)

     General routines
     calbec       :      0.03s CPU      0.03s WALL (     160 calls)
     fft          :      0.05s CPU      0.05s WALL (     159 calls)
     ffts         :      0.00s CPU      0.00s WALL (      12 calls)
     fftw         :      0.36s CPU      0.37s WALL (    2628 calls)

     Parallel routines
     fft_scatt_xy :      0.03s CPU      0.03s WALL (    2799 calls)
     fft_scatt_yz :      0.13s CPU      0.14s WALL (    2799 calls)

     PWSCF        :     3.19s CPU         3.42s WALL


   This run was terminated on:  23: 1:42  26Mar2024            

=------------------------------------------------------------------------------=
   JOB DONE.
=------------------------------------------------------------------------------=
