
     Program PWSCF v.6.3MaX starts on 26Mar2024 at 22:49:24 

     This program is part of the open-source Quantum ESPRESSO suite
     for quantum simulation of materials; please cite
         "P. Giannozzi et al., J. Phys.:Condens. Matter 21 395502 (2009);
         "P. Giannozzi et al., J. Phys.:Condens. Matter 29 465901 (2017);
          URL http://www.quantum-espresso.org", 
     in publications or presentations arising from this work. More details at
     http://www.quantum-espresso.org/quote

     Parallel version (MPI), running on     5 processors

     MPI processes distributed on     1 nodes
     R & G space division:  proc/nbgrp/npool/nimage =       5
     Waiting for input...
     Reading input from standard input

     Current dimensions of program PWSCF are:
     Max number of different atomic species (ntypx) = 10
     Max number of k-points (npk) =  40000
     Max angular momentum in pseudopotentials (lmaxx) =  3

     Subspace diagonalization in iterative solution of the eigenvalue problem:
     a serial algorithm will be used


     Parallelization info
     --------------------
     sticks:   dense  smooth     PW     G-vecs:    dense   smooth      PW
     Min          85      85     24                 1163     1163     187
     Max          87      87     25                 1164     1164     191
     Sum         433     433    121                 5817     5817     941



     bravais-lattice index     =            2
     lattice parameter (alat)  =       6.6500  a.u.
     unit-cell volume          =      73.5199 (a.u.)^3
     number of atoms/cell      =            1
     number of atomic types    =            1
     number of electrons       =        18.00
     number of Kohn-Sham states=           13
     kinetic-energy cutoff     =      70.0000  Ry
     charge density cutoff     =     280.0000  Ry
     convergence threshold     =      1.0E-08
     mixing beta               =       0.7000
     number of iterations used =            8  plain     mixing
     Exchange-correlation      = PBESOL ( 1  4 10  8 0 0)

     celldm(1)=   6.650000  celldm(2)=   0.000000  celldm(3)=   0.000000
     celldm(4)=   0.000000  celldm(5)=   0.000000  celldm(6)=   0.000000

     crystal axes: (cart. coord. in units of alat)
               a(1) = (  -0.500000   0.000000   0.500000 )  
               a(2) = (   0.000000   0.500000   0.500000 )  
               a(3) = (  -0.500000   0.500000   0.000000 )  

     reciprocal axes: (cart. coord. in units 2 pi/alat)
               b(1) = ( -1.000000 -1.000000  1.000000 )  
               b(2) = (  1.000000  1.000000  1.000000 )  
               b(3) = ( -1.000000  1.000000 -1.000000 )  


     PseudoPot. # 1 for Ni read from file:
     /home/lorenzo/pseudos/Ni/Ni.pbesol-spn-rrkjus_psl.1.0.0.UPF
     MD5 check sum: 6fc0a587bf949a08f2faed986b854013
     Pseudo is Ultrasoft + core correction, Zval = 18.0
     Generated using "atomic" code by A. Dal Corso v.6.3
     Using radial grid of 1195 points,  6 beta functions with: 
                l(1) =   0
                l(2) =   0
                l(3) =   1
                l(4) =   1
                l(5) =   2
                l(6) =   2
     Q(r) pseudized with 0 coefficients 


     atomic species   valence    mass     pseudopotential
        Ni            18.00    58.69340     Ni( 1.00)

     48 Sym. Ops., with inversion, found



   Cartesian axes

     site n.     atom                  positions (alat units)
         1           Ni  tau(   1) = (   0.0000000   0.0000000   0.0000000  )

     number of k points=     4  gaussian smearing, width (Ry)=  0.0100
                       cart. coord. in units 2pi/alat
        k(    1) = (   0.0000000   0.0000000   0.0000000), wk =   0.0740741
        k(    2) = (  -0.3333333   0.3333333  -0.3333333), wk =   0.5925926
        k(    3) = (   0.0000000   0.6666667   0.0000000), wk =   0.4444444
        k(    4) = (   0.6666667  -0.0000000   0.6666667), wk =   0.8888889

     Dense  grid:     5817 G-vectors     FFT dimensions: (  25,  25,  25)

     Estimated max dynamical RAM per process >       5.87 MB

     Estimated total dynamical RAM >      29.37 MB

     Check: negative/imaginary core charge=   -0.000011    0.000000

     Initial potential from superposition of free atoms

     starting charge   17.99977, renormalised to   18.00000
     Starting wfcs are   10 randomized atomic wfcs +    3 random wfcs

     total cpu time spent up to now is        1.1 secs

     Self-consistent Calculation

     iteration #  1     ecut=    70.00 Ry     beta= 0.70
     Davidson diagonalization with overlap
     ethr =  1.00E-02,  avg # of iterations =  3.8

     Threshold (ethr) on eigenvalues was too large:
     Diagonalizing with lowered threshold

     Davidson diagonalization with overlap
     ethr =  2.49E-05,  avg # of iterations =  4.2

     total cpu time spent up to now is        1.2 secs

     total energy              =    -339.36449225 Ry
     Harris-Foulkes estimate   =    -339.36755372 Ry
     estimated scf accuracy    <       0.00429730 Ry

     iteration #  2     ecut=    70.00 Ry     beta= 0.70
     Davidson diagonalization with overlap
     ethr =  2.39E-05,  avg # of iterations =  3.0

     total cpu time spent up to now is        1.3 secs

     total energy              =    -339.36443873 Ry
     Harris-Foulkes estimate   =    -339.36982811 Ry
     estimated scf accuracy    <       0.01374010 Ry

     iteration #  3     ecut=    70.00 Ry     beta= 0.70
     Davidson diagonalization with overlap
     ethr =  2.39E-05,  avg # of iterations =  2.2

     total cpu time spent up to now is        1.3 secs

     total energy              =    -339.36685049 Ry
     Harris-Foulkes estimate   =    -339.36684276 Ry
     estimated scf accuracy    <       0.00002329 Ry

     iteration #  4     ecut=    70.00 Ry     beta= 0.70
     Davidson diagonalization with overlap
     ethr =  1.29E-07,  avg # of iterations =  2.2

     total cpu time spent up to now is        1.4 secs

     total energy              =    -339.36685993 Ry
     Harris-Foulkes estimate   =    -339.36686004 Ry
     estimated scf accuracy    <       0.00000031 Ry

     iteration #  5     ecut=    70.00 Ry     beta= 0.70
     Davidson diagonalization with overlap
     ethr =  1.73E-09,  avg # of iterations =  2.5

     total cpu time spent up to now is        1.4 secs

     total energy              =    -339.36686000 Ry
     Harris-Foulkes estimate   =    -339.36686001 Ry
     estimated scf accuracy    <       0.00000003 Ry

     iteration #  6     ecut=    70.00 Ry     beta= 0.70
     Davidson diagonalization with overlap
     ethr =  1.55E-10,  avg # of iterations =  2.5

     total cpu time spent up to now is        1.5 secs

     End of self-consistent calculation

          k = 0.0000 0.0000 0.0000 (   725 PWs)   bands (ev):

   -85.6049 -45.9881 -45.9881 -45.9881   8.5865  15.3996  15.3996  15.3996
    16.4734  16.4734  41.3030  45.1736  45.1736

          k =-0.3333 0.3333-0.3333 (   745 PWs)   bands (ev):

   -85.5799 -46.1534 -46.0126 -46.0126  12.0660  15.3308  15.4973  15.4973
    16.8561  16.8561  28.1620  40.6237  42.5028

          k = 0.0000 0.6667 0.0000 (   717 PWs)   bands (ev):

   -85.5711 -46.1450 -46.0497 -46.0497  12.7277  14.0203  16.4967  16.7757
    16.7757  17.0067  33.2291  34.5275  34.5275

          k = 0.6667-0.0000 0.6667 (   718 PWs)   bands (ev):

   -85.5626 -46.1364 -46.1357 -46.0428  14.0870  14.2616  15.2011  16.3640
    16.9506  22.4096  25.1433  28.1692  36.3689

     the Fermi energy is    16.9373 ev

!    total energy              =    -339.36686000 Ry
     Harris-Foulkes estimate   =    -339.36686000 Ry
     estimated scf accuracy    <          1.0E-09 Ry

     The total energy is the sum of the following terms:

     one-electron contribution =    -186.18279096 Ry
     hartree contribution      =     104.07475928 Ry
     xc contribution           =     -33.86967048 Ry
     ewald contribution        =    -223.38275369 Ry
     smearing contrib. (-TS)   =      -0.00640415 Ry

     convergence has been achieved in   6 iterations

     Forces acting on atoms (cartesian axes, Ry/au):

     atom    1 type  1   force =     0.00000000    0.00000000    0.00000000

     Total force =     0.000000     Total SCF correction =     0.000000


     Computing stress (Cartesian axis) and pressure

          total   stress  (Ry/bohr**3)                   (kbar)     P=  -63.88
  -0.00043423  -0.00000000  -0.00000000        -63.88     -0.00     -0.00
  -0.00000000  -0.00043423  -0.00000000         -0.00    -63.88     -0.00
  -0.00000000  -0.00000000  -0.00043423         -0.00     -0.00    -63.88


     Writing output data file Ni.save/

     init_run     :      0.18s CPU      0.18s WALL (       1 calls)
     electrons    :      0.39s CPU      0.40s WALL (       1 calls)
     forces       :      0.02s CPU      0.02s WALL (       1 calls)
     stress       :      0.07s CPU      0.07s WALL (       1 calls)

     Called by init_run:
     wfcinit      :      0.01s CPU      0.01s WALL (       1 calls)
     potinit      :      0.01s CPU      0.01s WALL (       1 calls)
     hinit0       :      0.14s CPU      0.15s WALL (       1 calls)

     Called by electrons:
     c_bands      :      0.25s CPU      0.26s WALL (       7 calls)
     sum_band     :      0.08s CPU      0.08s WALL (       7 calls)
     v_of_rho     :      0.02s CPU      0.02s WALL (       7 calls)
     newd         :      0.04s CPU      0.04s WALL (       7 calls)
     mix_rho      :      0.00s CPU      0.00s WALL (       7 calls)

     Called by c_bands:
     init_us_2    :      0.01s CPU      0.01s WALL (      68 calls)
     cegterg      :      0.24s CPU      0.25s WALL (      28 calls)

     Called by sum_band:
     sum_band:bec :      0.00s CPU      0.00s WALL (      28 calls)
     addusdens    :      0.04s CPU      0.04s WALL (       7 calls)

     Called by *egterg:
     h_psi        :      0.17s CPU      0.18s WALL (     114 calls)
     s_psi        :      0.01s CPU      0.01s WALL (     114 calls)
     g_psi        :      0.00s CPU      0.00s WALL (      82 calls)
     cdiaghg      :      0.04s CPU      0.04s WALL (     106 calls)

     Called by h_psi:
     h_psi:pot    :      0.17s CPU      0.18s WALL (     114 calls)
     h_psi:calbec :      0.01s CPU      0.01s WALL (     114 calls)
     vloc_psi     :      0.16s CPU      0.16s WALL (     114 calls)
     add_vuspsi   :      0.01s CPU      0.01s WALL (     114 calls)

     General routines
     calbec       :      0.01s CPU      0.02s WALL (     162 calls)
     fft          :      0.02s CPU      0.02s WALL (     104 calls)
     ffts         :      0.00s CPU      0.00s WALL (       7 calls)
     fftw         :      0.17s CPU      0.18s WALL (    2372 calls)

     Parallel routines
     fft_scatt_xy :      0.02s CPU      0.02s WALL (    2483 calls)
     fft_scatt_yz :      0.04s CPU      0.05s WALL (    2483 calls)

     PWSCF        :     1.54s CPU         1.60s WALL


   This run was terminated on:  22:49:25  26Mar2024            

=------------------------------------------------------------------------------=
   JOB DONE.
=------------------------------------------------------------------------------=
