
     Program PWSCF v.6.3MaX starts on 26Mar2024 at 22:52:10 

     This program is part of the open-source Quantum ESPRESSO suite
     for quantum simulation of materials; please cite
         "P. Giannozzi et al., J. Phys.:Condens. Matter 21 395502 (2009);
         "P. Giannozzi et al., J. Phys.:Condens. Matter 29 465901 (2017);
          URL http://www.quantum-espresso.org", 
     in publications or presentations arising from this work. More details at
     http://www.quantum-espresso.org/quote

     Parallel version (MPI), running on     5 processors

     MPI processes distributed on     1 nodes
     R & G space division:  proc/nbgrp/npool/nimage =       5
     Waiting for input...
     Reading input from standard input

     Current dimensions of program PWSCF are:
     Max number of different atomic species (ntypx) = 10
     Max number of k-points (npk) =  40000
     Max angular momentum in pseudopotentials (lmaxx) =  3
               file Ni.pbesol-spn-kjpaw_psl.1.0.0.UPF: wavefunction(s)  3P 3D renormalized

     Subspace diagonalization in iterative solution of the eigenvalue problem:
     a serial algorithm will be used


     Parallelization info
     --------------------
     sticks:   dense  smooth     PW     G-vecs:    dense   smooth      PW
     Min          90      90     27                 1284     1284     213
     Max          91      91     28                 1287     1287     214
     Sum         451     451    139                 6423     6423    1067



     bravais-lattice index     =            2
     lattice parameter (alat)  =       6.6500  a.u.
     unit-cell volume          =      73.5199 (a.u.)^3
     number of atoms/cell      =            1
     number of atomic types    =            1
     number of electrons       =        18.00
     number of Kohn-Sham states=           13
     kinetic-energy cutoff     =      75.0000  Ry
     charge density cutoff     =     300.0000  Ry
     convergence threshold     =      1.0E-08
     mixing beta               =       0.7000
     number of iterations used =            8  plain     mixing
     Exchange-correlation      = SLA PW PSX PSC ( 1  4 10  8 0 0)

     celldm(1)=   6.650000  celldm(2)=   0.000000  celldm(3)=   0.000000
     celldm(4)=   0.000000  celldm(5)=   0.000000  celldm(6)=   0.000000

     crystal axes: (cart. coord. in units of alat)
               a(1) = (  -0.500000   0.000000   0.500000 )  
               a(2) = (   0.000000   0.500000   0.500000 )  
               a(3) = (  -0.500000   0.500000   0.000000 )  

     reciprocal axes: (cart. coord. in units 2 pi/alat)
               b(1) = ( -1.000000 -1.000000  1.000000 )  
               b(2) = (  1.000000  1.000000  1.000000 )  
               b(3) = ( -1.000000  1.000000 -1.000000 )  


     PseudoPot. # 1 for Ni read from file:
     /home/lorenzo/pseudos/Ni/Ni.pbesol-spn-kjpaw_psl.1.0.0.UPF
     MD5 check sum: ef06ee83099c2673f0516457bd731f51
     Pseudo is Projector augmented-wave + core cor, Zval = 18.0
     Generated using "atomic" code by A. Dal Corso v.6.3
     Shape of augmentation charge: PSQ
     Using radial grid of 1195 points,  6 beta functions with: 
                l(1) =   0
                l(2) =   0
                l(3) =   1
                l(4) =   1
                l(5) =   2
                l(6) =   2
     Q(r) pseudized with 0 coefficients 


     atomic species   valence    mass     pseudopotential
        Ni            18.00    58.69340     Ni( 1.00)

     48 Sym. Ops., with inversion, found



   Cartesian axes

     site n.     atom                  positions (alat units)
         1           Ni  tau(   1) = (   0.0000000   0.0000000   0.0000000  )

     number of k points=     4  gaussian smearing, width (Ry)=  0.0100
                       cart. coord. in units 2pi/alat
        k(    1) = (   0.0000000   0.0000000   0.0000000), wk =   0.0740741
        k(    2) = (  -0.3333333   0.3333333  -0.3333333), wk =   0.5925926
        k(    3) = (   0.0000000   0.6666667   0.0000000), wk =   0.4444444
        k(    4) = (   0.6666667  -0.0000000   0.6666667), wk =   0.8888889

     Dense  grid:     6423 G-vectors     FFT dimensions: (  25,  25,  25)

     Estimated max dynamical RAM per process >       6.37 MB

     Estimated total dynamical RAM >      31.86 MB

     Check: negative/imaginary core charge=   -0.000008    0.000000

     Initial potential from superposition of free atoms

     starting charge   17.99977, renormalised to   18.00000
     Starting wfcs are   10 randomized atomic wfcs +    3 random wfcs
     Checking if some PAW data can be deallocated... 

     total cpu time spent up to now is        1.1 secs

     Self-consistent Calculation

     iteration #  1     ecut=    75.00 Ry     beta= 0.70
     Davidson diagonalization with overlap
     ethr =  1.00E-02,  avg # of iterations =  4.0

     Threshold (ethr) on eigenvalues was too large:
     Diagonalizing with lowered threshold

     Davidson diagonalization with overlap
     ethr =  2.42E-05,  avg # of iterations =  4.2

     total cpu time spent up to now is        1.4 secs

     total energy              =    -426.54471979 Ry
     Harris-Foulkes estimate   =    -426.54769688 Ry
     estimated scf accuracy    <       0.00414190 Ry

     iteration #  2     ecut=    75.00 Ry     beta= 0.70
     Davidson diagonalization with overlap
     ethr =  2.30E-05,  avg # of iterations =  3.0

     total cpu time spent up to now is        1.6 secs

     total energy              =    -426.54463322 Ry
     Harris-Foulkes estimate   =    -426.54989851 Ry
     estimated scf accuracy    <       0.01333046 Ry

     iteration #  3     ecut=    75.00 Ry     beta= 0.70
     Davidson diagonalization with overlap
     ethr =  2.30E-05,  avg # of iterations =  2.2

     total cpu time spent up to now is        1.7 secs

     total energy              =    -426.54699614 Ry
     Harris-Foulkes estimate   =    -426.54699138 Ry
     estimated scf accuracy    <       0.00002545 Ry

     iteration #  4     ecut=    75.00 Ry     beta= 0.70
     Davidson diagonalization with overlap
     ethr =  1.41E-07,  avg # of iterations =  2.2

     total cpu time spent up to now is        1.9 secs

     total energy              =    -426.54700219 Ry
     Harris-Foulkes estimate   =    -426.54700222 Ry
     estimated scf accuracy    <       0.00000011 Ry

     iteration #  5     ecut=    75.00 Ry     beta= 0.70
     Davidson diagonalization with overlap
     ethr =  5.84E-10,  avg # of iterations =  3.0

     total cpu time spent up to now is        2.0 secs

     End of self-consistent calculation

          k = 0.0000 0.0000 0.0000 (   869 PWs)   bands (ev):

   -85.6097 -45.9936 -45.9936 -45.9936   8.5840  15.3944  15.3944  15.3944
    16.4673  16.4673  41.3014  45.1705  45.1705

          k =-0.3333 0.3333-0.3333 (   823 PWs)   bands (ev):

   -85.5840 -46.1561 -46.0157 -46.0157  12.0639  15.3276  15.4940  15.4940
    16.8527  16.8527  28.1592  40.6218  42.5006

          k = 0.0000 0.6667 0.0000 (   805 PWs)   bands (ev):

   -85.5755 -46.1477 -46.0528 -46.0528  12.7250  14.0165  16.4930  16.7725
    16.7725  17.0032  33.2261  34.5247  34.5247

          k = 0.6667-0.0000 0.6667 (   816 PWs)   bands (ev):

   -85.5671 -46.1401 -46.1388 -46.0463  14.0836  14.2584  15.1973  16.3599
    16.9464  22.4062  25.1407  28.1646  36.3660

     the Fermi energy is    16.9335 ev

!    total energy              =    -426.54700229 Ry
     Harris-Foulkes estimate   =    -426.54700229 Ry
     estimated scf accuracy    <          7.6E-09 Ry

     total all-electron energy =     -3039.005347 Ry

     The total energy is the sum of the following terms:

     one-electron contribution =    -184.51109415 Ry
     hartree contribution      =     104.08340126 Ry
     xc contribution           =     -33.87182688 Ry
     ewald contribution        =    -223.38275369 Ry
     one-center paw contrib.   =     -88.85831320 Ry
     smearing contrib. (-TS)   =      -0.00641563 Ry

     convergence has been achieved in   5 iterations

     Forces acting on atoms (cartesian axes, Ry/au):

     atom    1 type  1   force =     0.00000000    0.00000000    0.00000000

     Total force =     0.000000     Total SCF correction =     0.000000


     Computing stress (Cartesian axis) and pressure

          total   stress  (Ry/bohr**3)                   (kbar)     P=  -82.52
  -0.00056099  -0.00000000  -0.00000000        -82.52     -0.00     -0.00
  -0.00000000  -0.00056099   0.00000000         -0.00    -82.52      0.00
  -0.00000000   0.00000000  -0.00056099         -0.00      0.00    -82.52


     Writing output data file Ni.save/

     init_run     :      0.37s CPU      0.40s WALL (       1 calls)
     electrons    :      0.84s CPU      0.91s WALL (       1 calls)
     forces       :      0.02s CPU      0.02s WALL (       1 calls)
     stress       :      0.07s CPU      0.07s WALL (       1 calls)

     Called by init_run:
     wfcinit      :      0.01s CPU      0.02s WALL (       1 calls)
     potinit      :      0.12s CPU      0.14s WALL (       1 calls)
     hinit0       :      0.21s CPU      0.21s WALL (       1 calls)

     Called by electrons:
     c_bands      :      0.27s CPU      0.28s WALL (       6 calls)
     sum_band     :      0.08s CPU      0.08s WALL (       6 calls)
     v_of_rho     :      0.02s CPU      0.02s WALL (       6 calls)
     newd         :      0.04s CPU      0.05s WALL (       6 calls)
     PAW_pot      :      0.55s CPU      0.61s WALL (       6 calls)
     mix_rho      :      0.00s CPU      0.00s WALL (       6 calls)

     Called by c_bands:
     init_us_2    :      0.01s CPU      0.01s WALL (      60 calls)
     cegterg      :      0.26s CPU      0.27s WALL (      24 calls)

     Called by sum_band:
     sum_band:bec :      0.00s CPU      0.00s WALL (      24 calls)
     addusdens    :      0.04s CPU      0.04s WALL (       6 calls)

     Called by *egterg:
     h_psi        :      0.18s CPU      0.19s WALL (     103 calls)
     s_psi        :      0.01s CPU      0.01s WALL (     103 calls)
     g_psi        :      0.00s CPU      0.00s WALL (      75 calls)
     cdiaghg      :      0.04s CPU      0.04s WALL (      95 calls)

     Called by h_psi:
     h_psi:pot    :      0.18s CPU      0.19s WALL (     103 calls)
     h_psi:calbec :      0.01s CPU      0.01s WALL (     103 calls)
     vloc_psi     :      0.16s CPU      0.17s WALL (     103 calls)
     add_vuspsi   :      0.01s CPU      0.01s WALL (     103 calls)

     General routines
     calbec       :      0.02s CPU      0.02s WALL (     147 calls)
     fft          :      0.01s CPU      0.01s WALL (      93 calls)
     ffts         :      0.00s CPU      0.00s WALL (       6 calls)
     fftw         :      0.18s CPU      0.19s WALL (    2066 calls)

     Parallel routines
     fft_scatt_xy :      0.02s CPU      0.02s WALL (    2165 calls)
     fft_scatt_yz :      0.05s CPU      0.05s WALL (    2165 calls)

     PWSCF        :     2.03s CPU         2.16s WALL


   This run was terminated on:  22:52:12  26Mar2024            

=------------------------------------------------------------------------------=
   JOB DONE.
=------------------------------------------------------------------------------=
