
     Program PWSCF v.6.3MaX starts on 26Mar2024 at 22:37:29 

     This program is part of the open-source Quantum ESPRESSO suite
     for quantum simulation of materials; please cite
         "P. Giannozzi et al., J. Phys.:Condens. Matter 21 395502 (2009);
         "P. Giannozzi et al., J. Phys.:Condens. Matter 29 465901 (2017);
          URL http://www.quantum-espresso.org", 
     in publications or presentations arising from this work. More details at
     http://www.quantum-espresso.org/quote

     Parallel version (MPI), running on     5 processors

     MPI processes distributed on     1 nodes
     R & G space division:  proc/nbgrp/npool/nimage =       5
     Waiting for input...
     Reading input from standard input

     Current dimensions of program PWSCF are:
     Max number of different atomic species (ntypx) = 10
     Max number of k-points (npk) =  40000
     Max angular momentum in pseudopotentials (lmaxx) =  3
               file Ni.pbe-spn-kjpaw_psl.1.0.0.UPF: wavefunction(s)  3P 3D renormalized

     Subspace diagonalization in iterative solution of the eigenvalue problem:
     a serial algorithm will be used


     Parallelization info
     --------------------
     sticks:   dense  smooth     PW     G-vecs:    dense   smooth      PW
     Min          53      53     18                  595      595     121
     Max          56      56     19                  595      595     123
     Sum         271     271     91                 2975     2975     609



     bravais-lattice index     =            2
     lattice parameter (alat)  =       6.6500  a.u.
     unit-cell volume          =      73.5199 (a.u.)^3
     number of atoms/cell      =            1
     number of atomic types    =            1
     number of electrons       =        18.00
     number of Kohn-Sham states=           13
     kinetic-energy cutoff     =      45.0000  Ry
     charge density cutoff     =     180.0000  Ry
     convergence threshold     =      1.0E-08
     mixing beta               =       0.7000
     number of iterations used =            8  plain     mixing
     Exchange-correlation      = SLA PW PBX PBC ( 1  4  3  4 0 0)

     celldm(1)=   6.650000  celldm(2)=   0.000000  celldm(3)=   0.000000
     celldm(4)=   0.000000  celldm(5)=   0.000000  celldm(6)=   0.000000

     crystal axes: (cart. coord. in units of alat)
               a(1) = (  -0.500000   0.000000   0.500000 )  
               a(2) = (   0.000000   0.500000   0.500000 )  
               a(3) = (  -0.500000   0.500000   0.000000 )  

     reciprocal axes: (cart. coord. in units 2 pi/alat)
               b(1) = ( -1.000000 -1.000000  1.000000 )  
               b(2) = (  1.000000  1.000000  1.000000 )  
               b(3) = ( -1.000000  1.000000 -1.000000 )  


     PseudoPot. # 1 for Ni read from file:
     /home/lorenzo/pseudos/Ni/Ni.pbe-spn-kjpaw_psl.1.0.0.UPF
     MD5 check sum: 6e86b733589c3ad8389697b807d86aa7
     Pseudo is Projector augmented-wave + core cor, Zval = 18.0
     Generated using "atomic" code by A. Dal Corso v.6.3
     Shape of augmentation charge: PSQ
     Using radial grid of 1195 points,  6 beta functions with: 
                l(1) =   0
                l(2) =   0
                l(3) =   1
                l(4) =   1
                l(5) =   2
                l(6) =   2
     Q(r) pseudized with 0 coefficients 


     atomic species   valence    mass     pseudopotential
        Ni            18.00    58.69340     Ni( 1.00)

     48 Sym. Ops., with inversion, found



   Cartesian axes

     site n.     atom                  positions (alat units)
         1           Ni  tau(   1) = (   0.0000000   0.0000000   0.0000000  )

     number of k points=    20  gaussian smearing, width (Ry)=  0.0100
                       cart. coord. in units 2pi/alat
        k(    1) = (   0.0000000   0.0000000   0.0000000), wk =   0.0058309
        k(    2) = (  -0.1428571   0.1428571  -0.1428571), wk =   0.0466472
        k(    3) = (  -0.2857143   0.2857143  -0.2857143), wk =   0.0466472
        k(    4) = (  -0.4285714   0.4285714  -0.4285714), wk =   0.0466472
        k(    5) = (   0.0000000   0.2857143   0.0000000), wk =   0.0349854
        k(    6) = (  -0.1428571   0.4285714  -0.1428571), wk =   0.1399417
        k(    7) = (  -0.2857143   0.5714286  -0.2857143), wk =   0.1399417
        k(    8) = (   0.5714286  -0.2857143   0.5714286), wk =   0.1399417
        k(    9) = (   0.4285714  -0.1428571   0.4285714), wk =   0.1399417
        k(   10) = (   0.2857143  -0.0000000   0.2857143), wk =   0.0699708
        k(   11) = (   0.0000000   0.5714286   0.0000000), wk =   0.0349854
        k(   12) = (  -0.1428571   0.7142857  -0.1428571), wk =   0.1399417
        k(   13) = (   0.7142857  -0.1428571   0.7142857), wk =   0.1399417
        k(   14) = (   0.5714286   0.0000000   0.5714286), wk =   0.0699708
        k(   15) = (   0.0000000   0.8571429   0.0000000), wk =   0.0349854
        k(   16) = (   0.8571429  -0.0000000   0.8571429), wk =   0.0699708
        k(   17) = (  -0.2857143   0.5714286   0.0000000), wk =   0.1399417
        k(   18) = (   0.5714286  -0.2857143   0.8571429), wk =   0.2798834
        k(   19) = (   0.7142857  -0.1428571   1.0000000), wk =   0.1399417
        k(   20) = (   0.5714286   0.0000000   0.8571429), wk =   0.1399417

     Dense  grid:     2975 G-vectors     FFT dimensions: (  24,  24,  24)

     Estimated max dynamical RAM per process >       3.74 MB

     Estimated total dynamical RAM >      18.72 MB

     Check: negative/imaginary core charge=   -0.000034    0.000000

     Initial potential from superposition of free atoms

     starting charge   17.99975, renormalised to   18.00000
     Starting wfcs are   10 randomized atomic wfcs +    3 random wfcs
     Checking if some PAW data can be deallocated... 

     total cpu time spent up to now is        1.1 secs

     Self-consistent Calculation

     iteration #  1     ecut=    45.00 Ry     beta= 0.70
     Davidson diagonalization with overlap
     ethr =  1.00E-02,  avg # of iterations =  4.0

     Threshold (ethr) on eigenvalues was too large:
     Diagonalizing with lowered threshold

     Davidson diagonalization with overlap
     ethr =  3.43E-05,  avg # of iterations =  2.2

     total cpu time spent up to now is        1.5 secs

     total energy              =    -428.99033656 Ry
     Harris-Foulkes estimate   =    -428.99209124 Ry
     estimated scf accuracy    <       0.00625545 Ry

     iteration #  2     ecut=    45.00 Ry     beta= 0.70
     Davidson diagonalization with overlap
     ethr =  3.48E-05,  avg # of iterations =  1.1

     total cpu time spent up to now is        1.8 secs

     total energy              =    -428.99052640 Ry
     Harris-Foulkes estimate   =    -428.99086350 Ry
     estimated scf accuracy    <       0.00077906 Ry

     iteration #  3     ecut=    45.00 Ry     beta= 0.70
     Davidson diagonalization with overlap
     ethr =  4.33E-06,  avg # of iterations =  2.1

     total cpu time spent up to now is        2.0 secs

     total energy              =    -428.99039070 Ry
     Harris-Foulkes estimate   =    -428.99131667 Ry
     estimated scf accuracy    <       0.00252259 Ry

     iteration #  4     ecut=    45.00 Ry     beta= 0.70
     Davidson diagonalization with overlap
     ethr =  4.33E-06,  avg # of iterations =  2.1

     total cpu time spent up to now is        2.3 secs

     total energy              =    -428.99083906 Ry
     Harris-Foulkes estimate   =    -428.99084360 Ry
     estimated scf accuracy    <       0.00002322 Ry

     iteration #  5     ecut=    45.00 Ry     beta= 0.70
     Davidson diagonalization with overlap
     ethr =  1.29E-07,  avg # of iterations =  2.2

     total cpu time spent up to now is        2.5 secs

     total energy              =    -428.99084385 Ry
     Harris-Foulkes estimate   =    -428.99084395 Ry
     estimated scf accuracy    <       0.00000024 Ry

     iteration #  6     ecut=    45.00 Ry     beta= 0.70
     Davidson diagonalization with overlap
     ethr =  1.35E-09,  avg # of iterations =  2.0

     total cpu time spent up to now is        2.8 secs

     End of self-consistent calculation

          k = 0.0000 0.0000 0.0000 (   339 PWs)   bands (ev):

   -85.3747 -45.2966 -45.2966 -45.2966   8.9662  16.0151  16.0151  16.0151
    17.1471  17.1471  41.4792  45.4300  45.4300

          k =-0.1429 0.1429-0.1429 (   362 PWs)   bands (ev):

   -85.3689 -45.4735 -45.3858 -45.3858   9.7222  15.7927  16.1318  16.1318
    17.0014  17.0014  37.7495  42.4327  44.1317

          k =-0.2857 0.2857-0.2857 (   365 PWs)   bands (ev):

   -85.3544 -45.6031 -45.3887 -45.3887  11.7565  15.5827  16.1636  16.1636
    17.2501  17.2501  30.6784  41.2651  42.9928

          k =-0.4286 0.4286-0.4286 (   374 PWs)   bands (ev):

   -85.3429 -45.7152 -45.4272 -45.4272  13.2817  15.9622  15.9622  16.8867
    17.6837  17.6837  24.9949  40.1550  42.5789

          k = 0.0000 0.2857 0.0000 (   359 PWs)   bands (ev):

   -85.3666 -45.4879 -45.3628 -45.3628   9.9810  15.6411  16.2480  16.2480
    16.7419  17.2406  39.9225  40.8343  40.8343

          k =-0.1429 0.4286-0.1429 (   369 PWs)   bands (ev):

   -85.3550 -45.5313 -45.4588 -45.4282  11.5850  15.2678  16.1378  16.4575
    17.0376  17.4097  33.4546  38.8781  39.5367

          k =-0.2857 0.5714-0.2857 (   377 PWs)   bands (ev):

   -85.3427 -45.6588 -45.4876 -45.4635  13.4358  15.3796  15.8525  16.3021
    17.7557  18.4233  27.0035  37.5155  38.4635

          k = 0.5714-0.2857 0.5714 (   375 PWs)   bands (ev):

   -85.3387 -45.6865 -45.4996 -45.4319  13.8122  15.5438  16.1636  16.1754
    17.6837  19.8615  24.1843  35.7478  39.8543

          k = 0.4286-0.1429 0.4286 (   369 PWs)   bands (ev):

   -85.3463 -45.5938 -45.4643 -45.4222  12.9932  15.4173  15.8798  16.3088
    17.1000  18.2995  29.0264  35.2174  42.3240

          k = 0.2857-0.0000 0.2857 (   367 PWs)   bands (ev):

   -85.3598 -45.5037 -45.4461 -45.4188  10.9314  15.4873  16.1917  16.3637
    16.6937  17.4097  35.5095  36.3780  45.5027

          k = 0.0000 0.5714 0.0000 (   371 PWs)   bands (ev):

   -85.3476 -45.5542 -45.4639 -45.4639  12.4778  14.8206  16.4742  17.0365
    17.0365  17.4774  36.0427  36.0427  36.0642

          k =-0.1429 0.7143-0.1429 (   378 PWs)   bands (ev):

   -85.3379 -45.6562 -45.5069 -45.4730  13.6380  14.5817  16.2942  17.1038
    17.7937  18.7848  30.2975  32.7239  34.9622

          k = 0.7143-0.1429 0.7143 (   383 PWs)   bands (ev):

   -85.3332 -45.6537 -45.6010 -45.4964  14.3730  14.6760  15.8837  16.8672
    17.7190  22.4088  24.8991  30.2511  35.9831

          k = 0.5714 0.0000 0.5714 (   377 PWs)   bands (ev):

   -85.3369 -45.6222 -45.5546 -45.4714  14.3971  15.1809  15.3603  16.6722
    17.2431  20.4642  27.6699  29.7404  38.8728

          k = 0.0000 0.8571 0.0000 (   379 PWs)   bands (ev):

   -85.3325 -45.6471 -45.5215 -45.5215  13.5169  14.2201  17.7030  17.8213
    17.8213  19.1435  28.9564  33.0813  33.0813

          k = 0.8571-0.0000 0.8571 (   375 PWs)   bands (ev):

   -85.3303 -45.6564 -45.5242 -45.4921  13.7915  14.2960  17.0251  17.5550
    17.8738  21.7420  27.3990  29.1676  33.4695

          k =-0.2857 0.5714 0.0000 (   372 PWs)   bands (ev):

   -85.3442 -45.5868 -45.4720 -45.4607  13.1988  14.9847  15.7576  16.9592
    17.0592  18.3816  31.7620  32.6670  37.3299

          k = 0.5714-0.2857 0.8571 (   378 PWs)   bands (ev):

   -85.3358 -45.6537 -45.5322 -45.4899  14.3507  14.9826  15.5264  16.7122
    17.6149  20.8015  26.0742  32.4397  34.4065

          k = 0.7143-0.1429 1.0000 (   374 PWs)   bands (ev):

   -85.3319 -45.6314 -45.5081 -45.5041  14.0482  14.5589  16.1842  17.3493
    17.8277  21.3810  29.3629  29.4064  30.8814

          k = 0.5714 0.0000 0.8571 (   380 PWs)   bands (ev):

   -85.3311 -45.6137 -45.6071 -45.5225  14.4777  14.8609  15.5375  16.9657
    17.8156  24.6245  25.0325  28.3809  31.6697

     the Fermi energy is    17.8037 ev

!    total energy              =    -428.99084394 Ry
     Harris-Foulkes estimate   =    -428.99084394 Ry
     estimated scf accuracy    <          2.8E-09 Ry

     total all-electron energy =     -3041.422951 Ry

     The total energy is the sum of the following terms:

     one-electron contribution =    -184.93012374 Ry
     hartree contribution      =     104.68779530 Ry
     xc contribution           =     -34.32823649 Ry
     ewald contribution        =    -223.38275378 Ry
     one-center paw contrib.   =     -91.03491387 Ry
     smearing contrib. (-TS)   =      -0.00261135 Ry

     convergence has been achieved in   6 iterations

     Forces acting on atoms (cartesian axes, Ry/au):

     atom    1 type  1   force =     0.00000000    0.00000000    0.00000000

     Total force =     0.000000     Total SCF correction =     0.000000


     Computing stress (Cartesian axis) and pressure

          total   stress  (Ry/bohr**3)                   (kbar)     P=-2402.22
  -0.01632996   0.00000000   0.00000000      -2402.22      0.00      0.00
   0.00000000  -0.01632996   0.00000000          0.00  -2402.22      0.00
   0.00000000   0.00000000  -0.01632996          0.00      0.00  -2402.22


     Writing output data file Ni.save/

     init_run     :      0.26s CPU      0.29s WALL (       1 calls)
     electrons    :      1.59s CPU      1.75s WALL (       1 calls)
     forces       :      0.02s CPU      0.02s WALL (       1 calls)
     stress       :      0.06s CPU      0.06s WALL (       1 calls)

     Called by init_run:
     wfcinit      :      0.04s CPU      0.05s WALL (       1 calls)
     potinit      :      0.08s CPU      0.10s WALL (       1 calls)
     hinit0       :      0.12s CPU      0.12s WALL (       1 calls)

     Called by electrons:
     c_bands      :      0.84s CPU      0.91s WALL (       7 calls)
     sum_band     :      0.16s CPU      0.17s WALL (       7 calls)
     v_of_rho     :      0.02s CPU      0.02s WALL (       7 calls)
     newd         :      0.02s CPU      0.02s WALL (       7 calls)
     PAW_pot      :      0.62s CPU      0.72s WALL (       7 calls)
     mix_rho      :      0.00s CPU      0.00s WALL (       7 calls)

     Called by c_bands:
     init_us_2    :      0.02s CPU      0.02s WALL (     340 calls)
     cegterg      :      0.81s CPU      0.87s WALL (     140 calls)

     Called by sum_band:
     sum_band:bec :      0.00s CPU      0.00s WALL (     140 calls)
     addusdens    :      0.02s CPU      0.02s WALL (       7 calls)

     Called by *egterg:
     h_psi        :      0.59s CPU      0.64s WALL (     475 calls)
     s_psi        :      0.01s CPU      0.02s WALL (     475 calls)
     g_psi        :      0.00s CPU      0.00s WALL (     315 calls)
     cdiaghg      :      0.14s CPU      0.15s WALL (     435 calls)

     Called by h_psi:
     h_psi:pot    :      0.59s CPU      0.64s WALL (     475 calls)
     h_psi:calbec :      0.03s CPU      0.03s WALL (     475 calls)
     vloc_psi     :      0.54s CPU      0.59s WALL (     475 calls)
     add_vuspsi   :      0.02s CPU      0.02s WALL (     475 calls)

     General routines
     calbec       :      0.04s CPU      0.04s WALL (     715 calls)
     fft          :      0.01s CPU      0.01s WALL (     104 calls)
     ffts         :      0.00s CPU      0.00s WALL (       7 calls)
     fftw         :      0.60s CPU      0.65s WALL (   11090 calls)

     Parallel routines
     fft_scatt_xy :      0.06s CPU      0.06s WALL (   11201 calls)
     fft_scatt_yz :      0.17s CPU      0.18s WALL (   11201 calls)

     PWSCF        :     2.75s CPU         2.99s WALL


   This run was terminated on:  22:37:32  26Mar2024            

=------------------------------------------------------------------------------=
   JOB DONE.
=------------------------------------------------------------------------------=
