
     Program PWSCF v.6.3MaX starts on 26Mar2024 at 22:27:14 

     This program is part of the open-source Quantum ESPRESSO suite
     for quantum simulation of materials; please cite
         "P. Giannozzi et al., J. Phys.:Condens. Matter 21 395502 (2009);
         "P. Giannozzi et al., J. Phys.:Condens. Matter 29 465901 (2017);
          URL http://www.quantum-espresso.org", 
     in publications or presentations arising from this work. More details at
     http://www.quantum-espresso.org/quote

     Parallel version (MPI), running on     5 processors

     MPI processes distributed on     1 nodes
     R & G space division:  proc/nbgrp/npool/nimage =       5
     Waiting for input...
     Reading input from standard input

     Current dimensions of program PWSCF are:
     Max number of different atomic species (ntypx) = 10
     Max number of k-points (npk) =  40000
     Max angular momentum in pseudopotentials (lmaxx) =  3
               file Ni.pbesol-spn-kjpaw_psl.1.0.0.UPF: wavefunction(s)  3P 3D renormalized

     Subspace diagonalization in iterative solution of the eigenvalue problem:
     a serial algorithm will be used


     Parallelization info
     --------------------
     sticks:   dense  smooth     PW     G-vecs:    dense   smooth      PW
     Min          24      24     11                  178      178      51
     Max          25      25     11                  181      181      52
     Sum         121     121     55                  893      893     259



     bravais-lattice index     =            2
     lattice parameter (alat)  =       6.6500  a.u.
     unit-cell volume          =      73.5199 (a.u.)^3
     number of atoms/cell      =            1
     number of atomic types    =            1
     number of electrons       =        18.00
     number of Kohn-Sham states=           13
     kinetic-energy cutoff     =      20.0000  Ry
     charge density cutoff     =      80.0000  Ry
     convergence threshold     =      1.0E-08
     mixing beta               =       0.7000
     number of iterations used =            8  plain     mixing
     Exchange-correlation      = SLA PW PSX PSC ( 1  4 10  8 0 0)

     celldm(1)=   6.650000  celldm(2)=   0.000000  celldm(3)=   0.000000
     celldm(4)=   0.000000  celldm(5)=   0.000000  celldm(6)=   0.000000

     crystal axes: (cart. coord. in units of alat)
               a(1) = (  -0.500000   0.000000   0.500000 )  
               a(2) = (   0.000000   0.500000   0.500000 )  
               a(3) = (  -0.500000   0.500000   0.000000 )  

     reciprocal axes: (cart. coord. in units 2 pi/alat)
               b(1) = ( -1.000000 -1.000000  1.000000 )  
               b(2) = (  1.000000  1.000000  1.000000 )  
               b(3) = ( -1.000000  1.000000 -1.000000 )  


     PseudoPot. # 1 for Ni read from file:
     /home/lorenzo/pseudos/Ni/Ni.pbesol-spn-kjpaw_psl.1.0.0.UPF
     MD5 check sum: ef06ee83099c2673f0516457bd731f51
     Pseudo is Projector augmented-wave + core cor, Zval = 18.0
     Generated using "atomic" code by A. Dal Corso v.6.3
     Shape of augmentation charge: PSQ
     Using radial grid of 1195 points,  6 beta functions with: 
                l(1) =   0
                l(2) =   0
                l(3) =   1
                l(4) =   1
                l(5) =   2
                l(6) =   2
     Q(r) pseudized with 0 coefficients 


     atomic species   valence    mass     pseudopotential
        Ni            18.00    58.69340     Ni( 1.00)

     48 Sym. Ops., with inversion, found



   Cartesian axes

     site n.     atom                  positions (alat units)
         1           Ni  tau(   1) = (   0.0000000   0.0000000   0.0000000  )

     number of k points=    29  gaussian smearing, width (Ry)=  0.0100
                       cart. coord. in units 2pi/alat
        k(    1) = (   0.0000000   0.0000000   0.0000000), wk =   0.0039062
        k(    2) = (  -0.1250000   0.1250000  -0.1250000), wk =   0.0312500
        k(    3) = (  -0.2500000   0.2500000  -0.2500000), wk =   0.0312500
        k(    4) = (  -0.3750000   0.3750000  -0.3750000), wk =   0.0312500
        k(    5) = (   0.5000000  -0.5000000   0.5000000), wk =   0.0156250
        k(    6) = (   0.0000000   0.2500000   0.0000000), wk =   0.0234375
        k(    7) = (  -0.1250000   0.3750000  -0.1250000), wk =   0.0937500
        k(    8) = (  -0.2500000   0.5000000  -0.2500000), wk =   0.0937500
        k(    9) = (   0.6250000  -0.3750000   0.6250000), wk =   0.0937500
        k(   10) = (   0.5000000  -0.2500000   0.5000000), wk =   0.0937500
        k(   11) = (   0.3750000  -0.1250000   0.3750000), wk =   0.0937500
        k(   12) = (   0.2500000   0.0000000   0.2500000), wk =   0.0468750
        k(   13) = (   0.0000000   0.5000000   0.0000000), wk =   0.0234375
        k(   14) = (  -0.1250000   0.6250000  -0.1250000), wk =   0.0937500
        k(   15) = (   0.7500000  -0.2500000   0.7500000), wk =   0.0937500
        k(   16) = (   0.6250000  -0.1250000   0.6250000), wk =   0.0937500
        k(   17) = (   0.5000000   0.0000000   0.5000000), wk =   0.0468750
        k(   18) = (   0.0000000   0.7500000   0.0000000), wk =   0.0234375
        k(   19) = (   0.8750000  -0.1250000   0.8750000), wk =   0.0937500
        k(   20) = (   0.7500000   0.0000000   0.7500000), wk =   0.0468750
        k(   21) = (   0.0000000  -1.0000000   0.0000000), wk =   0.0117188
        k(   22) = (  -0.2500000   0.5000000   0.0000000), wk =   0.0937500
        k(   23) = (   0.6250000  -0.3750000   0.8750000), wk =   0.1875000
        k(   24) = (   0.5000000  -0.2500000   0.7500000), wk =   0.0937500
        k(   25) = (   0.7500000  -0.2500000   1.0000000), wk =   0.0937500
        k(   26) = (   0.6250000  -0.1250000   0.8750000), wk =   0.1875000
        k(   27) = (   0.5000000   0.0000000   0.7500000), wk =   0.0937500
        k(   28) = (  -0.2500000  -1.0000000   0.0000000), wk =   0.0468750
        k(   29) = (  -0.5000000  -1.0000000   0.0000000), wk =   0.0234375

     Dense  grid:      893 G-vectors     FFT dimensions: (  15,  15,  15)

     Estimated max dynamical RAM per process >       1.57 MB

     Estimated total dynamical RAM >       7.87 MB

     Check: negative/imaginary core charge=   -0.000642    0.000000

     Initial potential from superposition of free atoms
     Check: negative starting charge=   -0.021453

     starting charge   17.99977, renormalised to   18.00000

     negative rho (up, down):  2.145E-02 0.000E+00
     Starting wfcs are   10 randomized atomic wfcs +    3 random wfcs
     Checking if some PAW data can be deallocated... 

     total cpu time spent up to now is        1.0 secs

     Self-consistent Calculation

     iteration #  1     ecut=    20.00 Ry     beta= 0.70
     Davidson diagonalization with overlap
     ethr =  1.00E-02,  avg # of iterations =  3.3

     total cpu time spent up to now is        1.3 secs

     total energy              =    -384.21376020 Ry
     Harris-Foulkes estimate   =    -407.33356196 Ry
     estimated scf accuracy    <      26.99393907 Ry

     iteration #  2     ecut=    20.00 Ry     beta= 0.70
     Davidson diagonalization with overlap
     ethr =  1.00E-02,  avg # of iterations =  3.0

     total cpu time spent up to now is        1.6 secs

     total energy              =    -393.60981898 Ry
     Harris-Foulkes estimate   =    -400.22013231 Ry
     estimated scf accuracy    <      11.85501426 Ry

     iteration #  3     ecut=    20.00 Ry     beta= 0.70
     Davidson diagonalization with overlap
     ethr =  1.00E-02,  avg # of iterations =  2.0

     total cpu time spent up to now is        1.8 secs

     total energy              =    -395.13529004 Ry
     Harris-Foulkes estimate   =    -395.28556031 Ry
     estimated scf accuracy    <       0.22881993 Ry

     iteration #  4     ecut=    20.00 Ry     beta= 0.70
     Davidson diagonalization with overlap
     ethr =  1.27E-03,  avg # of iterations =  2.0

     total cpu time spent up to now is        2.0 secs

     total energy              =    -395.16903496 Ry
     Harris-Foulkes estimate   =    -395.19550702 Ry
     estimated scf accuracy    <       0.05580824 Ry

     iteration #  5     ecut=    20.00 Ry     beta= 0.70
     Davidson diagonalization with overlap
     ethr =  3.10E-04,  avg # of iterations =  1.3

     total cpu time spent up to now is        2.2 secs

     total energy              =    -395.17865922 Ry
     Harris-Foulkes estimate   =    -395.17863136 Ry
     estimated scf accuracy    <       0.00011412 Ry

     iteration #  6     ecut=    20.00 Ry     beta= 0.70
     Davidson diagonalization with overlap
     ethr =  6.34E-07,  avg # of iterations =  2.2

     total cpu time spent up to now is        2.4 secs

     total energy              =    -395.17860132 Ry
     Harris-Foulkes estimate   =    -395.17868480 Ry
     estimated scf accuracy    <       0.00017678 Ry

     iteration #  7     ecut=    20.00 Ry     beta= 0.70
     Davidson diagonalization with overlap
     ethr =  6.34E-07,  avg # of iterations =  1.7

     total cpu time spent up to now is        2.6 secs

     total energy              =    -395.17862955 Ry
     Harris-Foulkes estimate   =    -395.17862968 Ry
     estimated scf accuracy    <       0.00000042 Ry

     iteration #  8     ecut=    20.00 Ry     beta= 0.70
     Davidson diagonalization with overlap
     ethr =  2.31E-09,  avg # of iterations =  2.0

     total cpu time spent up to now is        2.8 secs

     total energy              =    -395.17862956 Ry
     Harris-Foulkes estimate   =    -395.17862960 Ry
     estimated scf accuracy    <       0.00000007 Ry

     iteration #  9     ecut=    20.00 Ry     beta= 0.70
     Davidson diagonalization with overlap
     ethr =  3.73E-10,  avg # of iterations =  2.1

     total cpu time spent up to now is        3.0 secs

     End of self-consistent calculation

          k = 0.0000 0.0000 0.0000 (   113 PWs)   bands (ev):

  -125.8613 -52.3393 -52.3393 -52.3393  10.5860  19.6952  19.6952  19.6952
    20.1957  20.1957  43.7948  47.4628  47.4628

          k =-0.1250 0.1250-0.1250 (   116 PWs)   bands (ev):

  -126.0392 -56.9024 -52.5185 -52.5185  11.0087  12.3895  18.2633  18.2633
    19.9418  19.9418  38.5044  44.7404  45.6383

          k =-0.2500 0.2500-0.2500 (   113 PWs)   bands (ev):

  -125.7454 -54.4160 -54.4160 -47.8876  12.7410  15.1820  15.1820  23.3261
    23.6680  23.6680  33.6731  42.8980  42.8980

          k =-0.3750 0.3750-0.3750 (   114 PWs)   bands (ev):

  -125.9710 -54.4352 -54.4352 -50.6779  14.4812  15.2259  15.2259  21.4525
    23.3922  23.3922  27.0679  42.7476  42.7476

          k = 0.5000-0.5000 0.5000 (   108 PWs)   bands (ev):

  -125.4979 -49.8933 -49.8933 -48.9517  17.5210  19.9683  21.4174  21.4174
    26.5664  27.6697  27.6697  44.4932  44.4932

          k = 0.0000 0.2500 0.0000 (   117 PWs)   bands (ev):

  -126.1013 -56.6508 -53.3749 -53.3749  11.2605  14.7456  14.7456  16.7345
    18.4064  20.4518  41.1376  42.3503  42.3503

          k =-0.1250 0.3750-0.1250 (   113 PWs)   bands (ev):

  -125.7261 -54.1745 -53.3327 -48.8222  12.7020  13.6089  18.2600  20.3080
    22.6592  26.4458  35.0965  40.2338  41.2043

          k =-0.2500 0.5000-0.2500 (   112 PWs)   bands (ev):

  -125.8054 -53.6483 -53.1506 -49.3532  13.8547  16.1928  18.7362  20.0640
    24.8138  27.1383  29.2512  39.2997  39.5658

          k = 0.6250-0.3750 0.6250 (   112 PWs)   bands (ev):

  -125.8468 -54.2087 -52.2013 -49.7756  15.3958  17.3727  17.8194  20.5026
    22.8888  25.6856  28.2641  37.9911  40.0284

          k = 0.5000-0.2500 0.5000 (   109 PWs)   bands (ev):

  -125.5636 -52.0704 -50.1597 -48.4722  16.5379  19.6863  20.1358  21.3060
    26.5514  27.6635  28.1597  37.4302  42.0957

          k = 0.3750-0.1250 0.3750 (   110 PWs)   bands (ev):

  -125.5340 -52.3233 -51.6347 -47.9386  13.9049  14.2249  21.7364  22.2740
    26.2662  29.0910  30.8305  36.4199  45.4310

          k = 0.2500 0.0000 0.2500 (   117 PWs)   bands (ev):

  -126.0869 -55.8414 -55.1959 -52.3252   9.5850  12.0881  17.1677  18.8124
    19.4539  21.0645  35.9240  38.1403  46.8934

          k = 0.0000 0.5000 0.0000 (   125 PWs)   bands (ev):

  -126.8006 -58.9742 -58.9742 -58.9384   7.7395  10.1976  11.9595  11.9595
    14.3092  14.7986  36.7986  37.2505  37.2505

          k =-0.1250 0.6250-0.1250 (   114 PWs)   bands (ev):

  -125.9894 -54.4795 -52.9442 -52.2195  11.8323  12.6532  16.1836  22.8315
    24.4374  26.6442  31.4234  34.3829  37.4742

          k = 0.7500-0.2500 0.7500 (   110 PWs)   bands (ev):

  -125.7593 -52.5335 -51.9103 -48.9510  14.3277  18.4708  20.2439  23.6298
    27.2775  27.4158  27.9330  32.6110  37.7254

          k = 0.6250-0.1250 0.6250 (   109 PWs)   bands (ev):

  -125.6522 -52.6814 -49.9066 -48.8445  17.4499  19.2540  21.3810  21.6434
    26.8114  27.5774  27.8426  31.4771  39.5158

          k = 0.5000 0.0000 0.5000 (   107 PWs)   bands (ev):

  -125.4071 -50.6139 -49.3903 -47.6761  16.8436  22.0310  22.9763  23.7136
    26.9535  28.3178  29.0727  32.5307  41.9387

          k = 0.0000 0.7500 0.0000 (   112 PWs)   bands (ev):

  -125.9490 -54.2501 -54.2501 -48.9697   8.8663  14.2611  21.7651  22.9965
    28.2654  28.2654  31.1525  35.2826  35.2826

          k = 0.8750-0.1250 0.8750 (   110 PWs)   bands (ev):

  -125.8275 -53.8778 -51.6738 -48.5814  11.4536  17.2402  22.6787  24.5885
    28.4303  28.9600  29.7026  30.2345  35.2032

          k = 0.7500 0.0000 0.7500 (   110 PWs)   bands (ev):

  -125.8452 -56.3063 -49.2206 -49.1587   9.2784  20.9547  23.6367  24.7649
    25.9735  26.7446  29.2551  29.8531  35.5182

          k = 0.0000-1.0000 0.0000 (   116 PWs)   bands (ev):

  -126.3839 -57.2651 -57.2651 -50.3352   2.6063  14.6982  22.3730  22.8229
    24.3163  24.3163  27.9329  33.7296  34.0295

          k =-0.2500 0.5000 0.0000 (   114 PWs)   bands (ev):

  -125.8758 -54.3934 -53.1149 -51.0382  13.9447  14.0641  17.5344  20.4097
    20.6041  26.0034  32.9383  35.0601  39.8318

          k = 0.6250-0.3750 0.8750 (   113 PWs)   bands (ev):

  -125.9548 -55.5238 -52.7865 -50.1209  12.1386  16.4068  17.5760  21.4505
    24.4686  26.8131  28.5505  33.2251  36.2601

          k = 0.5000-0.2500 0.7500 (   112 PWs)   bands (ev):

  -125.9254 -54.5544 -53.6843 -48.8781  13.9652  17.6006  17.9799  20.7133
    24.1454  26.2354  29.6357  33.3991  35.1612

          k = 0.7500-0.2500 1.0000 (   107 PWs)   bands (ev):

  -125.5549 -50.9367 -49.2283 -48.8969  17.2519  18.6582  21.7779  26.9205
    29.3060  29.7102  30.2130  31.7245  33.5762

          k = 0.6250-0.1250 0.8750 (   108 PWs)   bands (ev):

  -125.7090 -51.9084 -50.3124 -48.7770  16.0028  20.3529  22.4918  24.7381
    27.2899  28.6946  28.9953  30.4218  32.7190

          k = 0.5000 0.0000 0.7500 (   109 PWs)   bands (ev):

  -125.7657 -53.7090 -49.6336 -49.4337  16.4113  19.3774  21.9515  22.3401
    27.1217  27.8998  28.6259  30.5048  33.9277

          k =-0.2500-1.0000 0.0000 (   108 PWs)   bands (ev):

  -125.7161 -53.4479 -48.7440 -48.6900  15.0998  17.5694  23.0147  26.6270
    28.1488  29.5268  29.8054  30.1189  32.4432

          k =-0.5000-1.0000 0.0000 (   108 PWs)   bands (ev):

  -125.7630 -52.5257 -49.4100 -49.4100  20.5236  21.2778  22.0867  22.0867
    26.8230  26.8230  29.5533  29.6559  30.7195

     the Fermi energy is    26.8181 ev

!    total energy              =    -395.17862958 Ry
     Harris-Foulkes estimate   =    -395.17862958 Ry
     estimated scf accuracy    <          6.4E-09 Ry

     total all-electron energy =     -3007.636974 Ry

     The total energy is the sum of the following terms:

     one-electron contribution =    -122.26318486 Ry
     hartree contribution      =      68.25728538 Ry
     xc contribution           =     -29.55510437 Ry
     ewald contribution        =    -223.38275379 Ry
     one-center paw contrib.   =     -88.23356666 Ry
     smearing contrib. (-TS)   =      -0.00130528 Ry

     convergence has been achieved in   9 iterations

     Forces acting on atoms (cartesian axes, Ry/au):

     atom    1 type  1   force =     0.00000000    0.00000000    0.00000000

     Total force =     0.000000     Total SCF correction =     0.000000


     Computing stress (Cartesian axis) and pressure

          total   stress  (Ry/bohr**3)                   (kbar)     P=********
  -1.02027783   0.00000000   0.00000000    -150088.03      0.00      0.00
   0.00000000  -1.02027783  -0.00000000          0.00-150088.03     -0.00
   0.00000000  -0.00000000  -1.02027783          0.00     -0.00-150088.03


     Writing output data file Ni.save/

     init_run     :      0.20s CPU      0.22s WALL (       1 calls)
     electrons    :      1.72s CPU      2.00s WALL (       1 calls)
     forces       :      0.01s CPU      0.01s WALL (       1 calls)
     stress       :      0.02s CPU      0.02s WALL (       1 calls)

     Called by init_run:
     wfcinit      :      0.03s CPU      0.03s WALL (       1 calls)
     potinit      :      0.09s CPU      0.11s WALL (       1 calls)
     hinit0       :      0.07s CPU      0.07s WALL (       1 calls)

     Called by electrons:
     c_bands      :      0.81s CPU      0.94s WALL (       9 calls)
     sum_band     :      0.10s CPU      0.13s WALL (       9 calls)
     v_of_rho     :      0.01s CPU      0.01s WALL (      10 calls)
     newd         :      0.01s CPU      0.01s WALL (      10 calls)
     PAW_pot      :      0.87s CPU      1.00s WALL (      10 calls)
     mix_rho      :      0.00s CPU      0.00s WALL (       9 calls)

     Called by c_bands:
     init_us_2    :      0.01s CPU      0.01s WALL (     609 calls)
     cegterg      :      0.78s CPU      0.91s WALL (     261 calls)

     Called by sum_band:
     sum_band:bec :      0.00s CPU      0.00s WALL (     261 calls)
     addusdens    :      0.01s CPU      0.01s WALL (       9 calls)

     Called by *egterg:
     h_psi        :      0.44s CPU      0.51s WALL (     861 calls)
     s_psi        :      0.01s CPU      0.02s WALL (     861 calls)
     g_psi        :      0.00s CPU      0.00s WALL (     571 calls)
     cdiaghg      :      0.26s CPU      0.29s WALL (     832 calls)

     Called by h_psi:
     h_psi:pot    :      0.44s CPU      0.51s WALL (     861 calls)
     h_psi:calbec :      0.03s CPU      0.03s WALL (     861 calls)
     vloc_psi     :      0.39s CPU      0.46s WALL (     861 calls)
     add_vuspsi   :      0.01s CPU      0.02s WALL (     861 calls)

     General routines
     calbec       :      0.03s CPU      0.04s WALL (    1267 calls)
     fft          :      0.00s CPU      0.00s WALL (     136 calls)
     ffts         :      0.00s CPU      0.00s WALL (       9 calls)
     fftw         :      0.42s CPU      0.50s WALL (   20923 calls)

     Parallel routines
     fft_scatt_xy :      0.05s CPU      0.06s WALL (   21068 calls)
     fft_scatt_yz :      0.16s CPU      0.19s WALL (   21068 calls)

     PWSCF        :     2.76s CPU         3.12s WALL


   This run was terminated on:  22:27:17  26Mar2024            

=------------------------------------------------------------------------------=
   JOB DONE.
=------------------------------------------------------------------------------=
