
     Program PWSCF v.6.3MaX starts on 26Mar2024 at 22:54:13 

     This program is part of the open-source Quantum ESPRESSO suite
     for quantum simulation of materials; please cite
         "P. Giannozzi et al., J. Phys.:Condens. Matter 21 395502 (2009);
         "P. Giannozzi et al., J. Phys.:Condens. Matter 29 465901 (2017);
          URL http://www.quantum-espresso.org", 
     in publications or presentations arising from this work. More details at
     http://www.quantum-espresso.org/quote

     Parallel version (MPI), running on     5 processors

     MPI processes distributed on     1 nodes
     R & G space division:  proc/nbgrp/npool/nimage =       5
     Waiting for input...
     Reading input from standard input

     Current dimensions of program PWSCF are:
     Max number of different atomic species (ntypx) = 10
     Max number of k-points (npk) =  40000
     Max angular momentum in pseudopotentials (lmaxx) =  3

     Subspace diagonalization in iterative solution of the eigenvalue problem:
     a serial algorithm will be used


     Parallelization info
     --------------------
     sticks:   dense  smooth     PW     G-vecs:    dense   smooth      PW
     Min          99      99     32                 1423     1423     258
     Max         100     100     33                 1425     1425     259
     Sum         499     499    163                 7119     7119    1291



     bravais-lattice index     =            2
     lattice parameter (alat)  =       6.6500  a.u.
     unit-cell volume          =      73.5199 (a.u.)^3
     number of atoms/cell      =            1
     number of atomic types    =            1
     number of electrons       =        18.00
     number of Kohn-Sham states=           13
     kinetic-energy cutoff     =      80.0000  Ry
     charge density cutoff     =     320.0000  Ry
     convergence threshold     =      1.0E-08
     mixing beta               =       0.7000
     number of iterations used =            8  plain     mixing
     Exchange-correlation      = PBE ( 1  4  3  4 0 0)

     celldm(1)=   6.650000  celldm(2)=   0.000000  celldm(3)=   0.000000
     celldm(4)=   0.000000  celldm(5)=   0.000000  celldm(6)=   0.000000

     crystal axes: (cart. coord. in units of alat)
               a(1) = (  -0.500000   0.000000   0.500000 )  
               a(2) = (   0.000000   0.500000   0.500000 )  
               a(3) = (  -0.500000   0.500000   0.000000 )  

     reciprocal axes: (cart. coord. in units 2 pi/alat)
               b(1) = ( -1.000000 -1.000000  1.000000 )  
               b(2) = (  1.000000  1.000000  1.000000 )  
               b(3) = ( -1.000000  1.000000 -1.000000 )  


     PseudoPot. # 1 for Ni read from file:
     /home/lorenzo/pseudos/Ni/Ni.pbe-spn-rrkjus_psl.1.0.0.UPF
     MD5 check sum: 8b3fc9aac6dafe35f580d41bb18c3945
     Pseudo is Ultrasoft + core correction, Zval = 18.0
     Generated using "atomic" code by A. Dal Corso v.6.3
     Using radial grid of 1195 points,  6 beta functions with: 
                l(1) =   0
                l(2) =   0
                l(3) =   1
                l(4) =   1
                l(5) =   2
                l(6) =   2
     Q(r) pseudized with 0 coefficients 


     atomic species   valence    mass     pseudopotential
        Ni            18.00    58.69340     Ni( 1.00)

     48 Sym. Ops., with inversion, found



   Cartesian axes

     site n.     atom                  positions (alat units)
         1           Ni  tau(   1) = (   0.0000000   0.0000000   0.0000000  )

     number of k points=    47  gaussian smearing, width (Ry)=  0.0100
                       cart. coord. in units 2pi/alat
        k(    1) = (   0.0000000   0.0000000   0.0000000), wk =   0.0020000
        k(    2) = (  -0.1000000   0.1000000  -0.1000000), wk =   0.0160000
        k(    3) = (  -0.2000000   0.2000000  -0.2000000), wk =   0.0160000
        k(    4) = (  -0.3000000   0.3000000  -0.3000000), wk =   0.0160000
        k(    5) = (  -0.4000000   0.4000000  -0.4000000), wk =   0.0160000
        k(    6) = (   0.5000000  -0.5000000   0.5000000), wk =   0.0080000
        k(    7) = (   0.0000000   0.2000000   0.0000000), wk =   0.0120000
        k(    8) = (  -0.1000000   0.3000000  -0.1000000), wk =   0.0480000
        k(    9) = (  -0.2000000   0.4000000  -0.2000000), wk =   0.0480000
        k(   10) = (  -0.3000000   0.5000000  -0.3000000), wk =   0.0480000
        k(   11) = (   0.6000000  -0.4000000   0.6000000), wk =   0.0480000
        k(   12) = (   0.5000000  -0.3000000   0.5000000), wk =   0.0480000
        k(   13) = (   0.4000000  -0.2000000   0.4000000), wk =   0.0480000
        k(   14) = (   0.3000000  -0.1000000   0.3000000), wk =   0.0480000
        k(   15) = (   0.2000000   0.0000000   0.2000000), wk =   0.0240000
        k(   16) = (   0.0000000   0.4000000   0.0000000), wk =   0.0120000
        k(   17) = (  -0.1000000   0.5000000  -0.1000000), wk =   0.0480000
        k(   18) = (  -0.2000000   0.6000000  -0.2000000), wk =   0.0480000
        k(   19) = (   0.7000000  -0.3000000   0.7000000), wk =   0.0480000
        k(   20) = (   0.6000000  -0.2000000   0.6000000), wk =   0.0480000
        k(   21) = (   0.5000000  -0.1000000   0.5000000), wk =   0.0480000
        k(   22) = (   0.4000000   0.0000000   0.4000000), wk =   0.0240000
        k(   23) = (   0.0000000   0.6000000   0.0000000), wk =   0.0120000
        k(   24) = (  -0.1000000   0.7000000  -0.1000000), wk =   0.0480000
        k(   25) = (   0.8000000  -0.2000000   0.8000000), wk =   0.0480000
        k(   26) = (   0.7000000  -0.1000000   0.7000000), wk =   0.0480000
        k(   27) = (   0.6000000  -0.0000000   0.6000000), wk =   0.0240000
        k(   28) = (   0.0000000   0.8000000   0.0000000), wk =   0.0120000
        k(   29) = (   0.9000000  -0.1000000   0.9000000), wk =   0.0480000
        k(   30) = (   0.8000000   0.0000000   0.8000000), wk =   0.0240000
        k(   31) = (   0.0000000  -1.0000000   0.0000000), wk =   0.0060000
        k(   32) = (  -0.2000000   0.4000000   0.0000000), wk =   0.0480000
        k(   33) = (  -0.3000000   0.5000000  -0.1000000), wk =   0.0960000
        k(   34) = (   0.6000000  -0.4000000   0.8000000), wk =   0.0960000
        k(   35) = (   0.5000000  -0.3000000   0.7000000), wk =   0.0480000
        k(   36) = (  -0.2000000   0.6000000   0.0000000), wk =   0.0480000
        k(   37) = (   0.7000000  -0.3000000   0.9000000), wk =   0.0960000
        k(   38) = (   0.6000000  -0.2000000   0.8000000), wk =   0.0960000
        k(   39) = (   0.5000000  -0.1000000   0.7000000), wk =   0.0960000
        k(   40) = (   0.4000000   0.0000000   0.6000000), wk =   0.0480000
        k(   41) = (   0.8000000  -0.2000000   1.0000000), wk =   0.0480000
        k(   42) = (   0.7000000  -0.1000000   0.9000000), wk =   0.0960000
        k(   43) = (   0.6000000   0.0000000   0.8000000), wk =   0.0480000
        k(   44) = (  -0.2000000  -1.0000000   0.0000000), wk =   0.0240000
        k(   45) = (   0.6000000  -0.2000000   1.0000000), wk =   0.0480000
        k(   46) = (   0.5000000  -0.1000000   0.9000000), wk =   0.0480000
        k(   47) = (  -0.4000000  -1.0000000   0.0000000), wk =   0.0240000

     Dense  grid:     7119 G-vectors     FFT dimensions: (  27,  27,  27)

     Estimated max dynamical RAM per process >       8.52 MB

     Estimated total dynamical RAM >      42.58 MB

     Check: negative/imaginary core charge=   -0.000005    0.000000

     Initial potential from superposition of free atoms

     starting charge   17.99975, renormalised to   18.00000
     Starting wfcs are   10 randomized atomic wfcs +    3 random wfcs

     total cpu time spent up to now is        1.1 secs

     Self-consistent Calculation

     iteration #  1     ecut=    80.00 Ry     beta= 0.70
     Davidson diagonalization with overlap
     ethr =  1.00E-02,  avg # of iterations =  3.5

     Threshold (ethr) on eigenvalues was too large:
     Diagonalizing with lowered threshold

     Davidson diagonalization with overlap
     ethr =  2.33E-05,  avg # of iterations =  2.7

     total cpu time spent up to now is        2.6 secs

     total energy              =    -339.60056145 Ry
     Harris-Foulkes estimate   =    -339.60313806 Ry
     estimated scf accuracy    <       0.00421647 Ry

     iteration #  2     ecut=    80.00 Ry     beta= 0.70
     Davidson diagonalization with overlap
     ethr =  2.34E-05,  avg # of iterations =  2.4

     total cpu time spent up to now is        3.4 secs

     total energy              =    -339.59966311 Ry
     Harris-Foulkes estimate   =    -339.60526467 Ry
     estimated scf accuracy    <       0.01561003 Ry

     iteration #  3     ecut=    80.00 Ry     beta= 0.70
     Davidson diagonalization with overlap
     ethr =  2.34E-05,  avg # of iterations =  2.1

     total cpu time spent up to now is        4.0 secs

     total energy              =    -339.60233705 Ry
     Harris-Foulkes estimate   =    -339.60237497 Ry
     estimated scf accuracy    <       0.00015238 Ry

     iteration #  4     ecut=    80.00 Ry     beta= 0.70
     Davidson diagonalization with overlap
     ethr =  8.47E-07,  avg # of iterations =  2.0

     total cpu time spent up to now is        4.6 secs

     total energy              =    -339.60236044 Ry
     Harris-Foulkes estimate   =    -339.60236028 Ry
     estimated scf accuracy    <       0.00000050 Ry

     iteration #  5     ecut=    80.00 Ry     beta= 0.70
     Davidson diagonalization with overlap
     ethr =  2.78E-09,  avg # of iterations =  3.0

     total cpu time spent up to now is        5.3 secs

     total energy              =    -339.60236087 Ry
     Harris-Foulkes estimate   =    -339.60236089 Ry
     estimated scf accuracy    <       0.00000007 Ry

     iteration #  6     ecut=    80.00 Ry     beta= 0.70
     Davidson diagonalization with overlap
     ethr =  3.74E-10,  avg # of iterations =  1.1

     total cpu time spent up to now is        5.8 secs

     End of self-consistent calculation

          k = 0.0000 0.0000 0.0000 (   893 PWs)   bands (ev):

   -85.2716 -45.5315 -45.5315 -45.5315   8.8254  15.9211  15.9211  15.9211
    17.0307  17.0307  41.4895  45.4366  45.4366

          k =-0.1000 0.1000-0.1000 (   899 PWs)   bands (ev):

   -85.2684 -45.5531 -45.5348 -45.5348   9.2148  15.8170  16.0049  16.0049
    16.9972  16.9972  39.7760  42.8051  44.6323

          k =-0.2000 0.2000-0.2000 (   899 PWs)   bands (ev):

   -85.2599 -45.6081 -45.5430 -45.5430  10.3236  15.5995  16.1309  16.1309
    17.0188  17.0188  34.8613  42.0177  43.6196

          k =-0.3000 0.3000-0.3000 (   890 PWs)   bands (ev):

   -85.2494 -45.6759 -45.5525 -45.5525  11.8750  15.5894  16.0724  16.0724
    17.2919  17.2919  29.9880  41.1183  42.9584

          k =-0.4000 0.4000-0.4000 (   887 PWs)   bands (ev):

   -85.2409 -45.7310 -45.5602 -45.5602  13.0346  15.9352  15.9352  16.4714
    17.6305  17.6305  25.8533  40.3052  42.6470

          k = 0.5000-0.5000 0.5000 (   886 PWs)   bands (ev):

   -85.2376 -45.7519 -45.5631 -45.5631  13.3090  15.8746  15.8746  17.5475
    17.7751  17.7751  23.7916  39.9911  42.5778

          k = 0.0000 0.2000 0.0000 (   889 PWs)   bands (ev):

   -85.2672 -45.5525 -45.5390 -45.5390   9.3435  15.7299  16.0695  16.0695
    16.8570  17.0984  40.5643  42.4779  42.4779

          k =-0.1000 0.3000-0.1000 (   898 PWs)   bands (ev):

   -85.2606 -45.5935 -45.5489 -45.5457  10.2112  15.5078  16.2027  16.2313
    16.7648  17.1759  36.8100  40.8921  40.9279

          k =-0.2000 0.4000-0.2000 (   880 PWs)   bands (ev):

   -85.2507 -45.6542 -45.5589 -45.5551  11.6400  15.3432  16.0624  16.2574
    17.1296  17.3989  31.8019  39.9361  40.0786

          k =-0.3000 0.5000-0.3000 (   890 PWs)   bands (ev):

   -85.2416 -45.7122 -45.5670 -45.5666  13.0127  15.6047  15.8830  16.1374
    17.6847  17.8946  27.3154  39.1177  39.6815

          k = 0.6000-0.4000 0.6000 (   889 PWs)   bands (ev):

   -85.2366 -45.7430 -45.5761 -45.5681  13.5119  15.6804  16.0327  16.4220
    17.7848  19.0283  24.1505  38.1156  40.2407

          k = 0.5000-0.3000 0.5000 (   884 PWs)   bands (ev):

   -85.2377 -45.7361 -45.5787 -45.5629  13.4394  15.7364  16.0340  16.2753
    17.5917  18.7678  24.9499  37.4095  41.2224

          k = 0.4000-0.2000 0.4000 (   891 PWs)   bands (ev):

   -85.2444 -45.6943 -45.5741 -45.5540  12.6400  15.5252  15.9223  16.1514
    17.1839  17.9411  28.7365  37.2677  42.3498

          k = 0.3000-0.1000 0.3000 (   895 PWs)   bands (ev):

   -85.2542 -45.6339 -45.5628 -45.5443  11.1278  15.4269  16.1039  16.2777
    16.8050  17.4184  33.4423  37.7212  44.0739

          k = 0.2000 0.0000 0.2000 (   907 PWs)   bands (ev):

   -85.2634 -45.5805 -45.5480 -45.5371   9.8456  15.6427  16.1191  16.1358
    16.8279  17.1207  38.1165  39.1571  44.4823

          k = 0.0000 0.4000 0.0000 (   885 PWs)   bands (ev):

   -85.2560 -45.6047 -45.5600 -45.5600  10.7971  15.2441  16.4747  16.4929
    16.4929  17.2769  38.8074  38.8074  39.2150

          k =-0.1000 0.5000-0.1000 (   879 PWs)   bands (ev):

   -85.2479 -45.6476 -45.5718 -45.5717  11.9482  14.9911  16.1333  16.6617
    17.0894  17.4593  34.1018  37.4511  38.1699

          k =-0.2000 0.6000-0.2000 (   886 PWs)   bands (ev):

   -85.2395 -45.6944 -45.5885 -45.5797  13.2471  14.9169  15.8355  16.5987
    17.7273  18.2025  29.3942  36.1312  36.9305

          k = 0.7000-0.3000 0.7000 (   887 PWs)   bands (ev):

   -85.2338 -45.7228 -45.6062 -45.5807  13.9573  15.0642  15.8194  16.4702
    17.8113  20.0596  25.4197  34.3264  37.3485

          k = 0.6000-0.2000 0.6000 (   880 PWs)   bands (ev):

   -85.2331 -45.7230 -45.6174 -45.5742  14.0897  15.2078  15.8176  16.3987
    17.5924  20.8068  24.5007  33.0859  38.7173

          k = 0.5000-0.1000 0.5000 (   889 PWs)   bands (ev):

   -85.2377 -45.6994 -45.6151 -45.5634  13.7079  15.3313  15.5336  16.4354
    17.1506  19.1720  28.0155  32.5545  40.9087

          k = 0.4000 0.0000 0.4000 (   881 PWs)   bands (ev):

   -85.2457 -45.6648 -45.5935 -45.5516  12.4552  15.2314  15.8681  16.5604
    16.6819  18.1036  32.2206  33.0754  43.1346

          k = 0.0000 0.6000 0.0000 (   882 PWs)   bands (ev):

   -85.2420 -45.6691 -45.5854 -45.5854  12.6338  14.6735  16.5216  17.1053
    17.1053  17.5025  35.3303  35.6741  35.6741

          k =-0.1000 0.7000-0.1000 (   881 PWs)   bands (ev):

   -85.2353 -45.6991 -45.6015 -45.5948  13.3802  14.4925  16.5012  17.1903
    17.7348  18.2376  31.8822  32.9482  34.7852

          k = 0.8000-0.2000 0.8000 (   891 PWs)   bands (ev):

   -85.2304 -45.7142 -45.6272 -45.5966  13.9554  14.5161  16.2065  17.0645
    17.8476  20.5065  27.7076  30.8368  34.9361

          k = 0.7000-0.1000 0.7000 (   885 PWs)   bands (ev):

   -85.2290 -45.7034 -45.6563 -45.5892  14.4033  14.6561  15.8386  16.9118
    17.6525  23.1349  24.5117  29.4261  36.1333

          k = 0.6000-0.0000 0.6000 (   885 PWs)   bands (ev):

   -85.2318 -45.6905 -45.6586 -45.5770  14.4868  15.0019  15.4051  16.7328
    17.3162  21.0751  27.0141  29.2300  38.2057

          k = 0.0000 0.8000 0.0000 (   886 PWs)   bands (ev):

   -85.2308 -45.7211 -45.6059 -45.6059  13.4299  14.2338  17.6886  17.7005
    17.7005  18.3760  30.1414  33.4940  33.4940

          k = 0.9000-0.1000 0.9000 (   890 PWs)   bands (ev):

   -85.2276 -45.7303 -45.6206 -45.6092  13.6089  14.1947  17.2883  17.5866
    17.8969  20.4798  28.2140  30.7112  33.2897

          k = 0.8000 0.0000 0.8000 (   894 PWs)   bands (ev):

   -85.2269 -45.7171 -45.6467 -45.6029  13.9689  14.3768  16.5384  17.3585
    17.7897  22.7640  26.8049  27.8404  34.2308

          k = 0.0000-1.0000 0.0000 (   894 PWs)   bands (ev):

   -85.2265 -45.7408 -45.6141 -45.6141  13.4670  14.0707  17.7600  17.9600
    17.9600  20.2969  27.2478  32.6943  32.6943

          k =-0.2000 0.4000 0.0000 (   887 PWs)   bands (ev):

   -85.2531 -45.6280 -45.5696 -45.5511  11.2465  15.2647  16.1159  16.5090
    16.7288  17.4449  35.3175  35.9925  41.9277

          k =-0.3000 0.5000-0.1000 (   888 PWs)   bands (ev):

   -85.2440 -45.6763 -45.5883 -45.5606  12.6757  15.1391  15.8187  16.5121
    17.1074  18.0573  30.7145  35.0528  39.5981

          k = 0.6000-0.4000 0.8000 (   887 PWs)   bands (ev):

   -85.2366 -45.7167 -45.5993 -45.5706  13.7121  15.3265  15.6884  16.3721
    17.5613  19.2157  26.4425  35.0526  37.5917

          k = 0.5000-0.3000 0.7000 (   880 PWs)   bands (ev):

   -85.2338 -45.7318 -45.6023 -45.5751  13.9390  15.3091  15.9636  16.2962
    17.7151  20.5384  23.9992  35.4323  36.5167

          k =-0.2000 0.6000 0.0000 (   880 PWs)   bands (ev):

   -85.2405 -45.6783 -45.5960 -45.5782  13.0012  14.7758  15.9467  17.1052
    17.1584  18.0633  32.9089  33.4557  36.0701

          k = 0.7000-0.3000 0.9000 (   886 PWs)   bands (ev):

   -85.2338 -45.7036 -45.6179 -45.5875  13.9248  14.7557  15.6996  16.9568
    17.6100  19.5459  28.6636  32.9207  33.8887

          k = 0.6000-0.2000 0.8000 (   880 PWs)   bands (ev):

   -85.2303 -45.7112 -45.6362 -45.5900  14.3996  14.7994  15.6335  16.7672
    17.7277  21.9152  24.9564  31.8594  33.8509

          k = 0.5000-0.1000 0.7000 (   887 PWs)   bands (ev):

   -85.2314 -45.7033 -45.6431 -45.5831  14.4745  14.9463  15.4152  16.7235
    17.5228  21.2469  26.0221  30.8408  35.2099

          k = 0.4000 0.0000 0.6000 (   888 PWs)   bands (ev):

   -85.2366 -45.6913 -45.6241 -45.5711  13.8622  15.0568  15.4153  16.7908
    17.1385  19.2787  29.7052  30.9481  37.1965

          k = 0.8000-0.2000 1.0000 (   889 PWs)   bands (ev):

   -85.2304 -45.7155 -45.6179 -45.6039  13.7274  14.3902  16.5232  17.5089
    17.6983  19.7869  30.3901  31.1539  31.9708

          k = 0.7000-0.1000 0.9000 (   891 PWs)   bands (ev):

   -85.2276 -45.7116 -45.6432 -45.6063  14.0812  14.5114  16.1527  17.2393
    17.8506  22.3130  27.4045  28.8130  32.0580

          k = 0.6000 0.0000 0.8000 (   891 PWs)   bands (ev):

   -85.2280 -45.6863 -45.6745 -45.5975  14.4937  14.7094  15.6367  16.9787
    17.7046  23.9704  25.0508  28.3074  33.3147

          k =-0.2000-1.0000 0.0000 (   884 PWs)   bands (ev):

   -85.2265 -45.7282 -45.6262 -45.6140  13.7318  14.2460  16.9662  17.5337
    17.9607  21.7255  27.3722  30.4874  31.2665

          k = 0.6000-0.2000 1.0000 (   896 PWs)   bands (ev):

   -85.2293 -45.6992 -45.6488 -45.5999  14.3746  14.8634  15.4113  17.0511
    17.6943  21.6955  27.9322  29.6014  31.6192

          k = 0.5000-0.1000 0.9000 (   890 PWs)   bands (ev):

   -85.2276 -45.6888 -45.6669 -45.6059  14.4939  15.0001  15.2898  16.9275
    17.8364  24.2749  25.1084  29.6678  30.3782

          k =-0.4000-1.0000 0.0000 (   890 PWs)   bands (ev):

   -85.2265 -45.6969 -45.6579 -45.6153  14.2678  14.7836  15.7024  17.0522
    17.9611  24.2726  27.2609  27.7880  29.4010

     the Fermi energy is    17.8016 ev

!    total energy              =    -339.60236087 Ry
     Harris-Foulkes estimate   =    -339.60236087 Ry
     estimated scf accuracy    <          1.7E-09 Ry

     The total energy is the sum of the following terms:

     one-electron contribution =    -186.69936200 Ry
     hartree contribution      =     104.81017878 Ry
     xc contribution           =     -34.32827130 Ry
     ewald contribution        =    -223.38275369 Ry
     smearing contrib. (-TS)   =      -0.00215266 Ry

     convergence has been achieved in   6 iterations

     Forces acting on atoms (cartesian axes, Ry/au):

     atom    1 type  1   force =     0.00000000    0.00000000    0.00000000

     Total force =     0.000000     Total SCF correction =     0.000000


     Computing stress (Cartesian axis) and pressure

          total   stress  (Ry/bohr**3)                   (kbar)     P=  -63.31
  -0.00043038   0.00000000  -0.00000000        -63.31      0.00     -0.00
  -0.00000000  -0.00043038  -0.00000000         -0.00    -63.31     -0.00
  -0.00000000   0.00000000  -0.00043038         -0.00      0.00    -63.31


     Writing output data file Ni.save/

     init_run     :      0.37s CPU      0.38s WALL (       1 calls)
     electrons    :      4.50s CPU      4.68s WALL (       1 calls)
     forces       :      0.06s CPU      0.06s WALL (       1 calls)
     stress       :      0.16s CPU      0.16s WALL (       1 calls)

     Called by init_run:
     wfcinit      :      0.19s CPU      0.20s WALL (       1 calls)
     potinit      :      0.01s CPU      0.01s WALL (       1 calls)
     hinit0       :      0.16s CPU      0.16s WALL (       1 calls)

     Called by electrons:
     c_bands      :      3.78s CPU      3.94s WALL (       7 calls)
     sum_band     :      0.65s CPU      0.66s WALL (       7 calls)
     v_of_rho     :      0.03s CPU      0.03s WALL (       7 calls)
     newd         :      0.05s CPU      0.05s WALL (       7 calls)
     mix_rho      :      0.00s CPU      0.00s WALL (       7 calls)

     Called by c_bands:
     init_us_2    :      0.09s CPU      0.09s WALL (     799 calls)
     cegterg      :      3.64s CPU      3.80s WALL (     329 calls)

     Called by sum_band:
     sum_band:bec :      0.00s CPU      0.00s WALL (     329 calls)
     addusdens    :      0.05s CPU      0.05s WALL (       7 calls)

     Called by *egterg:
     h_psi        :      2.81s CPU      2.93s WALL (    1169 calls)
     s_psi        :      0.08s CPU      0.09s WALL (    1169 calls)
     g_psi        :      0.01s CPU      0.01s WALL (     793 calls)
     cdiaghg      :      0.41s CPU      0.42s WALL (    1075 calls)

     Called by h_psi:
     h_psi:pot    :      2.80s CPU      2.92s WALL (    1169 calls)
     h_psi:calbec :      0.12s CPU      0.13s WALL (    1169 calls)
     vloc_psi     :      2.58s CPU      2.70s WALL (    1169 calls)
     add_vuspsi   :      0.08s CPU      0.09s WALL (    1169 calls)

     General routines
     calbec       :      0.19s CPU      0.20s WALL (    1733 calls)
     fft          :      0.02s CPU      0.02s WALL (     104 calls)
     ffts         :      0.00s CPU      0.00s WALL (       7 calls)
     fftw         :      2.88s CPU      3.00s WALL (   26205 calls)

     Parallel routines
     fft_scatt_xy :      0.24s CPU      0.25s WALL (   26316 calls)
     fft_scatt_yz :      0.75s CPU      0.77s WALL (   26316 calls)

     PWSCF        :     5.87s CPU         6.12s WALL


   This run was terminated on:  22:54:19  26Mar2024            

=------------------------------------------------------------------------------=
   JOB DONE.
=------------------------------------------------------------------------------=
