
     Program PWSCF v.6.3MaX starts on 26Mar2024 at 22:49:19 

     This program is part of the open-source Quantum ESPRESSO suite
     for quantum simulation of materials; please cite
         "P. Giannozzi et al., J. Phys.:Condens. Matter 21 395502 (2009);
         "P. Giannozzi et al., J. Phys.:Condens. Matter 29 465901 (2017);
          URL http://www.quantum-espresso.org", 
     in publications or presentations arising from this work. More details at
     http://www.quantum-espresso.org/quote

     Parallel version (MPI), running on     5 processors

     MPI processes distributed on     1 nodes
     R & G space division:  proc/nbgrp/npool/nimage =       5
     Waiting for input...
     Reading input from standard input

     Current dimensions of program PWSCF are:
     Max number of different atomic species (ntypx) = 10
     Max number of k-points (npk) =  40000
     Max angular momentum in pseudopotentials (lmaxx) =  3

     Subspace diagonalization in iterative solution of the eigenvalue problem:
     a serial algorithm will be used


     Parallelization info
     --------------------
     sticks:   dense  smooth     PW     G-vecs:    dense   smooth      PW
     Min          85      85     25                 1163     1163     192
     Max          87      87     26                 1164     1164     195
     Sum         433     433    127                 5817     5817     965



     bravais-lattice index     =            2
     lattice parameter (alat)  =       6.6500  a.u.
     unit-cell volume          =      73.5199 (a.u.)^3
     number of atoms/cell      =            1
     number of atomic types    =            1
     number of electrons       =        18.00
     number of Kohn-Sham states=           13
     kinetic-energy cutoff     =      70.0000  Ry
     charge density cutoff     =     280.0000  Ry
     convergence threshold     =      1.0E-08
     mixing beta               =       0.7000
     number of iterations used =            8  plain     mixing
     Exchange-correlation      = PBE ( 1  4  3  4 0 0)

     celldm(1)=   6.650000  celldm(2)=   0.000000  celldm(3)=   0.000000
     celldm(4)=   0.000000  celldm(5)=   0.000000  celldm(6)=   0.000000

     crystal axes: (cart. coord. in units of alat)
               a(1) = (  -0.500000   0.000000   0.500000 )  
               a(2) = (   0.000000   0.500000   0.500000 )  
               a(3) = (  -0.500000   0.500000   0.000000 )  

     reciprocal axes: (cart. coord. in units 2 pi/alat)
               b(1) = ( -1.000000 -1.000000  1.000000 )  
               b(2) = (  1.000000  1.000000  1.000000 )  
               b(3) = ( -1.000000  1.000000 -1.000000 )  


     PseudoPot. # 1 for Ni read from file:
     /home/lorenzo/pseudos/Ni/Ni.pbe-spn-rrkjus_psl.1.0.0.UPF
     MD5 check sum: 8b3fc9aac6dafe35f580d41bb18c3945
     Pseudo is Ultrasoft + core correction, Zval = 18.0
     Generated using "atomic" code by A. Dal Corso v.6.3
     Using radial grid of 1195 points,  6 beta functions with: 
                l(1) =   0
                l(2) =   0
                l(3) =   1
                l(4) =   1
                l(5) =   2
                l(6) =   2
     Q(r) pseudized with 0 coefficients 


     atomic species   valence    mass     pseudopotential
        Ni            18.00    58.69340     Ni( 1.00)

     48 Sym. Ops., with inversion, found



   Cartesian axes

     site n.     atom                  positions (alat units)
         1           Ni  tau(   1) = (   0.0000000   0.0000000   0.0000000  )

     number of k points=     3  gaussian smearing, width (Ry)=  0.0100
                       cart. coord. in units 2pi/alat
        k(    1) = (   0.0000000   0.0000000   0.0000000), wk =   0.2500000
        k(    2) = (   0.5000000  -0.5000000   0.5000000), wk =   1.0000000
        k(    3) = (   0.0000000  -1.0000000   0.0000000), wk =   0.7500000

     Dense  grid:     5817 G-vectors     FFT dimensions: (  25,  25,  25)

     Estimated max dynamical RAM per process >       5.85 MB

     Estimated total dynamical RAM >      29.23 MB

     Check: negative/imaginary core charge=   -0.000011    0.000000

     Initial potential from superposition of free atoms

     starting charge   17.99975, renormalised to   18.00000
     Starting wfcs are   10 randomized atomic wfcs +    3 random wfcs

     total cpu time spent up to now is        1.3 secs

     Self-consistent Calculation

     iteration #  1     ecut=    70.00 Ry     beta= 0.70
     Davidson diagonalization with overlap
     ethr =  1.00E-02,  avg # of iterations =  5.0

     Threshold (ethr) on eigenvalues was too large:
     Diagonalizing with lowered threshold

     Davidson diagonalization with overlap
     ethr =  4.70E-05,  avg # of iterations =  3.7

     total cpu time spent up to now is        1.5 secs

     total energy              =    -339.40555529 Ry
     Harris-Foulkes estimate   =    -339.40695869 Ry
     estimated scf accuracy    <       0.00846135 Ry

     iteration #  2     ecut=    70.00 Ry     beta= 0.70
     Davidson diagonalization with overlap
     ethr =  4.70E-05,  avg # of iterations =  2.7

     total cpu time spent up to now is        1.5 secs

     total energy              =    -339.40396924 Ry
     Harris-Foulkes estimate   =    -339.40589246 Ry
     estimated scf accuracy    <       0.00289480 Ry

     iteration #  3     ecut=    70.00 Ry     beta= 0.70
     Davidson diagonalization with overlap
     ethr =  1.61E-05,  avg # of iterations =  3.0

     total cpu time spent up to now is        1.6 secs

     total energy              =    -339.40524995 Ry
     Harris-Foulkes estimate   =    -339.40931335 Ry
     estimated scf accuracy    <       0.01592812 Ry

     iteration #  4     ecut=    70.00 Ry     beta= 0.70
     Davidson diagonalization with overlap
     ethr =  1.61E-05,  avg # of iterations =  2.3

     total cpu time spent up to now is        1.6 secs

     total energy              =    -339.40571065 Ry
     Harris-Foulkes estimate   =    -339.40611440 Ry
     estimated scf accuracy    <       0.00311631 Ry

     iteration #  5     ecut=    70.00 Ry     beta= 0.70
     Davidson diagonalization with overlap
     ethr =  1.61E-05,  avg # of iterations =  1.0

     total cpu time spent up to now is        1.7 secs

     total energy              =    -339.40568750 Ry
     Harris-Foulkes estimate   =    -339.40579928 Ry
     estimated scf accuracy    <       0.00057261 Ry

     iteration #  6     ecut=    70.00 Ry     beta= 0.70
     Davidson diagonalization with overlap
     ethr =  3.18E-06,  avg # of iterations =  1.3

     total cpu time spent up to now is        1.7 secs

     total energy              =    -339.40574998 Ry
     Harris-Foulkes estimate   =    -339.40578063 Ry
     estimated scf accuracy    <       0.00032317 Ry

     iteration #  7     ecut=    70.00 Ry     beta= 0.70
     Davidson diagonalization with overlap
     ethr =  1.80E-06,  avg # of iterations =  1.0

     total cpu time spent up to now is        1.8 secs

     total energy              =    -339.40576460 Ry
     Harris-Foulkes estimate   =    -339.40576444 Ry
     estimated scf accuracy    <       0.00000248 Ry

     iteration #  8     ecut=    70.00 Ry     beta= 0.70
     Davidson diagonalization with overlap
     ethr =  1.38E-08,  avg # of iterations =  2.7

     total cpu time spent up to now is        1.8 secs

     total energy              =    -339.40576420 Ry
     Harris-Foulkes estimate   =    -339.40576486 Ry
     estimated scf accuracy    <       0.00000639 Ry

     iteration #  9     ecut=    70.00 Ry     beta= 0.70
     Davidson diagonalization with overlap
     ethr =  1.38E-08,  avg # of iterations =  1.0

     total cpu time spent up to now is        1.8 secs

     total energy              =    -339.40576451 Ry
     Harris-Foulkes estimate   =    -339.40576450 Ry
     estimated scf accuracy    <       0.00000003 Ry

     iteration # 10     ecut=    70.00 Ry     beta= 0.70
     Davidson diagonalization with overlap
     ethr =  1.50E-10,  avg # of iterations =  2.0

     total cpu time spent up to now is        1.9 secs

     total energy              =    -339.40576449 Ry
     Harris-Foulkes estimate   =    -339.40576452 Ry
     estimated scf accuracy    <       0.00000040 Ry

     iteration # 11     ecut=    70.00 Ry     beta= 0.70
     Davidson diagonalization with overlap
     ethr =  1.50E-10,  avg # of iterations =  1.3

     total cpu time spent up to now is        1.9 secs

     total energy              =    -339.40576450 Ry
     Harris-Foulkes estimate   =    -339.40576450 Ry
     estimated scf accuracy    <       0.00000003 Ry

     iteration # 12     ecut=    70.00 Ry     beta= 0.70
     Davidson diagonalization with overlap
     ethr =  1.50E-10,  avg # of iterations =  1.0

     total cpu time spent up to now is        2.0 secs

     total energy              =    -339.40576450 Ry
     Harris-Foulkes estimate   =    -339.40576450 Ry
     estimated scf accuracy    <       0.00000003 Ry

     iteration # 13     ecut=    70.00 Ry     beta= 0.70
     Davidson diagonalization with overlap
     ethr =  1.44E-10,  avg # of iterations =  1.0

     total cpu time spent up to now is        2.0 secs

     total energy              =    -339.40576450 Ry
     Harris-Foulkes estimate   =    -339.40576450 Ry
     estimated scf accuracy    <       0.00000002 Ry

     iteration # 14     ecut=    70.00 Ry     beta= 0.70
     Davidson diagonalization with overlap
     ethr =  1.23E-10,  avg # of iterations =  1.0

     total cpu time spent up to now is        2.1 secs

     End of self-consistent calculation

          k = 0.0000 0.0000 0.0000 (   725 PWs)   bands (ev):

   -85.5257 -45.7752 -45.7752 -45.7752   8.8022  15.7037  15.7037  15.7037
    16.8547  16.8547  41.4285  45.4481  45.4481

          k = 0.5000-0.5000 0.5000 (   718 PWs)   bands (ev):

   -85.4919 -45.9939 -45.8070 -45.8070  13.1608  15.6909  15.6909  17.5404
    17.5605  17.5605  23.6612  40.0051  42.5245

          k = 0.0000-1.0000 0.0000 (   740 PWs)   bands (ev):

   -85.4814 -45.9826 -45.8579 -45.8579  13.3620  13.8770  17.5784  17.7193
    17.7193  20.2539  27.1792  32.6665  32.6665

     the Fermi energy is    17.6908 ev

!    total energy              =    -339.40576450 Ry
     Harris-Foulkes estimate   =    -339.40576450 Ry
     estimated scf accuracy    <          1.9E-10 Ry

     The total energy is the sum of the following terms:

     one-electron contribution =    -186.23535617 Ry
     hartree contribution      =     104.52943332 Ry
     xc contribution           =     -34.30888339 Ry
     ewald contribution        =    -223.38275369 Ry
     smearing contrib. (-TS)   =      -0.00820457 Ry

     convergence has been achieved in  14 iterations

     Forces acting on atoms (cartesian axes, Ry/au):

     atom    1 type  1   force =     0.00000000    0.00000000    0.00000000

     Total force =     0.000000     Total SCF correction =     0.000000


     Computing stress (Cartesian axis) and pressure

          total   stress  (Ry/bohr**3)                   (kbar)     P=  290.14
   0.00197233   0.00000000  -0.00000000        290.14      0.00     -0.00
   0.00000000   0.00197233   0.00000000          0.00    290.14      0.00
  -0.00000000   0.00000000   0.00197233         -0.00      0.00    290.14


     Writing output data file Ni.save/

     init_run     :      0.18s CPU      0.19s WALL (       1 calls)
     electrons    :      0.70s CPU      0.74s WALL (       1 calls)
     forces       :      0.02s CPU      0.02s WALL (       1 calls)
     stress       :      0.05s CPU      0.05s WALL (       1 calls)

     Called by init_run:
     wfcinit      :      0.01s CPU      0.01s WALL (       1 calls)
     potinit      :      0.01s CPU      0.01s WALL (       1 calls)
     hinit0       :      0.14s CPU      0.15s WALL (       1 calls)

     Called by electrons:
     c_bands      :      0.39s CPU      0.41s WALL (      15 calls)
     sum_band     :      0.18s CPU      0.18s WALL (      15 calls)
     v_of_rho     :      0.05s CPU      0.05s WALL (      15 calls)
     newd         :      0.10s CPU      0.10s WALL (      15 calls)
     mix_rho      :      0.01s CPU      0.01s WALL (      15 calls)

     Called by c_bands:
     init_us_2    :      0.01s CPU      0.01s WALL (      99 calls)
     cegterg      :      0.37s CPU      0.38s WALL (      45 calls)

     Called by sum_band:
     sum_band:bec :      0.00s CPU      0.00s WALL (      45 calls)
     addusdens    :      0.09s CPU      0.09s WALL (      15 calls)

     Called by *egterg:
     h_psi        :      0.28s CPU      0.29s WALL (     138 calls)
     s_psi        :      0.01s CPU      0.01s WALL (     138 calls)
     g_psi        :      0.00s CPU      0.00s WALL (      90 calls)
     cdiaghg      :      0.04s CPU      0.04s WALL (     132 calls)

     Called by h_psi:
     h_psi:pot    :      0.28s CPU      0.29s WALL (     138 calls)
     h_psi:calbec :      0.01s CPU      0.01s WALL (     138 calls)
     vloc_psi     :      0.26s CPU      0.27s WALL (     138 calls)
     add_vuspsi   :      0.01s CPU      0.01s WALL (     138 calls)

     General routines
     calbec       :      0.02s CPU      0.02s WALL (     198 calls)
     fft          :      0.03s CPU      0.04s WALL (     192 calls)
     ffts         :      0.00s CPU      0.00s WALL (      15 calls)
     fftw         :      0.30s CPU      0.31s WALL (    3225 calls)

     Parallel routines
     fft_scatt_xy :      0.02s CPU      0.02s WALL (    3432 calls)
     fft_scatt_yz :      0.11s CPU      0.12s WALL (    3432 calls)

     PWSCF        :     2.09s CPU         2.17s WALL


   This run was terminated on:  22:49:21  26Mar2024            

=------------------------------------------------------------------------------=
   JOB DONE.
=------------------------------------------------------------------------------=
