
     Program PWSCF v.6.3MaX starts on 26Mar2024 at 22:40:29 

     This program is part of the open-source Quantum ESPRESSO suite
     for quantum simulation of materials; please cite
         "P. Giannozzi et al., J. Phys.:Condens. Matter 21 395502 (2009);
         "P. Giannozzi et al., J. Phys.:Condens. Matter 29 465901 (2017);
          URL http://www.quantum-espresso.org", 
     in publications or presentations arising from this work. More details at
     http://www.quantum-espresso.org/quote

     Parallel version (MPI), running on     5 processors

     MPI processes distributed on     1 nodes
     R & G space division:  proc/nbgrp/npool/nimage =       5
     Waiting for input...
     Reading input from standard input

     Current dimensions of program PWSCF are:
     Max number of different atomic species (ntypx) = 10
     Max number of k-points (npk) =  40000
     Max angular momentum in pseudopotentials (lmaxx) =  3
               file Ni.pbesol-spn-kjpaw_psl.1.0.0.UPF: wavefunction(s)  3P 3D renormalized

     Subspace diagonalization in iterative solution of the eigenvalue problem:
     a serial algorithm will be used


     Parallelization info
     --------------------
     sticks:   dense  smooth     PW     G-vecs:    dense   smooth      PW
     Min          67      67     24                  803      803     164
     Max          68      68     25                  803      803     165
     Sum         337     337    121                 4015     4015     821



     bravais-lattice index     =            2
     lattice parameter (alat)  =       6.6500  a.u.
     unit-cell volume          =      73.5199 (a.u.)^3
     number of atoms/cell      =            1
     number of atomic types    =            1
     number of electrons       =        18.00
     number of Kohn-Sham states=           13
     kinetic-energy cutoff     =      55.0000  Ry
     charge density cutoff     =     220.0000  Ry
     convergence threshold     =      1.0E-08
     mixing beta               =       0.7000
     number of iterations used =            8  plain     mixing
     Exchange-correlation      = SLA PW PSX PSC ( 1  4 10  8 0 0)

     celldm(1)=   6.650000  celldm(2)=   0.000000  celldm(3)=   0.000000
     celldm(4)=   0.000000  celldm(5)=   0.000000  celldm(6)=   0.000000

     crystal axes: (cart. coord. in units of alat)
               a(1) = (  -0.500000   0.000000   0.500000 )  
               a(2) = (   0.000000   0.500000   0.500000 )  
               a(3) = (  -0.500000   0.500000   0.000000 )  

     reciprocal axes: (cart. coord. in units 2 pi/alat)
               b(1) = ( -1.000000 -1.000000  1.000000 )  
               b(2) = (  1.000000  1.000000  1.000000 )  
               b(3) = ( -1.000000  1.000000 -1.000000 )  


     PseudoPot. # 1 for Ni read from file:
     /home/lorenzo/pseudos/Ni/Ni.pbesol-spn-kjpaw_psl.1.0.0.UPF
     MD5 check sum: ef06ee83099c2673f0516457bd731f51
     Pseudo is Projector augmented-wave + core cor, Zval = 18.0
     Generated using "atomic" code by A. Dal Corso v.6.3
     Shape of augmentation charge: PSQ
     Using radial grid of 1195 points,  6 beta functions with: 
                l(1) =   0
                l(2) =   0
                l(3) =   1
                l(4) =   1
                l(5) =   2
                l(6) =   2
     Q(r) pseudized with 0 coefficients 


     atomic species   valence    mass     pseudopotential
        Ni            18.00    58.69340     Ni( 1.00)

     48 Sym. Ops., with inversion, found



   Cartesian axes

     site n.     atom                  positions (alat units)
         1           Ni  tau(   1) = (   0.0000000   0.0000000   0.0000000  )

     number of k points=    47  gaussian smearing, width (Ry)=  0.0100
                       cart. coord. in units 2pi/alat
        k(    1) = (   0.0000000   0.0000000   0.0000000), wk =   0.0020000
        k(    2) = (  -0.1000000   0.1000000  -0.1000000), wk =   0.0160000
        k(    3) = (  -0.2000000   0.2000000  -0.2000000), wk =   0.0160000
        k(    4) = (  -0.3000000   0.3000000  -0.3000000), wk =   0.0160000
        k(    5) = (  -0.4000000   0.4000000  -0.4000000), wk =   0.0160000
        k(    6) = (   0.5000000  -0.5000000   0.5000000), wk =   0.0080000
        k(    7) = (   0.0000000   0.2000000   0.0000000), wk =   0.0120000
        k(    8) = (  -0.1000000   0.3000000  -0.1000000), wk =   0.0480000
        k(    9) = (  -0.2000000   0.4000000  -0.2000000), wk =   0.0480000
        k(   10) = (  -0.3000000   0.5000000  -0.3000000), wk =   0.0480000
        k(   11) = (   0.6000000  -0.4000000   0.6000000), wk =   0.0480000
        k(   12) = (   0.5000000  -0.3000000   0.5000000), wk =   0.0480000
        k(   13) = (   0.4000000  -0.2000000   0.4000000), wk =   0.0480000
        k(   14) = (   0.3000000  -0.1000000   0.3000000), wk =   0.0480000
        k(   15) = (   0.2000000   0.0000000   0.2000000), wk =   0.0240000
        k(   16) = (   0.0000000   0.4000000   0.0000000), wk =   0.0120000
        k(   17) = (  -0.1000000   0.5000000  -0.1000000), wk =   0.0480000
        k(   18) = (  -0.2000000   0.6000000  -0.2000000), wk =   0.0480000
        k(   19) = (   0.7000000  -0.3000000   0.7000000), wk =   0.0480000
        k(   20) = (   0.6000000  -0.2000000   0.6000000), wk =   0.0480000
        k(   21) = (   0.5000000  -0.1000000   0.5000000), wk =   0.0480000
        k(   22) = (   0.4000000   0.0000000   0.4000000), wk =   0.0240000
        k(   23) = (   0.0000000   0.6000000   0.0000000), wk =   0.0120000
        k(   24) = (  -0.1000000   0.7000000  -0.1000000), wk =   0.0480000
        k(   25) = (   0.8000000  -0.2000000   0.8000000), wk =   0.0480000
        k(   26) = (   0.7000000  -0.1000000   0.7000000), wk =   0.0480000
        k(   27) = (   0.6000000  -0.0000000   0.6000000), wk =   0.0240000
        k(   28) = (   0.0000000   0.8000000   0.0000000), wk =   0.0120000
        k(   29) = (   0.9000000  -0.1000000   0.9000000), wk =   0.0480000
        k(   30) = (   0.8000000   0.0000000   0.8000000), wk =   0.0240000
        k(   31) = (   0.0000000  -1.0000000   0.0000000), wk =   0.0060000
        k(   32) = (  -0.2000000   0.4000000   0.0000000), wk =   0.0480000
        k(   33) = (  -0.3000000   0.5000000  -0.1000000), wk =   0.0960000
        k(   34) = (   0.6000000  -0.4000000   0.8000000), wk =   0.0960000
        k(   35) = (   0.5000000  -0.3000000   0.7000000), wk =   0.0480000
        k(   36) = (  -0.2000000   0.6000000   0.0000000), wk =   0.0480000
        k(   37) = (   0.7000000  -0.3000000   0.9000000), wk =   0.0960000
        k(   38) = (   0.6000000  -0.2000000   0.8000000), wk =   0.0960000
        k(   39) = (   0.5000000  -0.1000000   0.7000000), wk =   0.0960000
        k(   40) = (   0.4000000   0.0000000   0.6000000), wk =   0.0480000
        k(   41) = (   0.8000000  -0.2000000   1.0000000), wk =   0.0480000
        k(   42) = (   0.7000000  -0.1000000   0.9000000), wk =   0.0960000
        k(   43) = (   0.6000000   0.0000000   0.8000000), wk =   0.0480000
        k(   44) = (  -0.2000000  -1.0000000   0.0000000), wk =   0.0240000
        k(   45) = (   0.6000000  -0.2000000   1.0000000), wk =   0.0480000
        k(   46) = (   0.5000000  -0.1000000   0.9000000), wk =   0.0480000
        k(   47) = (  -0.4000000  -1.0000000   0.0000000), wk =   0.0240000

     Dense  grid:     4015 G-vectors     FFT dimensions: (  24,  24,  24)

     Estimated max dynamical RAM per process >       5.24 MB

     Estimated total dynamical RAM >      26.22 MB

     Check: negative/imaginary core charge=   -0.000009    0.000000

     Initial potential from superposition of free atoms

     starting charge   17.99977, renormalised to   18.00000
     Starting wfcs are   10 randomized atomic wfcs +    3 random wfcs
     Checking if some PAW data can be deallocated... 

     total cpu time spent up to now is        1.4 secs

     Self-consistent Calculation

     iteration #  1     ecut=    55.00 Ry     beta= 0.70
     Davidson diagonalization with overlap
     ethr =  1.00E-02,  avg # of iterations =  3.6

     Threshold (ethr) on eigenvalues was too large:
     Diagonalizing with lowered threshold

     Davidson diagonalization with overlap
     ethr =  1.20E-05,  avg # of iterations =  2.7

     total cpu time spent up to now is        2.7 secs

     total energy              =    -426.55735763 Ry
     Harris-Foulkes estimate   =    -426.55838421 Ry
     estimated scf accuracy    <       0.00215222 Ry

     iteration #  2     ecut=    55.00 Ry     beta= 0.70
     Davidson diagonalization with overlap
     ethr =  1.20E-05,  avg # of iterations =  2.1

     total cpu time spent up to now is        3.2 secs

     total energy              =    -426.55687146 Ry
     Harris-Foulkes estimate   =    -426.55883339 Ry
     estimated scf accuracy    <       0.00486036 Ry

     iteration #  3     ecut=    55.00 Ry     beta= 0.70
     Davidson diagonalization with overlap
     ethr =  1.20E-05,  avg # of iterations =  2.1

     total cpu time spent up to now is        3.7 secs

     total energy              =    -426.55788819 Ry
     Harris-Foulkes estimate   =    -426.55799595 Ry
     estimated scf accuracy    <       0.00034267 Ry

     iteration #  4     ecut=    55.00 Ry     beta= 0.70
     Davidson diagonalization with overlap
     ethr =  1.90E-06,  avg # of iterations =  1.4

     total cpu time spent up to now is        4.1 secs

     total energy              =    -426.55793844 Ry
     Harris-Foulkes estimate   =    -426.55793819 Ry
     estimated scf accuracy    <       0.00000026 Ry

     iteration #  5     ecut=    55.00 Ry     beta= 0.70
     Davidson diagonalization with overlap
     ethr =  1.42E-09,  avg # of iterations =  3.5

     total cpu time spent up to now is        4.7 secs

     total energy              =    -426.55793965 Ry
     Harris-Foulkes estimate   =    -426.55793970 Ry
     estimated scf accuracy    <       0.00000016 Ry

     iteration #  6     ecut=    55.00 Ry     beta= 0.70
     Davidson diagonalization with overlap
     ethr =  8.82E-10,  avg # of iterations =  1.0

     total cpu time spent up to now is        5.2 secs

     total energy              =    -426.55793965 Ry
     Harris-Foulkes estimate   =    -426.55793966 Ry
     estimated scf accuracy    <       0.00000002 Ry

     iteration #  7     ecut=    55.00 Ry     beta= 0.70
     Davidson diagonalization with overlap
     ethr =  1.15E-10,  avg # of iterations =  1.5

     total cpu time spent up to now is        5.6 secs

     End of self-consistent calculation

          k = 0.0000 0.0000 0.0000 (   531 PWs)   bands (ev):

   -85.1629 -45.5612 -45.5612 -45.5612   8.6221  15.7289  15.7289  15.7289
    16.8548  16.8548  41.2805  45.2042  45.2042

          k =-0.1000 0.1000-0.1000 (   528 PWs)   bands (ev):

   -85.1596 -45.5795 -45.5638 -45.5638   9.0132  15.6254  15.8131  15.8131
    16.8219  16.8219  39.5636  42.5913  44.4016

          k =-0.2000 0.2000-0.2000 (   516 PWs)   bands (ev):

   -85.1506 -45.6306 -45.5696 -45.5696  10.1251  15.4070  15.9418  15.9418
    16.8431  16.8431  34.6550  41.8152  43.3890

          k =-0.3000 0.3000-0.3000 (   510 PWs)   bands (ev):

   -85.1398 -45.7008 -45.5773 -45.5773  11.6760  15.3933  15.8869  15.8869
    17.1137  17.1137  29.7931  40.9159  42.7242

          k =-0.4000 0.4000-0.4000 (   498 PWs)   bands (ev):

   -85.1308 -45.7558 -45.5808 -45.5808  12.8382  15.7516  15.7516  16.2673
    17.4530  17.4530  25.6748  40.1007  42.4051

          k = 0.5000-0.5000 0.5000 (   502 PWs)   bands (ev):

   -85.1276 -45.7756 -45.5859 -45.5859  13.1107  15.6902  15.6902  17.3314
    17.5978  17.5978  23.6274  39.7858  42.3301

          k = 0.0000 0.2000 0.0000 (   524 PWs)   bands (ev):

   -85.1583 -45.5765 -45.5683 -45.5683   9.1433  15.5365  15.8783  15.8783
    16.6828  16.9229  40.3567  42.2477  42.2477

          k =-0.1000 0.3000-0.1000 (   511 PWs)   bands (ev):

   -85.1511 -45.6148 -45.5746 -45.5712  10.0147  15.3151  16.0143  16.0423
    16.5884  17.0020  36.5996  40.6619  40.7254

          k =-0.2000 0.4000-0.2000 (   507 PWs)   bands (ev):

   -85.1410 -45.6782 -45.5824 -45.5805  11.4425  15.1487  15.8779  16.0711
    16.9484  17.2229  31.6023  39.7046  39.8778

          k =-0.3000 0.5000-0.3000 (   506 PWs)   bands (ev):

   -85.1317 -45.7371 -45.5921 -45.5894  12.8135  15.4100  15.6955  15.9527
    17.5082  17.7123  27.1275  38.9133  39.4476

          k = 0.6000-0.4000 0.6000 (   504 PWs)   bands (ev):

   -85.1266 -45.7659 -45.6008 -45.5914  13.3126  15.4952  15.8488  16.2239
    17.6076  18.8349  23.9815  37.9072  40.0044

          k = 0.5000-0.3000 0.5000 (   504 PWs)   bands (ev):

   -85.1277 -45.7604 -45.6024 -45.5866  13.2403  15.5514  15.8506  16.0765
    17.4124  18.5815  24.7738  37.1994  41.4495

          k = 0.4000-0.2000 0.4000 (   510 PWs)   bands (ev):

   -85.1347 -45.7203 -45.5996 -45.5786  12.4401  15.3285  15.7369  15.9677
    17.0029  17.7627  28.5434  37.0571  42.1307

          k = 0.3000-0.1000 0.3000 (   507 PWs)   bands (ev):

   -85.1446 -45.6553 -45.5871 -45.5686  10.9310  15.2336  15.9175  16.0910
    16.6276  17.2426  33.2391  37.5117  43.8542

          k = 0.2000 0.0000 0.2000 (   519 PWs)   bands (ev):

   -85.1542 -45.6030 -45.5752 -45.5645   9.6467  15.4508  15.9297  15.9449
    16.6531  16.9456  37.9032  38.9460  44.2594

          k = 0.0000 0.4000 0.0000 (   520 PWs)   bands (ev):

   -85.1468 -45.6297 -45.5877 -45.5877  10.5975  15.0494  16.2971  16.3034
    16.3034  17.1030  38.5769  38.5769  39.0112

          k =-0.1000 0.5000-0.1000 (   508 PWs)   bands (ev):

   -85.1382 -45.6716 -45.5976 -45.5962  11.7506  14.7966  15.9494  16.4753
    16.9049  17.2851  33.8915  37.2196  37.9659

          k =-0.2000 0.6000-0.2000 (   509 PWs)   bands (ev):

   -85.1296 -45.7201 -45.6151 -45.6038  13.0487  14.7214  15.6476  16.4147
    17.5513  18.0185  29.1956  35.9277  36.6977

          k = 0.7000-0.3000 0.7000 (   510 PWs)   bands (ev):

   -85.1239 -45.7469 -45.6337 -45.6062  13.7585  14.8727  15.6253  16.2872
    17.6336  19.8694  25.2347  34.1251  37.1149

          k = 0.6000-0.2000 0.6000 (   513 PWs)   bands (ev):

   -85.1234 -45.7495 -45.6441 -45.6007  13.8899  15.0198  15.6214  16.2165
    17.4116  20.6123  24.3198  32.8853  38.4840

          k = 0.5000-0.1000 0.5000 (   507 PWs)   bands (ev):

   -85.1278 -45.7240 -45.6402 -45.5887  13.5076  15.1354  15.3469  16.2549
    16.9669  18.9927  27.8204  32.3560  40.6764

          k = 0.4000 0.0000 0.4000 (   509 PWs)   bands (ev):

   -85.1360 -45.6898 -45.6195 -45.5762  12.2558  15.0363  15.6827  16.3837
    16.4931  17.9258  32.0088  32.8827  42.9239

          k = 0.0000 0.6000 0.0000 (   508 PWs)   bands (ev):

   -85.1322 -45.6953 -45.6104 -45.6104  12.4368  14.4775  16.3367  16.9186
    16.9186  17.3304  35.1296  35.4415  35.4415

          k =-0.1000 0.7000-0.1000 (   503 PWs)   bands (ev):

   -85.1253 -45.7246 -45.6262 -45.6176  13.1861  14.2956  16.3109  17.0089
    17.5596  18.0514  31.6688  32.7553  34.5513

          k = 0.8000-0.2000 0.8000 (   506 PWs)   bands (ev):

   -85.1203 -45.7380 -45.6534 -45.6222  13.7626  14.3193  16.0125  16.8853
    17.6693  20.3148  27.5071  30.6510  34.7020

          k = 0.7000-0.1000 0.7000 (   507 PWs)   bands (ev):

   -85.1190 -45.7297 -45.6832 -45.6139  14.2098  14.4620  15.6429  16.7342
    17.4707  22.9317  24.3218  29.2450  35.9000

          k = 0.6000-0.0000 0.6000 (   512 PWs)   bands (ev):

   -85.1220 -45.7191 -45.6838 -45.6035  14.2875  14.8141  15.2085  16.5548
    17.1310  20.8876  26.8041  29.0529  37.9735

          k = 0.0000 0.8000 0.0000 (   496 PWs)   bands (ev):

   -85.1204 -45.7442 -45.6292 -45.6292  13.2381  14.0368  17.5174  17.5174
    17.5175  18.1749  29.9614  33.2586  33.2586

          k = 0.9000-0.1000 0.9000 (   494 PWs)   bands (ev):

   -85.1171 -45.7532 -45.6440 -45.6317  13.4182  13.9972  17.0988  17.4134
    17.7171  20.2739  28.0447  30.4980  33.0538

          k = 0.8000 0.0000 0.8000 (   494 PWs)   bands (ev):

   -85.1164 -45.7412 -45.6693 -45.6252  13.7794  14.1795  16.3452  17.1865
    17.6073  22.5528  26.6019  27.6822  33.9961

          k = 0.0000-1.0000 0.0000 (   492 PWs)   bands (ev):

   -85.1160 -45.7627 -45.6357 -45.6357  13.2770  13.8732  17.5906  17.7790
    17.7790  20.0744  27.0924  32.4574  32.4574

          k =-0.2000 0.4000 0.0000 (   508 PWs)   bands (ev):

   -85.1435 -45.6492 -45.5946 -45.5768  11.0492  15.0713  15.9312  16.3203
    16.5502  17.2696  35.1034  35.7884  41.7126

          k =-0.3000 0.5000-0.1000 (   514 PWs)   bands (ev):

   -85.1344 -45.7021 -45.6151 -45.5868  12.4751  14.9435  15.6327  16.3283
    16.9257  17.8787  30.5136  34.8439  39.3860

          k = 0.6000-0.4000 0.8000 (   510 PWs)   bands (ev):

   -85.1268 -45.7419 -45.6259 -45.5959  13.5121  15.1349  15.4959  16.1891
    17.3814  19.0320  26.2543  34.8435  37.3815

          k = 0.5000-0.3000 0.7000 (   506 PWs)   bands (ev):

   -85.1238 -45.7570 -45.6286 -45.5980  13.7401  15.1218  15.7674  16.1135
    17.5365  20.3402  23.8273  35.2235  36.3075

          k =-0.2000 0.6000 0.0000 (   507 PWs)   bands (ev):

   -85.1307 -45.7034 -45.6196 -45.6046  12.8034  14.5798  15.7601  16.9187
    16.9817  17.8833  32.6919  33.2503  35.8682

          k = 0.7000-0.3000 0.9000 (   501 PWs)   bands (ev):

   -85.1237 -45.7265 -45.6426 -45.6116  13.7295  14.5597  15.5089  16.7771
    17.4302  19.3623  28.4638  32.7112  33.6951

          k = 0.6000-0.2000 0.8000 (   500 PWs)   bands (ev):

   -85.1201 -45.7345 -45.6613 -45.6138  14.2044  14.6076  15.4383  16.5881
    17.5475  21.7192  24.7720  31.6644  33.6465

          k = 0.5000-0.1000 0.7000 (   508 PWs)   bands (ev):

   -85.1214 -45.7292 -45.6685 -45.6091  14.2761  14.7573  15.2194  16.5447
    17.3399  21.0580  25.8272  30.6478  35.0038

          k = 0.4000 0.0000 0.6000 (   511 PWs)   bands (ev):

   -85.1268 -45.7172 -45.6496 -45.5977  13.6620  14.8606  15.2274  16.6138
    16.9520  19.0981  29.4937  30.7606  36.9893

          k = 0.8000-0.2000 1.0000 (   499 PWs)   bands (ev):

   -85.1201 -45.7385 -45.6412 -45.6287  13.5357  14.1929  16.3312  17.3358
    17.5150  19.5957  30.2014  30.9332  31.7713

          k = 0.7000-0.1000 0.9000 (   501 PWs)   bands (ev):

   -85.1173 -45.7362 -45.6684 -45.6308  13.8912  14.3141  15.9577  17.0647
    17.6688  22.1116  27.1991  28.6386  31.8514

          k = 0.6000 0.0000 0.8000 (   503 PWs)   bands (ev):

   -85.1177 -45.7121 -45.6998 -45.6215  14.3055  14.5121  15.4403  16.8032
    17.5213  23.7744  24.8400  28.1381  33.1088

          k =-0.2000-1.0000 0.0000 (   494 PWs)   bands (ev):

   -85.1160 -45.7517 -45.6497 -45.6377  13.5411  14.0482  16.7747  17.3617
    17.7794  21.5118  27.2106  30.2650  31.0629

          k = 0.6000-0.2000 1.0000 (   503 PWs)   bands (ev):

   -85.1191 -45.7228 -45.6745 -45.6252  14.1831  14.6662  15.2167  16.8760
    17.5109  21.5049  27.7190  29.4139  31.4330

          k = 0.5000-0.1000 0.9000 (   510 PWs)   bands (ev):

   -85.1175 -45.7164 -45.6924 -45.6338  14.3045  14.8022  15.0931  16.7506
    17.6534  24.0700  24.9115  29.4672  30.1991

          k =-0.4000-1.0000 0.0000 (   506 PWs)   bands (ev):

   -85.1163 -45.7231 -45.6838 -45.6422  14.0779  14.5861  15.5060  16.8768
    17.7789  24.0607  27.0464  27.6059  29.2285

     the Fermi energy is    17.6219 ev

!    total energy              =    -426.55793965 Ry
     Harris-Foulkes estimate   =    -426.55793965 Ry
     estimated scf accuracy    <          8.8E-10 Ry

     total all-electron energy =     -3039.016284 Ry

     The total energy is the sum of the following terms:

     one-electron contribution =    -184.96551585 Ry
     hartree contribution      =     104.55695246 Ry
     xc contribution           =     -33.92286035 Ry
     ewald contribution        =    -223.38275374 Ry
     one-center paw contrib.   =     -88.84160144 Ry
     smearing contrib. (-TS)   =      -0.00216073 Ry

     convergence has been achieved in   7 iterations

     Forces acting on atoms (cartesian axes, Ry/au):

     atom    1 type  1   force =     0.00000000    0.00000000    0.00000000

     Total force =     0.000000     Total SCF correction =     0.000000


     Computing stress (Cartesian axis) and pressure

          total   stress  (Ry/bohr**3)                   (kbar)     P= -282.59
  -0.00192099  -0.00000000   0.00000000       -282.59     -0.00      0.00
   0.00000000  -0.00192099   0.00000000          0.00   -282.59      0.00
   0.00000000   0.00000000  -0.00192099          0.00      0.00   -282.59


     Writing output data file Ni.save/

     init_run     :      0.64s CPU      0.68s WALL (       1 calls)
     electrons    :      3.85s CPU      4.17s WALL (       1 calls)
     forces       :      0.03s CPU      0.04s WALL (       1 calls)
     stress       :      0.10s CPU      0.10s WALL (       1 calls)

     Called by init_run:
     wfcinit      :      0.25s CPU      0.26s WALL (       1 calls)
     potinit      :      0.14s CPU      0.16s WALL (       1 calls)
     hinit0       :      0.23s CPU      0.23s WALL (       1 calls)

     Called by electrons:
     c_bands      :      2.76s CPU      2.94s WALL (       8 calls)
     sum_band     :      0.44s CPU      0.47s WALL (       8 calls)
     v_of_rho     :      0.02s CPU      0.02s WALL (       8 calls)
     newd         :      0.03s CPU      0.04s WALL (       8 calls)
     PAW_pot      :      0.73s CPU      0.85s WALL (       8 calls)
     mix_rho      :      0.00s CPU      0.00s WALL (       8 calls)

     Called by c_bands:
     init_us_2    :      0.06s CPU      0.06s WALL (     893 calls)
     cegterg      :      2.67s CPU      2.84s WALL (     376 calls)

     Called by sum_band:
     sum_band:bec :      0.00s CPU      0.00s WALL (     376 calls)
     addusdens    :      0.03s CPU      0.03s WALL (       8 calls)

     Called by *egterg:
     h_psi        :      2.03s CPU      2.15s WALL (    1256 calls)
     s_psi        :      0.05s CPU      0.06s WALL (    1256 calls)
     g_psi        :      0.01s CPU      0.01s WALL (     833 calls)
     cdiaghg      :      0.42s CPU      0.44s WALL (    1162 calls)

     Called by h_psi:
     h_psi:pot    :      2.02s CPU      2.14s WALL (    1256 calls)
     h_psi:calbec :      0.09s CPU      0.10s WALL (    1256 calls)
     vloc_psi     :      1.86s CPU      1.97s WALL (    1256 calls)
     add_vuspsi   :      0.06s CPU      0.06s WALL (    1256 calls)

     General routines
     calbec       :      0.13s CPU      0.14s WALL (    1867 calls)
     fft          :      0.02s CPU      0.02s WALL (     115 calls)
     ffts         :      0.00s CPU      0.00s WALL (       8 calls)
     fftw         :      2.04s CPU      2.16s WALL (   29656 calls)

     Parallel routines
     fft_scatt_xy :      0.18s CPU      0.19s WALL (   29779 calls)
     fft_scatt_yz :      0.68s CPU      0.71s WALL (   29779 calls)

     PWSCF        :     5.43s CPU         5.83s WALL


   This run was terminated on:  22:40:35  26Mar2024            

=------------------------------------------------------------------------------=
   JOB DONE.
=------------------------------------------------------------------------------=
