
     Program PWSCF v.6.3MaX starts on 26Mar2024 at 22:29:25 

     This program is part of the open-source Quantum ESPRESSO suite
     for quantum simulation of materials; please cite
         "P. Giannozzi et al., J. Phys.:Condens. Matter 21 395502 (2009);
         "P. Giannozzi et al., J. Phys.:Condens. Matter 29 465901 (2017);
          URL http://www.quantum-espresso.org", 
     in publications or presentations arising from this work. More details at
     http://www.quantum-espresso.org/quote

     Parallel version (MPI), running on     5 processors

     MPI processes distributed on     1 nodes
     R & G space division:  proc/nbgrp/npool/nimage =       5
     Waiting for input...
     Reading input from standard input

     Current dimensions of program PWSCF are:
     Max number of different atomic species (ntypx) = 10
     Max number of k-points (npk) =  40000
     Max angular momentum in pseudopotentials (lmaxx) =  3

     Subspace diagonalization in iterative solution of the eigenvalue problem:
     a serial algorithm will be used


     Parallelization info
     --------------------
     sticks:   dense  smooth     PW     G-vecs:    dense   smooth      PW
     Min          30      30     12                  248      248      61
     Max          31      31     13                  250      250      62
     Sum         151     151     61                 1243     1243     307



     bravais-lattice index     =            2
     lattice parameter (alat)  =       6.6500  a.u.
     unit-cell volume          =      73.5199 (a.u.)^3
     number of atoms/cell      =            1
     number of atomic types    =            1
     number of electrons       =        18.00
     number of Kohn-Sham states=           13
     kinetic-energy cutoff     =      25.0000  Ry
     charge density cutoff     =     100.0000  Ry
     convergence threshold     =      1.0E-08
     mixing beta               =       0.7000
     number of iterations used =            8  plain     mixing
     Exchange-correlation      = PBE ( 1  4  3  4 0 0)

     celldm(1)=   6.650000  celldm(2)=   0.000000  celldm(3)=   0.000000
     celldm(4)=   0.000000  celldm(5)=   0.000000  celldm(6)=   0.000000

     crystal axes: (cart. coord. in units of alat)
               a(1) = (  -0.500000   0.000000   0.500000 )  
               a(2) = (   0.000000   0.500000   0.500000 )  
               a(3) = (  -0.500000   0.500000   0.000000 )  

     reciprocal axes: (cart. coord. in units 2 pi/alat)
               b(1) = ( -1.000000 -1.000000  1.000000 )  
               b(2) = (  1.000000  1.000000  1.000000 )  
               b(3) = ( -1.000000  1.000000 -1.000000 )  


     PseudoPot. # 1 for Ni read from file:
     /home/lorenzo/pseudos/Ni/Ni.pbe-spn-rrkjus_psl.1.0.0.UPF
     MD5 check sum: 8b3fc9aac6dafe35f580d41bb18c3945
     Pseudo is Ultrasoft + core correction, Zval = 18.0
     Generated using "atomic" code by A. Dal Corso v.6.3
     Using radial grid of 1195 points,  6 beta functions with: 
                l(1) =   0
                l(2) =   0
                l(3) =   1
                l(4) =   1
                l(5) =   2
                l(6) =   2
     Q(r) pseudized with 0 coefficients 


     atomic species   valence    mass     pseudopotential
        Ni            18.00    58.69340     Ni( 1.00)

     48 Sym. Ops., with inversion, found



   Cartesian axes

     site n.     atom                  positions (alat units)
         1           Ni  tau(   1) = (   0.0000000   0.0000000   0.0000000  )

     number of k points=    29  gaussian smearing, width (Ry)=  0.0100
                       cart. coord. in units 2pi/alat
        k(    1) = (   0.0000000   0.0000000   0.0000000), wk =   0.0039062
        k(    2) = (  -0.1250000   0.1250000  -0.1250000), wk =   0.0312500
        k(    3) = (  -0.2500000   0.2500000  -0.2500000), wk =   0.0312500
        k(    4) = (  -0.3750000   0.3750000  -0.3750000), wk =   0.0312500
        k(    5) = (   0.5000000  -0.5000000   0.5000000), wk =   0.0156250
        k(    6) = (   0.0000000   0.2500000   0.0000000), wk =   0.0234375
        k(    7) = (  -0.1250000   0.3750000  -0.1250000), wk =   0.0937500
        k(    8) = (  -0.2500000   0.5000000  -0.2500000), wk =   0.0937500
        k(    9) = (   0.6250000  -0.3750000   0.6250000), wk =   0.0937500
        k(   10) = (   0.5000000  -0.2500000   0.5000000), wk =   0.0937500
        k(   11) = (   0.3750000  -0.1250000   0.3750000), wk =   0.0937500
        k(   12) = (   0.2500000   0.0000000   0.2500000), wk =   0.0468750
        k(   13) = (   0.0000000   0.5000000   0.0000000), wk =   0.0234375
        k(   14) = (  -0.1250000   0.6250000  -0.1250000), wk =   0.0937500
        k(   15) = (   0.7500000  -0.2500000   0.7500000), wk =   0.0937500
        k(   16) = (   0.6250000  -0.1250000   0.6250000), wk =   0.0937500
        k(   17) = (   0.5000000   0.0000000   0.5000000), wk =   0.0468750
        k(   18) = (   0.0000000   0.7500000   0.0000000), wk =   0.0234375
        k(   19) = (   0.8750000  -0.1250000   0.8750000), wk =   0.0937500
        k(   20) = (   0.7500000   0.0000000   0.7500000), wk =   0.0468750
        k(   21) = (   0.0000000  -1.0000000   0.0000000), wk =   0.0117188
        k(   22) = (  -0.2500000   0.5000000   0.0000000), wk =   0.0937500
        k(   23) = (   0.6250000  -0.3750000   0.8750000), wk =   0.1875000
        k(   24) = (   0.5000000  -0.2500000   0.7500000), wk =   0.0937500
        k(   25) = (   0.7500000  -0.2500000   1.0000000), wk =   0.0937500
        k(   26) = (   0.6250000  -0.1250000   0.8750000), wk =   0.1875000
        k(   27) = (   0.5000000   0.0000000   0.7500000), wk =   0.0937500
        k(   28) = (  -0.2500000  -1.0000000   0.0000000), wk =   0.0468750
        k(   29) = (  -0.5000000  -1.0000000   0.0000000), wk =   0.0234375

     Dense  grid:     1243 G-vectors     FFT dimensions: (  15,  15,  15)

     Estimated max dynamical RAM per process >       1.95 MB

     Estimated total dynamical RAM >       9.77 MB

     Check: negative/imaginary core charge=   -0.000244    0.000000

     Initial potential from superposition of free atoms
     Check: negative starting charge=   -0.002907

     starting charge   17.99975, renormalised to   18.00000

     negative rho (up, down):  2.907E-03 0.000E+00
     Starting wfcs are   10 randomized atomic wfcs +    3 random wfcs

     total cpu time spent up to now is        0.8 secs

     Self-consistent Calculation

     iteration #  1     ecut=    25.00 Ry     beta= 0.70
     Davidson diagonalization with overlap
     ethr =  1.00E-02,  avg # of iterations =  4.1

     total cpu time spent up to now is        1.0 secs

     total energy              =    -324.14671316 Ry
     Harris-Foulkes estimate   =    -329.94738413 Ry
     estimated scf accuracy    <       7.22192513 Ry

     iteration #  2     ecut=    25.00 Ry     beta= 0.70
     Davidson diagonalization with overlap
     ethr =  1.00E-02,  avg # of iterations =  2.1

     total cpu time spent up to now is        1.2 secs

     total energy              =    -326.50260889 Ry
     Harris-Foulkes estimate   =    -331.05612269 Ry
     estimated scf accuracy    <       9.55529392 Ry

     iteration #  3     ecut=    25.00 Ry     beta= 0.70
     Davidson diagonalization with overlap
     ethr =  1.00E-02,  avg # of iterations =  2.0

     negative rho (up, down):  7.177E-04 0.000E+00

     total cpu time spent up to now is        1.3 secs

     total energy              =    -327.63599602 Ry
     Harris-Foulkes estimate   =    -327.72001609 Ry
     estimated scf accuracy    <       0.13056417 Ry

     iteration #  4     ecut=    25.00 Ry     beta= 0.70
     Davidson diagonalization with overlap
     ethr =  7.25E-04,  avg # of iterations =  2.0

     negative rho (up, down):  1.733E-04 0.000E+00

     total cpu time spent up to now is        1.4 secs

     total energy              =    -327.66392243 Ry
     Harris-Foulkes estimate   =    -327.72456356 Ry
     estimated scf accuracy    <       0.18671361 Ry

     iteration #  5     ecut=    25.00 Ry     beta= 0.70
     Davidson diagonalization with overlap
     ethr =  7.25E-04,  avg # of iterations =  1.4

     total cpu time spent up to now is        1.5 secs

     total energy              =    -327.67652605 Ry
     Harris-Foulkes estimate   =    -327.68106931 Ry
     estimated scf accuracy    <       0.01207404 Ry

     iteration #  6     ecut=    25.00 Ry     beta= 0.70
     Davidson diagonalization with overlap
     ethr =  6.71E-05,  avg # of iterations =  1.2

     total cpu time spent up to now is        1.6 secs

     total energy              =    -327.67809770 Ry
     Harris-Foulkes estimate   =    -327.67811653 Ry
     estimated scf accuracy    <       0.00006086 Ry

     iteration #  7     ecut=    25.00 Ry     beta= 0.70
     Davidson diagonalization with overlap
     ethr =  3.38E-07,  avg # of iterations =  1.7

     total cpu time spent up to now is        1.7 secs

     total energy              =    -327.67810504 Ry
     Harris-Foulkes estimate   =    -327.67810532 Ry
     estimated scf accuracy    <       0.00000205 Ry

     iteration #  8     ecut=    25.00 Ry     beta= 0.70
     Davidson diagonalization with overlap
     ethr =  1.14E-08,  avg # of iterations =  1.1

     total cpu time spent up to now is        1.8 secs

     total energy              =    -327.67810486 Ry
     Harris-Foulkes estimate   =    -327.67810513 Ry
     estimated scf accuracy    <       0.00000067 Ry

     iteration #  9     ecut=    25.00 Ry     beta= 0.70
     Davidson diagonalization with overlap
     ethr =  3.71E-09,  avg # of iterations =  1.6

     total cpu time spent up to now is        1.9 secs

     total energy              =    -327.67810499 Ry
     Harris-Foulkes estimate   =    -327.67810499 Ry
     estimated scf accuracy    <       0.00000001 Ry

     iteration # 10     ecut=    25.00 Ry     beta= 0.70
     Davidson diagonalization with overlap
     ethr =  6.25E-11,  avg # of iterations =  1.4

     total cpu time spent up to now is        2.0 secs

     End of self-consistent calculation

          k = 0.0000 0.0000 0.0000 (   169 PWs)   bands (ev):

   -99.1381 -48.7749 -48.7749 -48.7749   9.9616  13.0465  13.0465  14.3188
    14.3188  14.3188  42.6954  46.1301  46.4131

          k =-0.1250 0.1250-0.1250 (   159 PWs)   bands (ev):

   -98.8768 -46.9646 -46.9646 -45.3462  10.6323  15.0525  15.0525  16.0327
    17.4632  17.4632  38.8820  43.7287  44.3520

          k =-0.2500 0.2500-0.2500 (   150 PWs)   bands (ev):

   -98.6685 -45.1767 -45.1767 -42.5059  12.3978  16.9903  16.9903  18.7321
    19.8287  19.8287  33.9619  42.7388  43.5535

          k =-0.3750 0.3750-0.3750 (   153 PWs)   bands (ev):

   -98.7136 -45.5456 -45.5456 -43.6267  14.7378  16.6675  16.6675  17.4890
    19.0529  19.0529  29.0177  41.6996  43.1575

          k = 0.5000-0.5000 0.5000 (   156 PWs)   bands (ev):

   -98.7546 -46.9416 -44.8203 -44.8203  12.6316  17.2866  17.2866  18.3885
    19.4747  19.4747  22.7063  41.2059  43.5090

          k = 0.0000 0.2500 0.0000 (   161 PWs)   bands (ev):

   -98.9242 -47.6961 -47.6961 -45.3287  10.7547  13.2615  15.5902  16.3873
    16.6754  16.6754  40.3281  41.7047  41.7047

          k =-0.1250 0.3750-0.1250 (   157 PWs)   bands (ev):

   -98.8127 -47.0874 -46.3636 -44.2440  12.0593  15.1337  15.5213  16.9478
    17.7276  18.4531  35.5507  40.1579  40.4609

          k =-0.2500 0.5000-0.2500 (   151 PWs)   bands (ev):

   -98.6618 -45.3407 -44.9507 -42.8778  14.3042  16.1161  17.7644  17.9988
    19.8321  20.0776  30.8970  39.2785  39.8730

          k = 0.6250-0.3750 0.6250 (   157 PWs)   bands (ev):

   -98.7616 -46.6796 -45.2019 -45.0968  13.5273  16.8760  17.0373  17.1801
    18.4356  19.5388  24.8091  37.7716  40.1620

          k = 0.5000-0.2500 0.5000 (   154 PWs)   bands (ev):

   -98.7056 -45.4635 -45.0723 -44.4434  14.4678  16.9567  17.2257  17.5332
    18.6583  19.9299  27.1758  37.0875  42.1715

          k = 0.3750-0.1250 0.3750 (   150 PWs)   bands (ev):

   -98.6474 -45.1020 -44.9584 -42.4986  13.5404  16.3172  17.6685  18.4341
    19.6404  20.9390  32.5996  36.9117  44.2347

          k = 0.2500 0.0000 0.2500 (   157 PWs)   bands (ev):

   -98.8314 -46.6830 -46.3808 -44.8106  11.5671  15.2122  16.0692  16.6708
    17.1755  18.3720  36.8195  38.3540  46.0763

          k = 0.0000 0.5000 0.0000 (   149 PWs)   bands (ev):

   -98.6093 -44.4165 -44.4165 -42.7180  13.0935  16.2460  19.0189  19.3212
    20.1755  20.1755  38.2146  38.2146  38.3186

          k =-0.1250 0.6250-0.1250 (   153 PWs)   bands (ev):

   -98.6663 -45.9462 -45.2287 -42.9558  14.5001  15.9622  16.2175  18.3343
    19.5593  20.3669  33.2368  35.9706  36.9177

          k = 0.7500-0.2500 0.7500 (   154 PWs)   bands (ev):

   -98.6653 -46.0700 -44.3073 -44.0528  14.1058  16.5882  17.8579  18.2832
    20.0419  20.2771  27.8337  33.3246  37.3841

          k = 0.6250-0.1250 0.6250 (   156 PWs)   bands (ev):

   -98.7055 -45.7983 -45.5361 -44.4202  14.8025  16.6550  17.0713  17.2249
    17.9123  22.0865  26.2904  31.9941  38.8058

          k = 0.5000 0.0000 0.5000 (   156 PWs)   bands (ev):

   -98.7391 -46.1328 -45.0695 -45.0598  13.8605  16.0462  16.5836  17.9003
    18.4132  18.5781  31.6803  31.8644  41.5122

          k = 0.0000 0.7500 0.0000 (   154 PWs)   bands (ev):

   -98.6565 -44.9712 -44.9712 -44.3543  15.2304  15.8213  18.2158  18.3379
    19.4179  19.4179  32.4125  35.1424  35.1424

          k = 0.8750-0.1250 0.8750 (   154 PWs)   bands (ev):

   -98.6306 -45.1968 -44.7566 -44.0066  15.1897  16.6339  17.6723  18.5245
    19.6394  21.9208  29.3429  31.3410  34.4223

          k = 0.7500 0.0000 0.7500 (   150 PWs)   bands (ev):

   -98.5327 -44.5336 -43.3065 -43.1564  16.9314  17.3059  18.0965  19.2482
    20.0684  24.9420  26.5293  29.9655  36.1225

          k = 0.0000-1.0000 0.0000 (   150 PWs)   bands (ev):

   -98.5651 -43.8378 -43.8378 -43.7047  15.8468  17.4061  19.3094  20.5998
    20.5998  21.3835  28.2934  33.7453  33.7453

          k =-0.2500 0.5000 0.0000 (   152 PWs)   bands (ev):

   -98.6784 -45.5590 -45.1542 -43.0719  13.6311  16.2844  16.7855  18.7309
    18.9776  20.0207  34.3413  34.8731  40.3269

          k = 0.6250-0.3750 0.8750 (   153 PWs)   bands (ev):

   -98.6686 -45.0297 -44.8767 -44.1398  14.8431  17.0660  17.7731  18.0906
    18.8970  19.5177  29.5290  34.2950  37.5318

          k = 0.5000-0.2500 0.7500 (   164 PWs)   bands (ev):

   -98.8859 -48.0763 -46.7250 -46.5701  13.5167  14.5001  15.1195  15.4348
    17.0322  21.2041  23.8681  33.8840  35.8834

          k = 0.7500-0.2500 1.0000 (   153 PWs)   bands (ev):

   -98.6470 -45.3609 -44.5024 -43.9007  14.5193  16.9526  18.0394  19.0087
    19.0109  20.4758  31.7475  32.3654  33.4789

          k = 0.6250-0.1250 0.8750 (   157 PWs)   bands (ev):

   -98.7181 -46.3810 -45.2855 -44.7770  14.9856  16.3709  16.5652  17.2552
    17.7134  23.1331  27.2282  30.7111  32.9772

          k = 0.5000 0.0000 0.7500 (   156 PWs)   bands (ev):

   -98.7054 -46.4031 -45.0087 -44.4195  14.5049  16.8453  16.9007  17.2995
    18.5112  21.8338  28.3388  30.2481  34.5778

          k =-0.2500-1.0000 0.0000 (   156 PWs)   bands (ev):

   -98.6688 -46.2531 -44.9833 -44.1545  15.1376  16.3796  16.4095  17.7075
    19.7947  22.5981  28.4829  30.7230  32.0847

          k =-0.5000-1.0000 0.0000 (   156 PWs)   bands (ev):

   -98.7078 -45.4278 -45.4278 -44.9062  15.9030  16.4043  16.4043  17.0169
    17.5639  27.0154  27.0154  28.9488  30.4458

     the Fermi energy is    19.5908 ev

!    total energy              =    -327.67810499 Ry
     Harris-Foulkes estimate   =    -327.67810499 Ry
     estimated scf accuracy    <          6.9E-10 Ry

     The total energy is the sum of the following terms:

     one-electron contribution =    -162.87042091 Ry
     hartree contribution      =      91.56565609 Ry
     xc contribution           =     -32.98914169 Ry
     ewald contribution        =    -223.38275373 Ry
     smearing contrib. (-TS)   =      -0.00144475 Ry

     convergence has been achieved in  10 iterations

     Forces acting on atoms (cartesian axes, Ry/au):

     atom    1 type  1   force =     0.00000000    0.00000000    0.00000000

     Total force =     0.000000     Total SCF correction =     0.000000


     Computing stress (Cartesian axis) and pressure

          total   stress  (Ry/bohr**3)                   (kbar)     P=********
  -0.53602970  -0.00000000  -0.00000000     -78852.68     -0.00     -0.00
  -0.00000000  -0.53602970  -0.00000000         -0.00 -78852.68     -0.00
   0.00000000  -0.00000000  -0.53602970          0.00     -0.00 -78852.68


     Writing output data file Ni.save/

     init_run     :      0.12s CPU      0.12s WALL (       1 calls)
     electrons    :      0.98s CPU      1.13s WALL (       1 calls)
     forces       :      0.01s CPU      0.01s WALL (       1 calls)
     stress       :      0.03s CPU      0.03s WALL (       1 calls)

     Called by init_run:
     wfcinit      :      0.03s CPU      0.03s WALL (       1 calls)
     potinit      :      0.00s CPU      0.00s WALL (       1 calls)
     hinit0       :      0.08s CPU      0.08s WALL (       1 calls)

     Called by electrons:
     c_bands      :      0.83s CPU      0.95s WALL (      10 calls)
     sum_band     :      0.13s CPU      0.15s WALL (      10 calls)
     v_of_rho     :      0.01s CPU      0.01s WALL (      11 calls)
     newd         :      0.01s CPU      0.01s WALL (      11 calls)
     mix_rho      :      0.00s CPU      0.00s WALL (      10 calls)

     Called by c_bands:
     init_us_2    :      0.02s CPU      0.02s WALL (     667 calls)
     cegterg      :      0.81s CPU      0.92s WALL (     290 calls)

     Called by sum_band:
     sum_band:bec :      0.00s CPU      0.00s WALL (     290 calls)
     addusdens    :      0.01s CPU      0.01s WALL (      10 calls)

     Called by *egterg:
     h_psi        :      0.48s CPU      0.54s WALL (     857 calls)
     s_psi        :      0.02s CPU      0.02s WALL (     857 calls)
     g_psi        :      0.00s CPU      0.00s WALL (     538 calls)
     cdiaghg      :      0.23s CPU      0.26s WALL (     828 calls)

     Called by h_psi:
     h_psi:pot    :      0.47s CPU      0.54s WALL (     857 calls)
     h_psi:calbec :      0.02s CPU      0.03s WALL (     857 calls)
     vloc_psi     :      0.43s CPU      0.49s WALL (     857 calls)
     add_vuspsi   :      0.02s CPU      0.02s WALL (     857 calls)

     General routines
     calbec       :      0.04s CPU      0.04s WALL (    1292 calls)
     fft          :      0.01s CPU      0.01s WALL (     147 calls)
     ffts         :      0.00s CPU      0.00s WALL (      10 calls)
     fftw         :      0.46s CPU      0.54s WALL (   22030 calls)

     Parallel routines
     fft_scatt_xy :      0.05s CPU      0.06s WALL (   22187 calls)
     fft_scatt_yz :      0.18s CPU      0.21s WALL (   22187 calls)

     PWSCF        :     1.87s CPU         2.08s WALL


   This run was terminated on:  22:29:27  26Mar2024            

=------------------------------------------------------------------------------=
   JOB DONE.
=------------------------------------------------------------------------------=
