
     Program PWSCF v.6.3MaX starts on 26Mar2024 at 22:37:33 

     This program is part of the open-source Quantum ESPRESSO suite
     for quantum simulation of materials; please cite
         "P. Giannozzi et al., J. Phys.:Condens. Matter 21 395502 (2009);
         "P. Giannozzi et al., J. Phys.:Condens. Matter 29 465901 (2017);
          URL http://www.quantum-espresso.org", 
     in publications or presentations arising from this work. More details at
     http://www.quantum-espresso.org/quote

     Parallel version (MPI), running on     5 processors

     MPI processes distributed on     1 nodes
     R & G space division:  proc/nbgrp/npool/nimage =       5
     Waiting for input...
     Reading input from standard input

     Current dimensions of program PWSCF are:
     Max number of different atomic species (ntypx) = 10
     Max number of k-points (npk) =  40000
     Max angular momentum in pseudopotentials (lmaxx) =  3

     Subspace diagonalization in iterative solution of the eigenvalue problem:
     a serial algorithm will be used


     Parallelization info
     --------------------
     sticks:   dense  smooth     PW     G-vecs:    dense   smooth      PW
     Min          53      53     18                  595      595     121
     Max          56      56     19                  595      595     123
     Sum         271     271     91                 2975     2975     609



     bravais-lattice index     =            2
     lattice parameter (alat)  =       6.6500  a.u.
     unit-cell volume          =      73.5199 (a.u.)^3
     number of atoms/cell      =            1
     number of atomic types    =            1
     number of electrons       =        18.00
     number of Kohn-Sham states=           13
     kinetic-energy cutoff     =      45.0000  Ry
     charge density cutoff     =     180.0000  Ry
     convergence threshold     =      1.0E-08
     mixing beta               =       0.7000
     number of iterations used =            8  plain     mixing
     Exchange-correlation      = PBE ( 1  4  3  4 0 0)

     celldm(1)=   6.650000  celldm(2)=   0.000000  celldm(3)=   0.000000
     celldm(4)=   0.000000  celldm(5)=   0.000000  celldm(6)=   0.000000

     crystal axes: (cart. coord. in units of alat)
               a(1) = (  -0.500000   0.000000   0.500000 )  
               a(2) = (   0.000000   0.500000   0.500000 )  
               a(3) = (  -0.500000   0.500000   0.000000 )  

     reciprocal axes: (cart. coord. in units 2 pi/alat)
               b(1) = ( -1.000000 -1.000000  1.000000 )  
               b(2) = (  1.000000  1.000000  1.000000 )  
               b(3) = ( -1.000000  1.000000 -1.000000 )  


     PseudoPot. # 1 for Ni read from file:
     /home/lorenzo/pseudos/Ni/Ni.pbe-spn-rrkjus_psl.1.0.0.UPF
     MD5 check sum: 8b3fc9aac6dafe35f580d41bb18c3945
     Pseudo is Ultrasoft + core correction, Zval = 18.0
     Generated using "atomic" code by A. Dal Corso v.6.3
     Using radial grid of 1195 points,  6 beta functions with: 
                l(1) =   0
                l(2) =   0
                l(3) =   1
                l(4) =   1
                l(5) =   2
                l(6) =   2
     Q(r) pseudized with 0 coefficients 


     atomic species   valence    mass     pseudopotential
        Ni            18.00    58.69340     Ni( 1.00)

     48 Sym. Ops., with inversion, found



   Cartesian axes

     site n.     atom                  positions (alat units)
         1           Ni  tau(   1) = (   0.0000000   0.0000000   0.0000000  )

     number of k points=    20  gaussian smearing, width (Ry)=  0.0100
                       cart. coord. in units 2pi/alat
        k(    1) = (   0.0000000   0.0000000   0.0000000), wk =   0.0058309
        k(    2) = (  -0.1428571   0.1428571  -0.1428571), wk =   0.0466472
        k(    3) = (  -0.2857143   0.2857143  -0.2857143), wk =   0.0466472
        k(    4) = (  -0.4285714   0.4285714  -0.4285714), wk =   0.0466472
        k(    5) = (   0.0000000   0.2857143   0.0000000), wk =   0.0349854
        k(    6) = (  -0.1428571   0.4285714  -0.1428571), wk =   0.1399417
        k(    7) = (  -0.2857143   0.5714286  -0.2857143), wk =   0.1399417
        k(    8) = (   0.5714286  -0.2857143   0.5714286), wk =   0.1399417
        k(    9) = (   0.4285714  -0.1428571   0.4285714), wk =   0.1399417
        k(   10) = (   0.2857143  -0.0000000   0.2857143), wk =   0.0699708
        k(   11) = (   0.0000000   0.5714286   0.0000000), wk =   0.0349854
        k(   12) = (  -0.1428571   0.7142857  -0.1428571), wk =   0.1399417
        k(   13) = (   0.7142857  -0.1428571   0.7142857), wk =   0.1399417
        k(   14) = (   0.5714286   0.0000000   0.5714286), wk =   0.0699708
        k(   15) = (   0.0000000   0.8571429   0.0000000), wk =   0.0349854
        k(   16) = (   0.8571429  -0.0000000   0.8571429), wk =   0.0699708
        k(   17) = (  -0.2857143   0.5714286   0.0000000), wk =   0.1399417
        k(   18) = (   0.5714286  -0.2857143   0.8571429), wk =   0.2798834
        k(   19) = (   0.7142857  -0.1428571   1.0000000), wk =   0.1399417
        k(   20) = (   0.5714286   0.0000000   0.8571429), wk =   0.1399417

     Dense  grid:     2975 G-vectors     FFT dimensions: (  24,  24,  24)

     Estimated max dynamical RAM per process >       3.74 MB

     Estimated total dynamical RAM >      18.72 MB

     Check: negative/imaginary core charge=   -0.000034    0.000000

     Initial potential from superposition of free atoms

     starting charge   17.99975, renormalised to   18.00000
     Starting wfcs are   10 randomized atomic wfcs +    3 random wfcs

     total cpu time spent up to now is        1.0 secs

     Self-consistent Calculation

     iteration #  1     ecut=    45.00 Ry     beta= 0.70
     Davidson diagonalization with overlap
     ethr =  1.00E-02,  avg # of iterations =  4.2

     Threshold (ethr) on eigenvalues was too large:
     Diagonalizing with lowered threshold

     Davidson diagonalization with overlap
     ethr =  3.42E-05,  avg # of iterations =  2.0

     total cpu time spent up to now is        1.4 secs

     total energy              =    -339.43794462 Ry
     Harris-Foulkes estimate   =    -339.43982454 Ry
     estimated scf accuracy    <       0.00623152 Ry

     iteration #  2     ecut=    45.00 Ry     beta= 0.70
     Davidson diagonalization with overlap
     ethr =  3.46E-05,  avg # of iterations =  1.0

     total cpu time spent up to now is        1.5 secs

     total energy              =    -339.43831956 Ry
     Harris-Foulkes estimate   =    -339.43839887 Ry
     estimated scf accuracy    <       0.00042843 Ry

     iteration #  3     ecut=    45.00 Ry     beta= 0.70
     Davidson diagonalization with overlap
     ethr =  2.38E-06,  avg # of iterations =  2.1

     total cpu time spent up to now is        1.7 secs

     total energy              =    -339.43824213 Ry
     Harris-Foulkes estimate   =    -339.43865914 Ry
     estimated scf accuracy    <       0.00111710 Ry

     iteration #  4     ecut=    45.00 Ry     beta= 0.70
     Davidson diagonalization with overlap
     ethr =  2.38E-06,  avg # of iterations =  2.0

     total cpu time spent up to now is        1.8 secs

     total energy              =    -339.43845098 Ry
     Harris-Foulkes estimate   =    -339.43845439 Ry
     estimated scf accuracy    <       0.00002138 Ry

     iteration #  5     ecut=    45.00 Ry     beta= 0.70
     Davidson diagonalization with overlap
     ethr =  1.19E-07,  avg # of iterations =  2.0

     total cpu time spent up to now is        2.0 secs

     total energy              =    -339.43845473 Ry
     Harris-Foulkes estimate   =    -339.43845480 Ry
     estimated scf accuracy    <       0.00000019 Ry

     iteration #  6     ecut=    45.00 Ry     beta= 0.70
     Davidson diagonalization with overlap
     ethr =  1.06E-09,  avg # of iterations =  2.0

     total cpu time spent up to now is        2.1 secs

     End of self-consistent calculation

          k = 0.0000 0.0000 0.0000 (   339 PWs)   bands (ev):

   -85.3437 -45.2732 -45.2732 -45.2732   8.9658  16.0139  16.0139  16.0139
    17.1485  17.1485  41.4790  45.4268  45.4268

          k =-0.1429 0.1429-0.1429 (   362 PWs)   bands (ev):

   -85.3379 -45.4505 -45.3627 -45.3627   9.7216  15.7914  16.1305  16.1305
    17.0024  17.0024  37.7402  42.4314  44.1205

          k =-0.2857 0.2857-0.2857 (   365 PWs)   bands (ev):

   -85.3234 -45.5803 -45.3655 -45.3655  11.7557  15.5814  16.1634  16.1634
    17.2497  17.2497  30.6707  41.2631  42.9813

          k =-0.4286 0.4286-0.4286 (   374 PWs)   bands (ev):

   -85.3120 -45.6926 -45.4041 -45.4041  13.2812  15.9626  15.9626  16.8846
    17.6823  17.6823  24.9890  40.1540  42.5727

          k = 0.0000 0.2857 0.0000 (   359 PWs)   bands (ev):

   -85.3356 -45.4649 -45.3396 -45.3396   9.9803  15.6400  16.2463  16.2463
    16.7431  17.2418  39.9130  40.8241  40.8241

          k =-0.1429 0.4286-0.1429 (   369 PWs)   bands (ev):

   -85.3241 -45.5084 -45.4358 -45.4051  11.5842  15.2668  16.1379  16.4566
    17.0367  17.4099  33.4462  38.8693  39.5280

          k =-0.2857 0.5714-0.2857 (   377 PWs)   bands (ev):

   -85.3117 -45.6361 -45.4646 -45.4406  13.4352  15.3793  15.8519  16.3020
    17.7545  18.4213  26.9974  37.5076  38.4559

          k = 0.5714-0.2857 0.5714 (   375 PWs)   bands (ev):

   -85.3077 -45.6638 -45.4767 -45.4089  13.8116  15.5446  16.1620  16.1758
    17.6821  19.8588  24.1789  35.7405  39.8464

          k = 0.4286-0.1429 0.4286 (   369 PWs)   bands (ev):

   -85.3153 -45.5710 -45.4413 -45.3991  12.9924  15.4161  15.8801  16.3091
    17.0989  18.2979  29.0194  35.2098  42.3208

          k = 0.2857-0.0000 0.2857 (   367 PWs)   bands (ev):

   -85.3289 -45.4808 -45.4231 -45.3957  10.9307  15.4862  16.1912  16.3620
    16.6949  17.4096  35.4987  36.3714  45.5014

          k = 0.0000 0.5714 0.0000 (   371 PWs)   bands (ev):

   -85.3166 -45.5313 -45.4409 -45.4409  12.4772  14.8198  16.4750  17.0344
    17.0344  17.4782  36.0361  36.0361  36.0555

          k =-0.1429 0.7143-0.1429 (   378 PWs)   bands (ev):

   -85.3069 -45.6334 -45.4839 -45.4500  13.6383  14.5810  16.2932  17.1033
    17.7926  18.7824  30.2911  32.7169  34.9570

          k = 0.7143-0.1429 0.7143 (   383 PWs)   bands (ev):

   -85.3022 -45.6310 -45.5782 -45.4734  14.3731  14.6760  15.8822  16.8676
    17.7169  22.4048  24.8943  30.2453  35.9774

          k = 0.5714 0.0000 0.5714 (   377 PWs)   bands (ev):

   -85.3059 -45.5995 -45.5317 -45.4485  14.3962  15.1817  15.3591  16.6734
    17.2407  20.4609  27.6629  29.7356  38.8647

          k = 0.0000 0.8571 0.0000 (   379 PWs)   bands (ev):

   -85.3015 -45.6243 -45.4986 -45.4986  13.5179  14.2194  17.7037  17.8184
    17.8184  19.1418  28.9504  33.0777  33.0777

          k = 0.8571-0.0000 0.8571 (   375 PWs)   bands (ev):

   -85.2993 -45.6337 -45.5013 -45.4692  13.7927  14.2953  17.0229  17.5558
    17.8708  21.7385  27.3934  29.1632  33.4657

          k =-0.2857 0.5714 0.0000 (   372 PWs)   bands (ev):

   -85.3132 -45.5639 -45.4490 -45.4378  13.1982  14.9837  15.7579  16.9601
    17.0570  18.3797  31.7532  32.6613  37.3225

          k = 0.5714-0.2857 0.8571 (   378 PWs)   bands (ev):

   -85.3048 -45.6309 -45.5093 -45.4670  14.3502  14.9829  15.5254  16.7127
    17.6129  20.7982  26.0686  32.4328  34.4006

          k = 0.7143-0.1429 1.0000 (   374 PWs)   bands (ev):

   -85.3009 -45.6086 -45.4852 -45.4812  14.0492  14.5581  16.1828  17.3501
    17.8248  21.3776  29.3562  29.3998  30.8787

          k = 0.5714 0.0000 0.8571 (   380 PWs)   bands (ev):

   -85.3001 -45.5909 -45.5844 -45.4996  14.4788  14.8599  15.5361  16.9667
    17.8127  24.6198  25.0271  28.3760  31.6647

     the Fermi energy is    17.8016 ev

!    total energy              =    -339.43845480 Ry
     Harris-Foulkes estimate   =    -339.43845481 Ry
     estimated scf accuracy    <          4.2E-09 Ry

     The total energy is the sum of the following terms:

     one-electron contribution =    -186.43624893 Ry
     hartree contribution      =     104.71486992 Ry
     xc contribution           =     -34.33170180 Ry
     ewald contribution        =    -223.38275378 Ry
     smearing contrib. (-TS)   =      -0.00262020 Ry

     convergence has been achieved in   6 iterations

     Forces acting on atoms (cartesian axes, Ry/au):

     atom    1 type  1   force =     0.00000000    0.00000000    0.00000000

     Total force =     0.000000     Total SCF correction =     0.000000


     Computing stress (Cartesian axis) and pressure

          total   stress  (Ry/bohr**3)                   (kbar)     P=-2406.39
  -0.01635832   0.00000000   0.00000000      -2406.39      0.00      0.00
   0.00000000  -0.01635832  -0.00000000          0.00  -2406.39     -0.00
   0.00000000  -0.00000000  -0.01635832          0.00     -0.00  -2406.39


     Writing output data file Ni.save/

     init_run     :      0.17s CPU      0.17s WALL (       1 calls)
     electrons    :      1.09s CPU      1.17s WALL (       1 calls)
     forces       :      0.03s CPU      0.03s WALL (       1 calls)
     stress       :      0.07s CPU      0.08s WALL (       1 calls)

     Called by init_run:
     wfcinit      :      0.04s CPU      0.05s WALL (       1 calls)
     potinit      :      0.01s CPU      0.01s WALL (       1 calls)
     hinit0       :      0.11s CPU      0.12s WALL (       1 calls)

     Called by electrons:
     c_bands      :      0.87s CPU      0.94s WALL (       7 calls)
     sum_band     :      0.19s CPU      0.20s WALL (       7 calls)
     v_of_rho     :      0.02s CPU      0.02s WALL (       7 calls)
     newd         :      0.02s CPU      0.02s WALL (       7 calls)
     mix_rho      :      0.00s CPU      0.00s WALL (       7 calls)

     Called by c_bands:
     init_us_2    :      0.02s CPU      0.02s WALL (     340 calls)
     cegterg      :      0.84s CPU      0.90s WALL (     140 calls)

     Called by sum_band:
     sum_band:bec :      0.00s CPU      0.00s WALL (     140 calls)
     addusdens    :      0.02s CPU      0.02s WALL (       7 calls)

     Called by *egterg:
     h_psi        :      0.62s CPU      0.67s WALL (     466 calls)
     s_psi        :      0.02s CPU      0.02s WALL (     466 calls)
     g_psi        :      0.00s CPU      0.00s WALL (     306 calls)
     cdiaghg      :      0.15s CPU      0.15s WALL (     426 calls)

     Called by h_psi:
     h_psi:pot    :      0.61s CPU      0.66s WALL (     466 calls)
     h_psi:calbec :      0.02s CPU      0.03s WALL (     466 calls)
     vloc_psi     :      0.57s CPU      0.61s WALL (     466 calls)
     add_vuspsi   :      0.02s CPU      0.02s WALL (     466 calls)

     General routines
     calbec       :      0.04s CPU      0.04s WALL (     706 calls)
     fft          :      0.01s CPU      0.01s WALL (     104 calls)
     ffts         :      0.00s CPU      0.00s WALL (       7 calls)
     fftw         :      0.64s CPU      0.69s WALL (   11044 calls)

     Parallel routines
     fft_scatt_xy :      0.07s CPU      0.07s WALL (   11155 calls)
     fft_scatt_yz :      0.15s CPU      0.16s WALL (   11155 calls)

     PWSCF        :     2.16s CPU         2.29s WALL


   This run was terminated on:  22:37:35  26Mar2024            

=------------------------------------------------------------------------------=
   JOB DONE.
=------------------------------------------------------------------------------=
