
     Program PWSCF v.6.3MaX starts on 26Mar2024 at 22:48:23 

     This program is part of the open-source Quantum ESPRESSO suite
     for quantum simulation of materials; please cite
         "P. Giannozzi et al., J. Phys.:Condens. Matter 21 395502 (2009);
         "P. Giannozzi et al., J. Phys.:Condens. Matter 29 465901 (2017);
          URL http://www.quantum-espresso.org", 
     in publications or presentations arising from this work. More details at
     http://www.quantum-espresso.org/quote

     Parallel version (MPI), running on     5 processors

     MPI processes distributed on     1 nodes
     R & G space division:  proc/nbgrp/npool/nimage =       5
     Waiting for input...
     Reading input from standard input

     Current dimensions of program PWSCF are:
     Max number of different atomic species (ntypx) = 10
     Max number of k-points (npk) =  40000
     Max angular momentum in pseudopotentials (lmaxx) =  3
               file Ni.pbe-spn-kjpaw_psl.1.0.0.UPF: wavefunction(s)  3P 3D renormalized

     Subspace diagonalization in iterative solution of the eigenvalue problem:
     a serial algorithm will be used


     Parallelization info
     --------------------
     sticks:   dense  smooth     PW     G-vecs:    dense   smooth      PW
     Min          85      85     27                 1163     1163     213
     Max          87      87     28                 1164     1164     214
     Sum         433     433    139                 5817     5817    1067



     bravais-lattice index     =            2
     lattice parameter (alat)  =       6.6500  a.u.
     unit-cell volume          =      73.5199 (a.u.)^3
     number of atoms/cell      =            1
     number of atomic types    =            1
     number of electrons       =        18.00
     number of Kohn-Sham states=           13
     kinetic-energy cutoff     =      70.0000  Ry
     charge density cutoff     =     280.0000  Ry
     convergence threshold     =      1.0E-08
     mixing beta               =       0.7000
     number of iterations used =            8  plain     mixing
     Exchange-correlation      = SLA PW PBX PBC ( 1  4  3  4 0 0)

     celldm(1)=   6.650000  celldm(2)=   0.000000  celldm(3)=   0.000000
     celldm(4)=   0.000000  celldm(5)=   0.000000  celldm(6)=   0.000000

     crystal axes: (cart. coord. in units of alat)
               a(1) = (  -0.500000   0.000000   0.500000 )  
               a(2) = (   0.000000   0.500000   0.500000 )  
               a(3) = (  -0.500000   0.500000   0.000000 )  

     reciprocal axes: (cart. coord. in units 2 pi/alat)
               b(1) = ( -1.000000 -1.000000  1.000000 )  
               b(2) = (  1.000000  1.000000  1.000000 )  
               b(3) = ( -1.000000  1.000000 -1.000000 )  


     PseudoPot. # 1 for Ni read from file:
     /home/lorenzo/pseudos/Ni/Ni.pbe-spn-kjpaw_psl.1.0.0.UPF
     MD5 check sum: 6e86b733589c3ad8389697b807d86aa7
     Pseudo is Projector augmented-wave + core cor, Zval = 18.0
     Generated using "atomic" code by A. Dal Corso v.6.3
     Shape of augmentation charge: PSQ
     Using radial grid of 1195 points,  6 beta functions with: 
                l(1) =   0
                l(2) =   0
                l(3) =   1
                l(4) =   1
                l(5) =   2
                l(6) =   2
     Q(r) pseudized with 0 coefficients 


     atomic species   valence    mass     pseudopotential
        Ni            18.00    58.69340     Ni( 1.00)

     48 Sym. Ops., with inversion, found



   Cartesian axes

     site n.     atom                  positions (alat units)
         1           Ni  tau(   1) = (   0.0000000   0.0000000   0.0000000  )

     number of k points=    47  gaussian smearing, width (Ry)=  0.0100
                       cart. coord. in units 2pi/alat
        k(    1) = (   0.0000000   0.0000000   0.0000000), wk =   0.0020000
        k(    2) = (  -0.1000000   0.1000000  -0.1000000), wk =   0.0160000
        k(    3) = (  -0.2000000   0.2000000  -0.2000000), wk =   0.0160000
        k(    4) = (  -0.3000000   0.3000000  -0.3000000), wk =   0.0160000
        k(    5) = (  -0.4000000   0.4000000  -0.4000000), wk =   0.0160000
        k(    6) = (   0.5000000  -0.5000000   0.5000000), wk =   0.0080000
        k(    7) = (   0.0000000   0.2000000   0.0000000), wk =   0.0120000
        k(    8) = (  -0.1000000   0.3000000  -0.1000000), wk =   0.0480000
        k(    9) = (  -0.2000000   0.4000000  -0.2000000), wk =   0.0480000
        k(   10) = (  -0.3000000   0.5000000  -0.3000000), wk =   0.0480000
        k(   11) = (   0.6000000  -0.4000000   0.6000000), wk =   0.0480000
        k(   12) = (   0.5000000  -0.3000000   0.5000000), wk =   0.0480000
        k(   13) = (   0.4000000  -0.2000000   0.4000000), wk =   0.0480000
        k(   14) = (   0.3000000  -0.1000000   0.3000000), wk =   0.0480000
        k(   15) = (   0.2000000   0.0000000   0.2000000), wk =   0.0240000
        k(   16) = (   0.0000000   0.4000000   0.0000000), wk =   0.0120000
        k(   17) = (  -0.1000000   0.5000000  -0.1000000), wk =   0.0480000
        k(   18) = (  -0.2000000   0.6000000  -0.2000000), wk =   0.0480000
        k(   19) = (   0.7000000  -0.3000000   0.7000000), wk =   0.0480000
        k(   20) = (   0.6000000  -0.2000000   0.6000000), wk =   0.0480000
        k(   21) = (   0.5000000  -0.1000000   0.5000000), wk =   0.0480000
        k(   22) = (   0.4000000   0.0000000   0.4000000), wk =   0.0240000
        k(   23) = (   0.0000000   0.6000000   0.0000000), wk =   0.0120000
        k(   24) = (  -0.1000000   0.7000000  -0.1000000), wk =   0.0480000
        k(   25) = (   0.8000000  -0.2000000   0.8000000), wk =   0.0480000
        k(   26) = (   0.7000000  -0.1000000   0.7000000), wk =   0.0480000
        k(   27) = (   0.6000000  -0.0000000   0.6000000), wk =   0.0240000
        k(   28) = (   0.0000000   0.8000000   0.0000000), wk =   0.0120000
        k(   29) = (   0.9000000  -0.1000000   0.9000000), wk =   0.0480000
        k(   30) = (   0.8000000   0.0000000   0.8000000), wk =   0.0240000
        k(   31) = (   0.0000000  -1.0000000   0.0000000), wk =   0.0060000
        k(   32) = (  -0.2000000   0.4000000   0.0000000), wk =   0.0480000
        k(   33) = (  -0.3000000   0.5000000  -0.1000000), wk =   0.0960000
        k(   34) = (   0.6000000  -0.4000000   0.8000000), wk =   0.0960000
        k(   35) = (   0.5000000  -0.3000000   0.7000000), wk =   0.0480000
        k(   36) = (  -0.2000000   0.6000000   0.0000000), wk =   0.0480000
        k(   37) = (   0.7000000  -0.3000000   0.9000000), wk =   0.0960000
        k(   38) = (   0.6000000  -0.2000000   0.8000000), wk =   0.0960000
        k(   39) = (   0.5000000  -0.1000000   0.7000000), wk =   0.0960000
        k(   40) = (   0.4000000   0.0000000   0.6000000), wk =   0.0480000
        k(   41) = (   0.8000000  -0.2000000   1.0000000), wk =   0.0480000
        k(   42) = (   0.7000000  -0.1000000   0.9000000), wk =   0.0960000
        k(   43) = (   0.6000000   0.0000000   0.8000000), wk =   0.0480000
        k(   44) = (  -0.2000000  -1.0000000   0.0000000), wk =   0.0240000
        k(   45) = (   0.6000000  -0.2000000   1.0000000), wk =   0.0480000
        k(   46) = (   0.5000000  -0.1000000   0.9000000), wk =   0.0480000
        k(   47) = (  -0.4000000  -1.0000000   0.0000000), wk =   0.0240000

     Dense  grid:     5817 G-vectors     FFT dimensions: (  25,  25,  25)

     Estimated max dynamical RAM per process >       7.11 MB

     Estimated total dynamical RAM >      35.55 MB

     Check: negative/imaginary core charge=   -0.000011    0.000000

     Initial potential from superposition of free atoms

     starting charge   17.99975, renormalised to   18.00000
     Starting wfcs are   10 randomized atomic wfcs +    3 random wfcs
     Checking if some PAW data can be deallocated... 

     total cpu time spent up to now is        1.2 secs

     Self-consistent Calculation

     iteration #  1     ecut=    70.00 Ry     beta= 0.70
     Davidson diagonalization with overlap
     ethr =  1.00E-02,  avg # of iterations =  3.7

     Threshold (ethr) on eigenvalues was too large:
     Diagonalizing with lowered threshold

     Davidson diagonalization with overlap
     ethr =  2.36E-05,  avg # of iterations =  2.7

     total cpu time spent up to now is        2.4 secs

     total energy              =    -429.14649841 Ry
     Harris-Foulkes estimate   =    -429.14914728 Ry
     estimated scf accuracy    <       0.00430200 Ry

     iteration #  2     ecut=    70.00 Ry     beta= 0.70
     Davidson diagonalization with overlap
     ethr =  2.39E-05,  avg # of iterations =  2.4

     total cpu time spent up to now is        3.1 secs

     total energy              =    -429.14555466 Ry
     Harris-Foulkes estimate   =    -429.15166866 Ry
     estimated scf accuracy    <       0.01726862 Ry

     iteration #  3     ecut=    70.00 Ry     beta= 0.70
     Davidson diagonalization with overlap
     ethr =  2.39E-05,  avg # of iterations =  2.1

     total cpu time spent up to now is        3.7 secs

     total energy              =    -429.14843914 Ry
     Harris-Foulkes estimate   =    -429.14846073 Ry
     estimated scf accuracy    <       0.00011620 Ry

     iteration #  4     ecut=    70.00 Ry     beta= 0.70
     Davidson diagonalization with overlap
     ethr =  6.46E-07,  avg # of iterations =  2.2

     total cpu time spent up to now is        4.2 secs

     total energy              =    -429.14845718 Ry
     Harris-Foulkes estimate   =    -429.14845706 Ry
     estimated scf accuracy    <       0.00000056 Ry

     iteration #  5     ecut=    70.00 Ry     beta= 0.70
     Davidson diagonalization with overlap
     ethr =  3.11E-09,  avg # of iterations =  2.4

     total cpu time spent up to now is        4.8 secs

     total energy              =    -429.14845741 Ry
     Harris-Foulkes estimate   =    -429.14845743 Ry
     estimated scf accuracy    <       0.00000007 Ry

     iteration #  6     ecut=    70.00 Ry     beta= 0.70
     Davidson diagonalization with overlap
     ethr =  3.82E-10,  avg # of iterations =  1.7

     total cpu time spent up to now is        5.4 secs

     End of self-consistent calculation

          k = 0.0000 0.0000 0.0000 (   725 PWs)   bands (ev):

   -85.2878 -45.5396 -45.5396 -45.5396   8.8255  15.9222  15.9222  15.9222
    17.0293  17.0293  41.4894  45.4384  45.4384

          k =-0.1000 0.1000-0.1000 (   728 PWs)   bands (ev):

   -85.2846 -45.5611 -45.5428 -45.5428   9.2151  15.8179  16.0058  16.0058
    16.9961  16.9961  39.7788  42.8062  44.6358

          k =-0.2000 0.2000-0.2000 (   718 PWs)   bands (ev):

   -85.2759 -45.6163 -45.5507 -45.5507  10.3242  15.6001  16.1318  16.1318
    17.0185  17.0185  34.8645  42.0190  43.6239

          k =-0.3000 0.3000-0.3000 (   745 PWs)   bands (ev):

   -85.2660 -45.6850 -45.5612 -45.5612  11.8750  15.5899  16.0717  16.0717
    17.2906  17.2906  29.9907  41.1195  42.9617

          k =-0.4000 0.4000-0.4000 (   739 PWs)   bands (ev):

   -85.2575 -45.7396 -45.5691 -45.5691  13.0345  15.9339  15.9339  16.4724
    17.6298  17.6298  25.8560  40.3061  42.6492

          k = 0.5000-0.5000 0.5000 (   718 PWs)   bands (ev):

   -85.2538 -45.7600 -45.5716 -45.5716  13.3092  15.8737  15.8737  17.5486
    17.7753  17.7753  23.7954  39.9920  42.5794

          k = 0.0000 0.2000 0.0000 (   721 PWs)   bands (ev):

   -85.2834 -45.5604 -45.5475 -45.5475   9.3440  15.7304  16.0705  16.0705
    16.8559  17.0971  40.5663  42.4819  42.4819

          k =-0.1000 0.3000-0.1000 (   725 PWs)   bands (ev):

   -85.2767 -45.6017 -45.5569 -45.5538  10.2117  15.5084  16.2033  16.2324
    16.7635  17.1754  36.8135  40.8959  40.9306

          k =-0.2000 0.4000-0.2000 (   723 PWs)   bands (ev):

   -85.2669 -45.6637 -45.5674 -45.5634  11.6402  15.3434  16.0619  16.2577
    17.1294  17.3980  31.8052  39.9393  40.0812

          k =-0.3000 0.5000-0.3000 (   730 PWs)   bands (ev):

   -85.2580 -45.7208 -45.5753 -45.5751  13.0126  15.6048  15.8826  16.1370
    17.6841  17.8951  27.3182  39.1199  39.6839

          k = 0.6000-0.4000 0.6000 (   728 PWs)   bands (ev):

   -85.2530 -45.7514 -45.5847 -45.5766  13.5120  15.6793  16.0318  16.4226
    17.7847  19.0287  24.1537  38.1180  40.2428

          k = 0.5000-0.3000 0.5000 (   732 PWs)   bands (ev):

   -85.2541 -45.7445 -45.5874 -45.5720  13.4395  15.7349  16.0328  16.2761
    17.5911  18.7681  24.9526  37.4120  41.2238

          k = 0.4000-0.2000 0.4000 (   739 PWs)   bands (ev):

   -85.2610 -45.7032 -45.5825 -45.5628  12.6398  15.5256  15.9215  16.1503
    17.1833  17.9411  28.7391  37.2703  42.3510

          k = 0.3000-0.1000 0.3000 (   730 PWs)   bands (ev):

   -85.2705 -45.6428 -45.5709 -45.5521  11.1280  15.4273  16.1039  16.2783
    16.8041  17.4177  33.4455  37.7244  44.0752

          k = 0.2000 0.0000 0.2000 (   723 PWs)   bands (ev):

   -85.2795 -45.5882 -45.5558 -45.5445   9.8461  15.6435  16.1203  16.1369
    16.8270  17.1202  38.1203  39.1602  44.4833

          k = 0.0000 0.4000 0.0000 (   721 PWs)   bands (ev):

   -85.2721 -45.6139 -45.5681 -45.5681  10.7973  15.2445  16.4724  16.4940
    16.4940  17.2763  38.8105  38.8105  39.2192

          k =-0.1000 0.5000-0.1000 (   727 PWs)   bands (ev):

   -85.2642 -45.6570 -45.5806 -45.5801  11.9482  14.9912  16.1318  16.6621
    17.0896  17.4583  34.1046  37.4536  38.1727

          k =-0.2000 0.6000-0.2000 (   725 PWs)   bands (ev):

   -85.2558 -45.7031 -45.5969 -45.5881  13.2469  14.9172  15.8347  16.5987
    17.7268  18.2035  29.3969  36.1340  36.9327

          k = 0.7000-0.3000 0.7000 (   726 PWs)   bands (ev):

   -85.2502 -45.7311 -45.6145 -45.5894  13.9571  15.0635  15.8198  16.4697
    17.8110  20.0610  25.4222  34.3288  37.3503

          k = 0.6000-0.2000 0.6000 (   721 PWs)   bands (ev):

   -85.2494 -45.7315 -45.6260 -45.5830  14.0898  15.2064  15.8183  16.3978
    17.5927  20.8078  24.5034  33.0886  38.7193

          k = 0.5000-0.1000 0.5000 (   730 PWs)   bands (ev):

   -85.2541 -45.7081 -45.6234 -45.5719  13.7079  15.3315  15.5326  16.4339
    17.1515  19.1730  28.0178  32.5571  40.9112

          k = 0.4000 0.0000 0.4000 (   728 PWs)   bands (ev):

   -85.2621 -45.6743 -45.6019 -45.5601  12.4553  15.2314  15.8673  16.5578
    16.6835  18.1037  32.2236  33.0781  43.6913

          k = 0.0000 0.6000 0.0000 (   721 PWs)   bands (ev):

   -85.2583 -45.6783 -45.5937 -45.5937  12.6336  14.6737  16.5203  17.1064
    17.1064  17.5015  35.3331  35.6761  35.6761

          k =-0.1000 0.7000-0.1000 (   724 PWs)   bands (ev):

   -85.2517 -45.7081 -45.6100 -45.6033  13.3794  14.4923  16.5010  17.1905
    17.7342  18.2387  31.8845  32.9508  34.7868

          k = 0.8000-0.2000 0.8000 (   729 PWs)   bands (ev):

   -85.2468 -45.7222 -45.6356 -45.6052  13.9543  14.5161  16.2070  17.0638
    17.8477  20.5080  27.7095  30.8391  34.9374

          k = 0.7000-0.1000 0.7000 (   721 PWs)   bands (ev):

   -85.2454 -45.7114 -45.6644 -45.5980  14.4026  14.6562  15.8396  16.9105
    17.6532  23.1362  24.5136  29.4286  36.1348

          k = 0.6000-0.0000 0.6000 (   728 PWs)   bands (ev):

   -85.2483 -45.6994 -45.6667 -45.5856  14.4870  15.0006  15.4057  16.7305
    17.3178  21.0763  27.0158  29.2324  38.2076

          k = 0.0000 0.8000 0.0000 (   729 PWs)   bands (ev):

   -85.2473 -45.7294 -45.6146 -45.6146  13.4285  14.2337  17.6867  17.7016
    17.7016  18.3764  30.1438  33.4952  33.4952

          k = 0.9000-0.1000 0.9000 (   726 PWs)   bands (ev):

   -85.2440 -45.7383 -45.6290 -45.6177  13.6076  14.1944  17.2892  17.5859
    17.8976  20.4808  28.2165  30.7130  33.2908

          k = 0.8000 0.0000 0.8000 (   728 PWs)   bands (ev):

   -85.2434 -45.7248 -45.6550 -45.6114  13.9679  14.3769  16.5394  17.3571
    17.7910  22.7651  26.8064  27.8428  34.2320

          k = 0.0000-1.0000 0.0000 (   740 PWs)   bands (ev):

   -85.2432 -45.7485 -45.6229 -45.6229  13.4659  14.0696  17.7583  17.9610
    17.9610  20.2975  27.2496  32.6951  32.6951

          k =-0.2000 0.4000 0.0000 (   723 PWs)   bands (ev):

   -85.2693 -45.6374 -45.5775 -45.5592  11.2468  15.2651  16.1155  16.5104
    16.7275  17.4444  35.3211  35.9958  41.9302

          k =-0.3000 0.5000-0.1000 (   729 PWs)   bands (ev):

   -85.2604 -45.6852 -45.5967 -45.5689  12.6757  15.1392  15.8177  16.5117
    17.1074  18.0577  30.7174  35.0557  39.6007

          k = 0.6000-0.4000 0.8000 (   729 PWs)   bands (ev):

   -85.2530 -45.7251 -45.6078 -45.5793  13.7121  15.3259  15.6884  16.3711
    17.5612  19.2168  26.4450  35.0551  37.5941

          k = 0.5000-0.3000 0.7000 (   726 PWs)   bands (ev):

   -85.2502 -45.7404 -45.6111 -45.5839  13.9392  15.3076  15.9643  16.2950
    17.7149  20.5392  24.0019  35.4348  36.5190

          k =-0.2000 0.6000 0.0000 (   722 PWs)   bands (ev):

   -85.2568 -45.6875 -45.6044 -45.5868  13.0011  14.7758  15.9457  17.1062
    17.1575  18.0638  32.9118  33.4582  36.0728

          k = 0.7000-0.3000 0.9000 (   725 PWs)   bands (ev):

   -85.2502 -45.7120 -45.6263 -45.5961  13.9241  14.7559  15.6994  16.9562
    17.6102  19.5474  28.6660  32.9231  33.8912

          k = 0.6000-0.2000 0.8000 (   725 PWs)   bands (ev):

   -85.2467 -45.7197 -45.6449 -45.5987  14.3993  14.7987  15.6339  16.7660
    17.7280  21.9164  24.9584  31.8617  33.8530

          k = 0.5000-0.1000 0.7000 (   726 PWs)   bands (ev):

   -85.2478 -45.7117 -45.6514 -45.5917  14.4748  14.9453  15.4157  16.7219
    17.5238  21.2482  26.0241  30.8431  35.2122

          k = 0.4000 0.0000 0.6000 (   732 PWs)   bands (ev):

   -85.2531 -45.7003 -45.6324 -45.5795  13.8620  15.0571  15.4141  16.7888
    17.1397  19.2797  29.7076  30.9507  37.1989

          k = 0.8000-0.2000 1.0000 (   729 PWs)   bands (ev):

   -85.2469 -45.7236 -45.6263 -45.6126  13.7262  14.3900  16.5236  17.5075
    17.6993  19.7883  30.3923  31.1558  31.9728

          k = 0.7000-0.1000 0.9000 (   728 PWs)   bands (ev):

   -85.2440 -45.7195 -45.6516 -45.6148  14.0801  14.5116  16.1536  17.2378
    17.8517  22.3144  27.4061  28.8151  32.0598

          k = 0.6000 0.0000 0.8000 (   719 PWs)   bands (ev):

   -85.2443 -45.6942 -45.6824 -45.6058  14.4928  14.7102  15.6379  16.9772
    17.7062  23.9719  25.0523  28.3099  33.3168

          k =-0.2000-1.0000 0.0000 (   724 PWs)   bands (ev):

   -85.2429 -45.7363 -45.6346 -45.6229  13.7305  14.2459  16.9674  17.5318
    17.9619  21.7265  27.3745  30.4894  31.2680

          k = 0.6000-0.2000 1.0000 (   737 PWs)   bands (ev):

   -85.2459 -45.7073 -45.6571 -45.6084  14.3736  14.8635  15.4113  17.0496
    17.6956  21.6968  27.9339  29.6033  31.6210

          k = 0.5000-0.1000 0.9000 (   728 PWs)   bands (ev):

   -85.2440 -45.6971 -45.6746 -45.6147  14.4931  15.0005  15.2906  16.9255
    17.8375  24.2763  25.1100  29.6699  30.3800

          k =-0.4000-1.0000 0.0000 (   726 PWs)   bands (ev):

   -85.2429 -45.7049 -45.6662 -45.6237  14.2667  14.7838  15.7035  17.0509
    17.9624  24.2740  27.2625  27.7898  29.4029

     the Fermi energy is    17.8019 ev

!    total energy              =    -429.14845742 Ry
     Harris-Foulkes estimate   =    -429.14845742 Ry
     estimated scf accuracy    <          9.4E-10 Ry

     total all-electron energy =     -3041.580565 Ry

     The total energy is the sum of the following terms:

     one-electron contribution =    -185.15088730 Ry
     hartree contribution      =     104.80137672 Ry
     xc contribution           =     -34.32488697 Ry
     ewald contribution        =    -223.38275369 Ry
     one-center paw contrib.   =     -91.08915717 Ry
     smearing contrib. (-TS)   =      -0.00214901 Ry

     convergence has been achieved in   6 iterations

     Forces acting on atoms (cartesian axes, Ry/au):

     atom    1 type  1   force =     0.00000000    0.00000000    0.00000000

     Total force =     0.000000     Total SCF correction =     0.000000


     Computing stress (Cartesian axis) and pressure

          total   stress  (Ry/bohr**3)                   (kbar)     P=  -53.46
  -0.00036342  -0.00000000  -0.00000000        -53.46     -0.00     -0.00
  -0.00000000  -0.00036342   0.00000000         -0.00    -53.46      0.00
  -0.00000000   0.00000000  -0.00036342         -0.00      0.00    -53.46


     Writing output data file Ni.save/

     init_run     :      0.43s CPU      0.47s WALL (       1 calls)
     electrons    :      3.89s CPU      4.12s WALL (       1 calls)
     forces       :      0.04s CPU      0.04s WALL (       1 calls)
     stress       :      0.13s CPU      0.14s WALL (       1 calls)

     Called by init_run:
     wfcinit      :      0.17s CPU      0.18s WALL (       1 calls)
     potinit      :      0.10s CPU      0.11s WALL (       1 calls)
     hinit0       :      0.15s CPU      0.15s WALL (       1 calls)

     Called by electrons:
     c_bands      :      2.82s CPU      2.95s WALL (       7 calls)
     sum_band     :      0.48s CPU      0.50s WALL (       7 calls)
     v_of_rho     :      0.02s CPU      0.02s WALL (       7 calls)
     newd         :      0.04s CPU      0.05s WALL (       7 calls)
     PAW_pot      :      0.62s CPU      0.70s WALL (       7 calls)
     mix_rho      :      0.00s CPU      0.00s WALL (       7 calls)

     Called by c_bands:
     init_us_2    :      0.07s CPU      0.07s WALL (     799 calls)
     cegterg      :      2.72s CPU      2.85s WALL (     329 calls)

     Called by sum_band:
     sum_band:bec :      0.00s CPU      0.00s WALL (     329 calls)
     addusdens    :      0.04s CPU      0.04s WALL (       7 calls)

     Called by *egterg:
     h_psi        :      2.05s CPU      2.16s WALL (    1179 calls)
     s_psi        :      0.07s CPU      0.07s WALL (    1179 calls)
     g_psi        :      0.01s CPU      0.01s WALL (     803 calls)
     cdiaghg      :      0.37s CPU      0.38s WALL (    1085 calls)

     Called by h_psi:
     h_psi:pot    :      2.04s CPU      2.15s WALL (    1179 calls)
     h_psi:calbec :      0.09s CPU      0.09s WALL (    1179 calls)
     vloc_psi     :      1.88s CPU      1.98s WALL (    1179 calls)
     add_vuspsi   :      0.06s CPU      0.07s WALL (    1179 calls)

     General routines
     calbec       :      0.14s CPU      0.15s WALL (    1743 calls)
     fft          :      0.02s CPU      0.02s WALL (     104 calls)
     ffts         :      0.00s CPU      0.00s WALL (       7 calls)
     fftw         :      2.10s CPU      2.21s WALL (   26147 calls)

     Parallel routines
     fft_scatt_xy :      0.17s CPU      0.18s WALL (   26258 calls)
     fft_scatt_yz :      0.55s CPU      0.58s WALL (   26258 calls)

     PWSCF        :     5.31s CPU         5.63s WALL


   This run was terminated on:  22:48:29  26Mar2024            

=------------------------------------------------------------------------------=
   JOB DONE.
=------------------------------------------------------------------------------=
