
     Program PWSCF v.6.3MaX starts on 26Mar2024 at 22:19:57 

     This program is part of the open-source Quantum ESPRESSO suite
     for quantum simulation of materials; please cite
         "P. Giannozzi et al., J. Phys.:Condens. Matter 21 395502 (2009);
         "P. Giannozzi et al., J. Phys.:Condens. Matter 29 465901 (2017);
          URL http://www.quantum-espresso.org", 
     in publications or presentations arising from this work. More details at
     http://www.quantum-espresso.org/quote

     Parallel version (MPI), running on     5 processors

     MPI processes distributed on     1 nodes
     R & G space division:  proc/nbgrp/npool/nimage =       5
     Waiting for input...
     Reading input from standard input

     Current dimensions of program PWSCF are:
     Max number of different atomic species (ntypx) = 10
     Max number of k-points (npk) =  40000
     Max angular momentum in pseudopotentials (lmaxx) =  3
               file Ni.pbe-spn-kjpaw_psl.1.0.0.UPF: wavefunction(s)  3P 3D renormalized

     Subspace diagonalization in iterative solution of the eigenvalue problem:
     a serial algorithm will be used


     Parallelization info
     --------------------
     sticks:   dense  smooth     PW     G-vecs:    dense   smooth      PW
     Min         119     119     37                 1967     1967     337
     Max         119     119     38                 1969     1969     338
     Sum         595     595    187                 9841     9841    1687



     bravais-lattice index     =            2
     lattice parameter (alat)  =       6.6500  a.u.
     unit-cell volume          =      73.5199 (a.u.)^3
     number of atoms/cell      =            1
     number of atomic types    =            1
     number of electrons       =        18.00
     number of Kohn-Sham states=           13
     kinetic-energy cutoff     =     100.0000  Ry
     charge density cutoff     =     400.0000  Ry
     convergence threshold     =      1.0E-08
     mixing beta               =       0.7000
     number of iterations used =            8  plain     mixing
     Exchange-correlation      = SLA PW PBX PBC ( 1  4  3  4 0 0)

     celldm(1)=   6.650000  celldm(2)=   0.000000  celldm(3)=   0.000000
     celldm(4)=   0.000000  celldm(5)=   0.000000  celldm(6)=   0.000000

     crystal axes: (cart. coord. in units of alat)
               a(1) = (  -0.500000   0.000000   0.500000 )  
               a(2) = (   0.000000   0.500000   0.500000 )  
               a(3) = (  -0.500000   0.500000   0.000000 )  

     reciprocal axes: (cart. coord. in units 2 pi/alat)
               b(1) = ( -1.000000 -1.000000  1.000000 )  
               b(2) = (  1.000000  1.000000  1.000000 )  
               b(3) = ( -1.000000  1.000000 -1.000000 )  


     PseudoPot. # 1 for Ni read from file:
     /home/lorenzo/pseudos/Ni/Ni.pbe-spn-kjpaw_psl.1.0.0.UPF
     MD5 check sum: 6e86b733589c3ad8389697b807d86aa7
     Pseudo is Projector augmented-wave + core cor, Zval = 18.0
     Generated using "atomic" code by A. Dal Corso v.6.3
     Shape of augmentation charge: PSQ
     Using radial grid of 1195 points,  6 beta functions with: 
                l(1) =   0
                l(2) =   0
                l(3) =   1
                l(4) =   1
                l(5) =   2
                l(6) =   2
     Q(r) pseudized with 0 coefficients 


     atomic species   valence    mass     pseudopotential
        Ni            18.00    58.69340     Ni( 1.00)

     48 Sym. Ops., with inversion, found



   Cartesian axes

     site n.     atom                  positions (alat units)
         1           Ni  tau(   1) = (   0.0000000   0.0000000   0.0000000  )

     number of k points=    10  gaussian smearing, width (Ry)=  0.0100
                       cart. coord. in units 2pi/alat
        k(    1) = (   0.0000000   0.0000000   0.0000000), wk =   0.0160000
        k(    2) = (  -0.2000000   0.2000000  -0.2000000), wk =   0.1280000
        k(    3) = (  -0.4000000   0.4000000  -0.4000000), wk =   0.1280000
        k(    4) = (   0.0000000   0.4000000   0.0000000), wk =   0.0960000
        k(    5) = (  -0.2000000   0.6000000  -0.2000000), wk =   0.3840000
        k(    6) = (   0.6000000  -0.2000000   0.6000000), wk =   0.3840000
        k(    7) = (   0.4000000   0.0000000   0.4000000), wk =   0.1920000
        k(    8) = (   0.0000000   0.8000000   0.0000000), wk =   0.0960000
        k(    9) = (   0.8000000   0.0000000   0.8000000), wk =   0.1920000
        k(   10) = (   0.6000000  -0.2000000   1.0000000), wk =   0.3840000

     Dense  grid:     9841 G-vectors     FFT dimensions: (  30,  30,  30)

     Estimated max dynamical RAM per process >       9.54 MB

     Estimated total dynamical RAM >      47.68 MB

     Check: negative/imaginary core charge=   -0.000004    0.000000

     Initial potential from superposition of free atoms

     starting charge   17.99975, renormalised to   18.00000
     Starting wfcs are   10 randomized atomic wfcs +    3 random wfcs
     Checking if some PAW data can be deallocated... 

     total cpu time spent up to now is        1.1 secs

     Self-consistent Calculation

     iteration #  1     ecut=   100.00 Ry     beta= 0.70
     Davidson diagonalization with overlap
     ethr =  1.00E-02,  avg # of iterations =  4.1

     Threshold (ethr) on eigenvalues was too large:
     Diagonalizing with lowered threshold

     Davidson diagonalization with overlap
     ethr =  3.22E-05,  avg # of iterations =  3.5

     total cpu time spent up to now is        1.6 secs

     total energy              =    -429.14951206 Ry
     Harris-Foulkes estimate   =    -429.15368386 Ry
     estimated scf accuracy    <       0.00589090 Ry

     iteration #  2     ecut=   100.00 Ry     beta= 0.70
     Davidson diagonalization with overlap
     ethr =  3.27E-05,  avg # of iterations =  2.7

     total cpu time spent up to now is        1.9 secs

     total energy              =    -429.14846928 Ry
     Harris-Foulkes estimate   =    -429.15679867 Ry
     estimated scf accuracy    <       0.02284095 Ry

     iteration #  3     ecut=   100.00 Ry     beta= 0.70
     Davidson diagonalization with overlap
     ethr =  3.27E-05,  avg # of iterations =  2.1

     total cpu time spent up to now is        2.2 secs

     total energy              =    -429.15237549 Ry
     Harris-Foulkes estimate   =    -429.15240611 Ry
     estimated scf accuracy    <       0.00010615 Ry

     iteration #  4     ecut=   100.00 Ry     beta= 0.70
     Davidson diagonalization with overlap
     ethr =  5.90E-07,  avg # of iterations =  2.5

     total cpu time spent up to now is        2.5 secs

     total energy              =    -429.15239914 Ry
     Harris-Foulkes estimate   =    -429.15239909 Ry
     estimated scf accuracy    <       0.00000059 Ry

     iteration #  5     ecut=   100.00 Ry     beta= 0.70
     Davidson diagonalization with overlap
     ethr =  3.28E-09,  avg # of iterations =  2.4

     total cpu time spent up to now is        2.7 secs

     total energy              =    -429.15239932 Ry
     Harris-Foulkes estimate   =    -429.15239934 Ry
     estimated scf accuracy    <       0.00000006 Ry

     iteration #  6     ecut=   100.00 Ry     beta= 0.70
     Davidson diagonalization with overlap
     ethr =  3.45E-10,  avg # of iterations =  2.2

     total cpu time spent up to now is        3.0 secs

     End of self-consistent calculation

          k = 0.0000 0.0000 0.0000 (  1243 PWs)   bands (ev):

   -85.1974 -45.4669 -45.4669 -45.4669   8.8255  15.9781  15.9781  15.9781
    17.0867  17.0867  41.4851  45.4369  45.4369

          k =-0.2000 0.2000-0.2000 (  1242 PWs)   bands (ev):

   -85.1857 -45.5440 -45.4779 -45.4779  10.3246  15.6516  16.1878  16.1878
    17.0759  17.0759  34.8748  42.0131  43.6312

          k =-0.4000 0.4000-0.4000 (  1251 PWs)   bands (ev):

   -85.1667 -45.6677 -45.4959 -45.4959  13.0581  15.9885  15.9885  16.4891
    17.6914  17.6914  25.8792  40.2978  42.6571

          k = 0.0000 0.4000 0.0000 (  1251 PWs)   bands (ev):

   -85.1818 -45.5411 -45.4957 -45.4957  10.7983  15.2964  16.5258  16.5511
    16.5511  17.3343  38.8184  38.8184  39.2288

          k =-0.2000 0.6000-0.2000 (  1252 PWs)   bands (ev):

   -85.1652 -45.6310 -45.5244 -45.5156  13.2615  14.9620  15.8842  16.6548
    17.7885  18.2517  29.4113  36.1407  36.9401

          k = 0.6000-0.2000 0.6000 (  1228 PWs)   bands (ev):

   -85.1589 -45.6598 -45.5537 -45.5102  14.1256  15.2467  15.8619  16.4526
    17.6540  20.8364  24.5288  33.0979  38.7274

          k = 0.4000 0.0000 0.4000 (  1241 PWs)   bands (ev):

   -85.1715 -45.6019 -45.5296 -45.4870  12.4605  15.2803  15.9191  16.6133
    16.7418  18.1605  32.2401  33.0845  43.1347

          k = 0.0000 0.8000 0.0000 (  1246 PWs)   bands (ev):

   -85.1566 -45.6574 -45.5422 -45.5422  13.4578  14.2804  17.7470  17.7641
    17.7641  18.3907  30.1590  33.4996  33.4996

          k = 0.8000 0.0000 0.8000 (  1248 PWs)   bands (ev):

   -85.1526 -45.6531 -45.5827 -45.5389  14.0048  14.4212  16.5866  17.4151
    17.8542  22.7837  26.8236  27.8579  34.2373

          k = 0.6000-0.2000 1.0000 (  1231 PWs)   bands (ev):

   -85.1550 -45.6352 -45.5845 -45.5355  14.4076  14.9097  15.4558  17.1057
    17.7583  21.7252  27.9516  29.6142  31.6318

     the Fermi energy is    17.8426 ev

!    total energy              =    -429.15239932 Ry
     Harris-Foulkes estimate   =    -429.15239933 Ry
     estimated scf accuracy    <          7.4E-10 Ry

     total all-electron energy =     -3041.584507 Ry

     The total energy is the sum of the following terms:

     one-electron contribution =    -185.23017726 Ry
     hartree contribution      =     104.89394820 Ry
     xc contribution           =     -34.34050683 Ry
     ewald contribution        =    -223.38275369 Ry
     one-center paw contrib.   =     -91.08978514 Ry
     smearing contrib. (-TS)   =      -0.00312460 Ry

     convergence has been achieved in   6 iterations

     Forces acting on atoms (cartesian axes, Ry/au):

     atom    1 type  1   force =     0.00000000    0.00000000    0.00000000

     Total force =     0.000000     Total SCF correction =     0.000000


     Computing stress (Cartesian axis) and pressure

          total   stress  (Ry/bohr**3)                   (kbar)     P=   13.85
   0.00009415  -0.00000000  -0.00000000         13.85     -0.00     -0.00
  -0.00000000   0.00009415   0.00000000         -0.00     13.85      0.00
  -0.00000000   0.00000000   0.00009415         -0.00      0.00     13.85


     Writing output data file Ni.save/

     init_run     :      0.38s CPU      0.40s WALL (       1 calls)
     electrons    :      1.78s CPU      1.86s WALL (       1 calls)
     forces       :      0.04s CPU      0.04s WALL (       1 calls)
     stress       :      0.12s CPU      0.12s WALL (       1 calls)

     Called by init_run:
     wfcinit      :      0.05s CPU      0.05s WALL (       1 calls)
     potinit      :      0.11s CPU      0.12s WALL (       1 calls)
     hinit0       :      0.18s CPU      0.18s WALL (       1 calls)

     Called by electrons:
     c_bands      :      0.94s CPU      0.97s WALL (       7 calls)
     sum_band     :      0.21s CPU      0.22s WALL (       7 calls)
     v_of_rho     :      0.04s CPU      0.04s WALL (       7 calls)
     newd         :      0.07s CPU      0.09s WALL (       7 calls)
     PAW_pot      :      0.62s CPU      0.67s WALL (       7 calls)
     mix_rho      :      0.00s CPU      0.00s WALL (       7 calls)

     Called by c_bands:
     init_us_2    :      0.03s CPU      0.03s WALL (     170 calls)
     cegterg      :      0.91s CPU      0.93s WALL (      70 calls)

     Called by sum_band:
     sum_band:bec :      0.00s CPU      0.00s WALL (      70 calls)
     addusdens    :      0.06s CPU      0.07s WALL (       7 calls)

     Called by *egterg:
     h_psi        :      0.68s CPU      0.70s WALL (     275 calls)
     s_psi        :      0.02s CPU      0.02s WALL (     275 calls)
     g_psi        :      0.00s CPU      0.00s WALL (     195 calls)
     cdiaghg      :      0.10s CPU      0.10s WALL (     255 calls)

     Called by h_psi:
     h_psi:pot    :      0.67s CPU      0.70s WALL (     275 calls)
     h_psi:calbec :      0.03s CPU      0.04s WALL (     275 calls)
     vloc_psi     :      0.61s CPU      0.64s WALL (     275 calls)
     add_vuspsi   :      0.02s CPU      0.02s WALL (     275 calls)

     General routines
     calbec       :      0.06s CPU      0.06s WALL (     395 calls)
     fft          :      0.03s CPU      0.03s WALL (     104 calls)
     ffts         :      0.00s CPU      0.00s WALL (       7 calls)
     fftw         :      0.68s CPU      0.71s WALL (    5706 calls)

     Parallel routines
     fft_scatt_xy :      0.06s CPU      0.06s WALL (    5817 calls)
     fft_scatt_yz :      0.17s CPU      0.18s WALL (    5817 calls)

     PWSCF        :     3.05s CPU         3.21s WALL


   This run was terminated on:  22:20: 1  26Mar2024            

=------------------------------------------------------------------------------=
   JOB DONE.
=------------------------------------------------------------------------------=
