
     Program PWSCF v.6.3MaX starts on 26Mar2024 at 22:28:44 

     This program is part of the open-source Quantum ESPRESSO suite
     for quantum simulation of materials; please cite
         "P. Giannozzi et al., J. Phys.:Condens. Matter 21 395502 (2009);
         "P. Giannozzi et al., J. Phys.:Condens. Matter 29 465901 (2017);
          URL http://www.quantum-espresso.org", 
     in publications or presentations arising from this work. More details at
     http://www.quantum-espresso.org/quote

     Parallel version (MPI), running on     5 processors

     MPI processes distributed on     1 nodes
     R & G space division:  proc/nbgrp/npool/nimage =       5
     Waiting for input...
     Reading input from standard input

     Current dimensions of program PWSCF are:
     Max number of different atomic species (ntypx) = 10
     Max number of k-points (npk) =  40000
     Max angular momentum in pseudopotentials (lmaxx) =  3

     Subspace diagonalization in iterative solution of the eigenvalue problem:
     a serial algorithm will be used


     Parallelization info
     --------------------
     sticks:   dense  smooth     PW     G-vecs:    dense   smooth      PW
     Min          30      30     11                  248      248      56
     Max          31      31     11                  251      251      58
     Sum         151     151     55                 1243     1243     283



     bravais-lattice index     =            2
     lattice parameter (alat)  =       6.6500  a.u.
     unit-cell volume          =      73.5199 (a.u.)^3
     number of atoms/cell      =            1
     number of atomic types    =            1
     number of electrons       =        18.00
     number of Kohn-Sham states=           13
     kinetic-energy cutoff     =      25.0000  Ry
     charge density cutoff     =     100.0000  Ry
     convergence threshold     =      1.0E-08
     mixing beta               =       0.7000
     number of iterations used =            8  plain     mixing
     Exchange-correlation      = PBE ( 1  4  3  4 0 0)

     celldm(1)=   6.650000  celldm(2)=   0.000000  celldm(3)=   0.000000
     celldm(4)=   0.000000  celldm(5)=   0.000000  celldm(6)=   0.000000

     crystal axes: (cart. coord. in units of alat)
               a(1) = (  -0.500000   0.000000   0.500000 )  
               a(2) = (   0.000000   0.500000   0.500000 )  
               a(3) = (  -0.500000   0.500000   0.000000 )  

     reciprocal axes: (cart. coord. in units 2 pi/alat)
               b(1) = ( -1.000000 -1.000000  1.000000 )  
               b(2) = (  1.000000  1.000000  1.000000 )  
               b(3) = ( -1.000000  1.000000 -1.000000 )  


     PseudoPot. # 1 for Ni read from file:
     /home/lorenzo/pseudos/Ni/Ni.pbe-spn-rrkjus_psl.1.0.0.UPF
     MD5 check sum: 8b3fc9aac6dafe35f580d41bb18c3945
     Pseudo is Ultrasoft + core correction, Zval = 18.0
     Generated using "atomic" code by A. Dal Corso v.6.3
     Using radial grid of 1195 points,  6 beta functions with: 
                l(1) =   0
                l(2) =   0
                l(3) =   1
                l(4) =   1
                l(5) =   2
                l(6) =   2
     Q(r) pseudized with 0 coefficients 


     atomic species   valence    mass     pseudopotential
        Ni            18.00    58.69340     Ni( 1.00)

     48 Sym. Ops., with inversion, found



   Cartesian axes

     site n.     atom                  positions (alat units)
         1           Ni  tau(   1) = (   0.0000000   0.0000000   0.0000000  )

     number of k points=     8  gaussian smearing, width (Ry)=  0.0100
                       cart. coord. in units 2pi/alat
        k(    1) = (   0.0000000   0.0000000   0.0000000), wk =   0.0312500
        k(    2) = (  -0.2500000   0.2500000  -0.2500000), wk =   0.2500000
        k(    3) = (   0.5000000  -0.5000000   0.5000000), wk =   0.1250000
        k(    4) = (   0.0000000   0.5000000   0.0000000), wk =   0.1875000
        k(    5) = (   0.7500000  -0.2500000   0.7500000), wk =   0.7500000
        k(    6) = (   0.5000000   0.0000000   0.5000000), wk =   0.3750000
        k(    7) = (   0.0000000  -1.0000000   0.0000000), wk =   0.0937500
        k(    8) = (  -0.5000000  -1.0000000   0.0000000), wk =   0.1875000

     Dense  grid:     1243 G-vectors     FFT dimensions: (  15,  15,  15)

     Estimated max dynamical RAM per process >       1.84 MB

     Estimated total dynamical RAM >       9.18 MB

     Check: negative/imaginary core charge=   -0.000244    0.000000

     Initial potential from superposition of free atoms
     Check: negative starting charge=   -0.002907

     starting charge   17.99975, renormalised to   18.00000

     negative rho (up, down):  2.907E-03 0.000E+00
     Starting wfcs are   10 randomized atomic wfcs +    3 random wfcs

     total cpu time spent up to now is        0.8 secs

     Self-consistent Calculation

     iteration #  1     ecut=    25.00 Ry     beta= 0.70
     Davidson diagonalization with overlap
     ethr =  1.00E-02,  avg # of iterations =  4.2

     total cpu time spent up to now is        0.9 secs

     total energy              =    -323.82211605 Ry
     Harris-Foulkes estimate   =    -329.78762331 Ry
     estimated scf accuracy    <       7.42083733 Ry

     iteration #  2     ecut=    25.00 Ry     beta= 0.70
     Davidson diagonalization with overlap
     ethr =  1.00E-02,  avg # of iterations =  2.2

     total cpu time spent up to now is        0.9 secs

     total energy              =    -326.24949230 Ry
     Harris-Foulkes estimate   =    -330.84807839 Ry
     estimated scf accuracy    <       9.61877452 Ry

     iteration #  3     ecut=    25.00 Ry     beta= 0.70
     Davidson diagonalization with overlap
     ethr =  1.00E-02,  avg # of iterations =  2.0

     negative rho (up, down):  4.960E-04 0.000E+00

     total cpu time spent up to now is        0.9 secs

     total energy              =    -327.34079867 Ry
     Harris-Foulkes estimate   =    -327.42925208 Ry
     estimated scf accuracy    <       0.13825865 Ry

     iteration #  4     ecut=    25.00 Ry     beta= 0.70
     Davidson diagonalization with overlap
     ethr =  7.68E-04,  avg # of iterations =  2.0

     total cpu time spent up to now is        1.0 secs

     total energy              =    -327.35940854 Ry
     Harris-Foulkes estimate   =    -327.45147994 Ry
     estimated scf accuracy    <       0.29770695 Ry

     iteration #  5     ecut=    25.00 Ry     beta= 0.70
     Davidson diagonalization with overlap
     ethr =  7.68E-04,  avg # of iterations =  1.6

     total cpu time spent up to now is        1.0 secs

     total energy              =    -327.38052959 Ry
     Harris-Foulkes estimate   =    -327.38371091 Ry
     estimated scf accuracy    <       0.01126694 Ry

     iteration #  6     ecut=    25.00 Ry     beta= 0.70
     Davidson diagonalization with overlap
     ethr =  6.26E-05,  avg # of iterations =  1.1

     total cpu time spent up to now is        1.0 secs

     total energy              =    -327.38189729 Ry
     Harris-Foulkes estimate   =    -327.38192074 Ry
     estimated scf accuracy    <       0.00004280 Ry

     iteration #  7     ecut=    25.00 Ry     beta= 0.70
     Davidson diagonalization with overlap
     ethr =  2.38E-07,  avg # of iterations =  2.4

     total cpu time spent up to now is        1.1 secs

     total energy              =    -327.38175778 Ry
     Harris-Foulkes estimate   =    -327.38204032 Ry
     estimated scf accuracy    <       0.00088447 Ry

     iteration #  8     ecut=    25.00 Ry     beta= 0.70
     Davidson diagonalization with overlap
     ethr =  2.38E-07,  avg # of iterations =  2.0

     total cpu time spent up to now is        1.1 secs

     total energy              =    -327.38191960 Ry
     Harris-Foulkes estimate   =    -327.38193982 Ry
     estimated scf accuracy    <       0.00013826 Ry

     iteration #  9     ecut=    25.00 Ry     beta= 0.70
     Davidson diagonalization with overlap
     ethr =  2.38E-07,  avg # of iterations =  1.0

     total cpu time spent up to now is        1.1 secs

     total energy              =    -327.38192180 Ry
     Harris-Foulkes estimate   =    -327.38192514 Ry
     estimated scf accuracy    <       0.00002042 Ry

     iteration # 10     ecut=    25.00 Ry     beta= 0.70
     Davidson diagonalization with overlap
     ethr =  1.13E-07,  avg # of iterations =  1.0

     total cpu time spent up to now is        1.1 secs

     total energy              =    -327.38192230 Ry
     Harris-Foulkes estimate   =    -327.38192283 Ry
     estimated scf accuracy    <       0.00000193 Ry

     iteration # 11     ecut=    25.00 Ry     beta= 0.70
     Davidson diagonalization with overlap
     ethr =  1.07E-08,  avg # of iterations =  1.1

     total cpu time spent up to now is        1.2 secs

     total energy              =    -327.38192258 Ry
     Harris-Foulkes estimate   =    -327.38192261 Ry
     estimated scf accuracy    <       0.00000010 Ry

     iteration # 12     ecut=    25.00 Ry     beta= 0.70
     Davidson diagonalization with overlap
     ethr =  5.39E-10,  avg # of iterations =  1.1

     total cpu time spent up to now is        1.2 secs

     End of self-consistent calculation

          k = 0.0000 0.0000 0.0000 (   169 PWs)   bands (ev):

   -99.5255 -49.1149 -49.1149 -49.1149   9.9681  12.7301  12.7301  14.0410
    14.0410  14.0410  42.7280  46.1218  46.3420

          k =-0.2500 0.2500-0.2500 (   150 PWs)   bands (ev):

   -99.0519 -45.5007 -45.5007 -42.8162  12.3977  16.7301  16.7301  18.5373
    19.5609  19.5609  33.8857  42.7566  43.5036

          k = 0.5000-0.5000 0.5000 (   156 PWs)   bands (ev):

   -99.1389 -47.2695 -45.1423 -45.1423  12.4128  17.0313  17.0313  18.3868
    19.1923  19.1923  22.6139  41.2312  43.4864

          k = 0.0000 0.5000 0.0000 (   149 PWs)   bands (ev):

   -98.9923 -44.7368 -44.7368 -43.0291  13.0897  16.0144  18.7887  19.0402
    19.9309  19.9309  38.1716  38.1716  38.2541

          k = 0.7500-0.2500 0.7500 (   154 PWs)   bands (ev):

   -99.0489 -46.3951 -44.6277 -44.3711  13.8925  16.4107  17.5917  18.0879
    19.9278  20.0000  27.7468  33.2549  37.3470

          k = 0.5000 0.0000 0.5000 (   156 PWs)   bands (ev):

   -99.1234 -46.4612 -45.3904 -45.3830  13.7053  15.7994  16.2994  17.6372
    18.2638  18.4149  31.6325  31.7512  41.4608

          k = 0.0000-1.0000 0.0000 (   150 PWs)   bands (ev):

   -98.9479 -44.1543 -44.1543 -44.0185  15.6939  17.2207  19.0201  20.3202
    20.3202  21.3798  28.1586  33.7342  33.7342

          k =-0.5000-1.0000 0.0000 (   156 PWs)   bands (ev):

   -99.0919 -45.7512 -45.7512 -45.2284  15.7226  16.2093  16.2093  16.7158
    17.2874  26.9282  26.9282  28.8314  30.4182

     the Fermi energy is    19.8647 ev

!    total energy              =    -327.38192259 Ry
     Harris-Foulkes estimate   =    -327.38192259 Ry
     estimated scf accuracy    <          2.3E-09 Ry

     The total energy is the sum of the following terms:

     one-electron contribution =    -162.25434697 Ry
     hartree contribution      =      91.19767314 Ry
     xc contribution           =     -32.93915601 Ry
     ewald contribution        =    -223.38275373 Ry
     smearing contrib. (-TS)   =      -0.00333903 Ry

     convergence has been achieved in  12 iterations

     Forces acting on atoms (cartesian axes, Ry/au):

     atom    1 type  1   force =     0.00000000    0.00000000    0.00000000

     Total force =     0.000000     Total SCF correction =     0.000000


     Computing stress (Cartesian axis) and pressure

          total   stress  (Ry/bohr**3)                   (kbar)     P=********
  -0.54446243   0.00000000  -0.00000000     -80093.18      0.00     -0.00
   0.00000000  -0.54446243   0.00000000          0.00 -80093.18      0.00
  -0.00000000   0.00000000  -0.54446243         -0.00      0.00 -80093.18


     Writing output data file Ni.save/

     init_run     :      0.10s CPU      0.10s WALL (       1 calls)
     electrons    :      0.35s CPU      0.40s WALL (       1 calls)
     forces       :      0.01s CPU      0.01s WALL (       1 calls)
     stress       :      0.02s CPU      0.02s WALL (       1 calls)

     Called by init_run:
     wfcinit      :      0.01s CPU      0.01s WALL (       1 calls)
     potinit      :      0.00s CPU      0.00s WALL (       1 calls)
     hinit0       :      0.08s CPU      0.08s WALL (       1 calls)

     Called by electrons:
     c_bands      :      0.27s CPU      0.30s WALL (      12 calls)
     sum_band     :      0.05s CPU      0.06s WALL (      12 calls)
     v_of_rho     :      0.01s CPU      0.01s WALL (      13 calls)
     newd         :      0.02s CPU      0.02s WALL (      13 calls)
     mix_rho      :      0.00s CPU      0.00s WALL (      12 calls)

     Called by c_bands:
     init_us_2    :      0.01s CPU      0.01s WALL (     216 calls)
     cegterg      :      0.26s CPU      0.29s WALL (      96 calls)

     Called by sum_band:
     sum_band:bec :      0.00s CPU      0.00s WALL (      96 calls)
     addusdens    :      0.01s CPU      0.01s WALL (      12 calls)

     Called by *egterg:
     h_psi        :      0.15s CPU      0.17s WALL (     279 calls)
     s_psi        :      0.01s CPU      0.01s WALL (     279 calls)
     g_psi        :      0.00s CPU      0.00s WALL (     175 calls)
     cdiaghg      :      0.07s CPU      0.08s WALL (     271 calls)

     Called by h_psi:
     h_psi:pot    :      0.15s CPU      0.17s WALL (     279 calls)
     h_psi:calbec :      0.01s CPU      0.01s WALL (     279 calls)
     vloc_psi     :      0.14s CPU      0.15s WALL (     279 calls)
     add_vuspsi   :      0.01s CPU      0.01s WALL (     279 calls)

     General routines
     calbec       :      0.01s CPU      0.01s WALL (     415 calls)
     fft          :      0.01s CPU      0.01s WALL (     169 calls)
     ffts         :      0.00s CPU      0.00s WALL (      12 calls)
     fftw         :      0.15s CPU      0.17s WALL (    7296 calls)

     Parallel routines
     fft_scatt_xy :      0.02s CPU      0.02s WALL (    7477 calls)
     fft_scatt_yz :      0.06s CPU      0.06s WALL (    7477 calls)

     PWSCF        :     1.17s CPU         1.27s WALL


   This run was terminated on:  22:28:45  26Mar2024            

=------------------------------------------------------------------------------=
   JOB DONE.
=------------------------------------------------------------------------------=
