
     Program PWSCF v.6.3MaX starts on 26Mar2024 at 22:36: 3 

     This program is part of the open-source Quantum ESPRESSO suite
     for quantum simulation of materials; please cite
         "P. Giannozzi et al., J. Phys.:Condens. Matter 21 395502 (2009);
         "P. Giannozzi et al., J. Phys.:Condens. Matter 29 465901 (2017);
          URL http://www.quantum-espresso.org", 
     in publications or presentations arising from this work. More details at
     http://www.quantum-espresso.org/quote

     Parallel version (MPI), running on     5 processors

     MPI processes distributed on     1 nodes
     R & G space division:  proc/nbgrp/npool/nimage =       5
     Waiting for input...
     Reading input from standard input

     Current dimensions of program PWSCF are:
     Max number of different atomic species (ntypx) = 10
     Max number of k-points (npk) =  40000
     Max angular momentum in pseudopotentials (lmaxx) =  3

     Subspace diagonalization in iterative solution of the eigenvalue problem:
     a serial algorithm will be used


     Parallelization info
     --------------------
     sticks:   dense  smooth     PW     G-vecs:    dense   smooth      PW
     Min          53      53     18                  595      595     121
     Max          56      56     19                  595      595     123
     Sum         271     271     91                 2975     2975     609



     bravais-lattice index     =            2
     lattice parameter (alat)  =       6.6500  a.u.
     unit-cell volume          =      73.5199 (a.u.)^3
     number of atoms/cell      =            1
     number of atomic types    =            1
     number of electrons       =        18.00
     number of Kohn-Sham states=           13
     kinetic-energy cutoff     =      45.0000  Ry
     charge density cutoff     =     180.0000  Ry
     convergence threshold     =      1.0E-08
     mixing beta               =       0.7000
     number of iterations used =            8  plain     mixing
     Exchange-correlation      = PBE ( 1  4  3  4 0 0)

     celldm(1)=   6.650000  celldm(2)=   0.000000  celldm(3)=   0.000000
     celldm(4)=   0.000000  celldm(5)=   0.000000  celldm(6)=   0.000000

     crystal axes: (cart. coord. in units of alat)
               a(1) = (  -0.500000   0.000000   0.500000 )  
               a(2) = (   0.000000   0.500000   0.500000 )  
               a(3) = (  -0.500000   0.500000   0.000000 )  

     reciprocal axes: (cart. coord. in units 2 pi/alat)
               b(1) = ( -1.000000 -1.000000  1.000000 )  
               b(2) = (  1.000000  1.000000  1.000000 )  
               b(3) = ( -1.000000  1.000000 -1.000000 )  


     PseudoPot. # 1 for Ni read from file:
     /home/lorenzo/pseudos/Ni/Ni.pbe-spn-rrkjus_psl.1.0.0.UPF
     MD5 check sum: 8b3fc9aac6dafe35f580d41bb18c3945
     Pseudo is Ultrasoft + core correction, Zval = 18.0
     Generated using "atomic" code by A. Dal Corso v.6.3
     Using radial grid of 1195 points,  6 beta functions with: 
                l(1) =   0
                l(2) =   0
                l(3) =   1
                l(4) =   1
                l(5) =   2
                l(6) =   2
     Q(r) pseudized with 0 coefficients 


     atomic species   valence    mass     pseudopotential
        Ni            18.00    58.69340     Ni( 1.00)

     48 Sym. Ops., with inversion, found



   Cartesian axes

     site n.     atom                  positions (alat units)
         1           Ni  tau(   1) = (   0.0000000   0.0000000   0.0000000  )

     number of k points=    47  gaussian smearing, width (Ry)=  0.0100
                       cart. coord. in units 2pi/alat
        k(    1) = (   0.0000000   0.0000000   0.0000000), wk =   0.0020000
        k(    2) = (  -0.1000000   0.1000000  -0.1000000), wk =   0.0160000
        k(    3) = (  -0.2000000   0.2000000  -0.2000000), wk =   0.0160000
        k(    4) = (  -0.3000000   0.3000000  -0.3000000), wk =   0.0160000
        k(    5) = (  -0.4000000   0.4000000  -0.4000000), wk =   0.0160000
        k(    6) = (   0.5000000  -0.5000000   0.5000000), wk =   0.0080000
        k(    7) = (   0.0000000   0.2000000   0.0000000), wk =   0.0120000
        k(    8) = (  -0.1000000   0.3000000  -0.1000000), wk =   0.0480000
        k(    9) = (  -0.2000000   0.4000000  -0.2000000), wk =   0.0480000
        k(   10) = (  -0.3000000   0.5000000  -0.3000000), wk =   0.0480000
        k(   11) = (   0.6000000  -0.4000000   0.6000000), wk =   0.0480000
        k(   12) = (   0.5000000  -0.3000000   0.5000000), wk =   0.0480000
        k(   13) = (   0.4000000  -0.2000000   0.4000000), wk =   0.0480000
        k(   14) = (   0.3000000  -0.1000000   0.3000000), wk =   0.0480000
        k(   15) = (   0.2000000   0.0000000   0.2000000), wk =   0.0240000
        k(   16) = (   0.0000000   0.4000000   0.0000000), wk =   0.0120000
        k(   17) = (  -0.1000000   0.5000000  -0.1000000), wk =   0.0480000
        k(   18) = (  -0.2000000   0.6000000  -0.2000000), wk =   0.0480000
        k(   19) = (   0.7000000  -0.3000000   0.7000000), wk =   0.0480000
        k(   20) = (   0.6000000  -0.2000000   0.6000000), wk =   0.0480000
        k(   21) = (   0.5000000  -0.1000000   0.5000000), wk =   0.0480000
        k(   22) = (   0.4000000   0.0000000   0.4000000), wk =   0.0240000
        k(   23) = (   0.0000000   0.6000000   0.0000000), wk =   0.0120000
        k(   24) = (  -0.1000000   0.7000000  -0.1000000), wk =   0.0480000
        k(   25) = (   0.8000000  -0.2000000   0.8000000), wk =   0.0480000
        k(   26) = (   0.7000000  -0.1000000   0.7000000), wk =   0.0480000
        k(   27) = (   0.6000000  -0.0000000   0.6000000), wk =   0.0240000
        k(   28) = (   0.0000000   0.8000000   0.0000000), wk =   0.0120000
        k(   29) = (   0.9000000  -0.1000000   0.9000000), wk =   0.0480000
        k(   30) = (   0.8000000   0.0000000   0.8000000), wk =   0.0240000
        k(   31) = (   0.0000000  -1.0000000   0.0000000), wk =   0.0060000
        k(   32) = (  -0.2000000   0.4000000   0.0000000), wk =   0.0480000
        k(   33) = (  -0.3000000   0.5000000  -0.1000000), wk =   0.0960000
        k(   34) = (   0.6000000  -0.4000000   0.8000000), wk =   0.0960000
        k(   35) = (   0.5000000  -0.3000000   0.7000000), wk =   0.0480000
        k(   36) = (  -0.2000000   0.6000000   0.0000000), wk =   0.0480000
        k(   37) = (   0.7000000  -0.3000000   0.9000000), wk =   0.0960000
        k(   38) = (   0.6000000  -0.2000000   0.8000000), wk =   0.0960000
        k(   39) = (   0.5000000  -0.1000000   0.7000000), wk =   0.0960000
        k(   40) = (   0.4000000   0.0000000   0.6000000), wk =   0.0480000
        k(   41) = (   0.8000000  -0.2000000   1.0000000), wk =   0.0480000
        k(   42) = (   0.7000000  -0.1000000   0.9000000), wk =   0.0960000
        k(   43) = (   0.6000000   0.0000000   0.8000000), wk =   0.0480000
        k(   44) = (  -0.2000000  -1.0000000   0.0000000), wk =   0.0240000
        k(   45) = (   0.6000000  -0.2000000   1.0000000), wk =   0.0480000
        k(   46) = (   0.5000000  -0.1000000   0.9000000), wk =   0.0480000
        k(   47) = (  -0.4000000  -1.0000000   0.0000000), wk =   0.0240000

     Dense  grid:     2975 G-vectors     FFT dimensions: (  24,  24,  24)

     Estimated max dynamical RAM per process >       4.14 MB

     Estimated total dynamical RAM >      20.72 MB

     Check: negative/imaginary core charge=   -0.000034    0.000000

     Initial potential from superposition of free atoms

     starting charge   17.99975, renormalised to   18.00000
     Starting wfcs are   10 randomized atomic wfcs +    3 random wfcs

     total cpu time spent up to now is        0.9 secs

     Self-consistent Calculation

     iteration #  1     ecut=    45.00 Ry     beta= 0.70
     Davidson diagonalization with overlap
     ethr =  1.00E-02,  avg # of iterations =  4.0

     Threshold (ethr) on eigenvalues was too large:
     Diagonalizing with lowered threshold

     Davidson diagonalization with overlap
     ethr =  3.38E-05,  avg # of iterations =  2.0

     total cpu time spent up to now is        1.7 secs

     total energy              =    -339.43748712 Ry
     Harris-Foulkes estimate   =    -339.43939003 Ry
     estimated scf accuracy    <       0.00615764 Ry

     iteration #  2     ecut=    45.00 Ry     beta= 0.70
     Davidson diagonalization with overlap
     ethr =  3.42E-05,  avg # of iterations =  1.0

     total cpu time spent up to now is        1.9 secs

     total energy              =    -339.43780639 Ry
     Harris-Foulkes estimate   =    -339.43799260 Ry
     estimated scf accuracy    <       0.00055587 Ry

     iteration #  3     ecut=    45.00 Ry     beta= 0.70
     Davidson diagonalization with overlap
     ethr =  3.09E-06,  avg # of iterations =  2.3

     total cpu time spent up to now is        2.3 secs

     total energy              =    -339.43768176 Ry
     Harris-Foulkes estimate   =    -339.43836752 Ry
     estimated scf accuracy    <       0.00193061 Ry

     iteration #  4     ecut=    45.00 Ry     beta= 0.70
     Davidson diagonalization with overlap
     ethr =  3.09E-06,  avg # of iterations =  2.1

     total cpu time spent up to now is        2.7 secs

     total energy              =    -339.43802011 Ry
     Harris-Foulkes estimate   =    -339.43802316 Ry
     estimated scf accuracy    <       0.00002169 Ry

     iteration #  5     ecut=    45.00 Ry     beta= 0.70
     Davidson diagonalization with overlap
     ethr =  1.20E-07,  avg # of iterations =  2.0

     total cpu time spent up to now is        3.0 secs

     total energy              =    -339.43802406 Ry
     Harris-Foulkes estimate   =    -339.43802412 Ry
     estimated scf accuracy    <       0.00000019 Ry

     iteration #  6     ecut=    45.00 Ry     beta= 0.70
     Davidson diagonalization with overlap
     ethr =  1.04E-09,  avg # of iterations =  2.0

     total cpu time spent up to now is        3.4 secs

     End of self-consistent calculation

          k = 0.0000 0.0000 0.0000 (   339 PWs)   bands (ev):

   -85.3458 -45.2752 -45.2752 -45.2752   8.9657  16.0129  16.0129  16.0129
    17.1461  17.1461  41.4806  45.4258  45.4258

          k =-0.1000 0.1000-0.1000 (   362 PWs)   bands (ev):

   -85.3431 -45.4292 -45.3581 -45.3581   9.3295  15.8839  16.0619  16.0619
    17.0211  17.0211  39.7453  42.8155  44.5959

          k =-0.2000 0.2000-0.2000 (   362 PWs)   bands (ev):

   -85.3346 -45.4825 -45.3712 -45.3712  10.4292  15.6648  16.1947  16.1947
    17.0278  17.0278  34.8611  42.0337  43.5708

          k =-0.3000 0.3000-0.3000 (   365 PWs)   bands (ev):

   -85.3240 -45.5896 -45.3683 -45.3683  11.9805  15.6120  16.1425  16.1425
    17.3004  17.3004  30.0130  41.1256  42.9099

          k =-0.4000 0.4000-0.4000 (   368 PWs)   bands (ev):

   -85.3155 -45.6394 -45.3918 -45.3918  13.1365  15.9968  15.9968  16.4777
    17.6303  17.6303  25.9181  40.3059  42.6068

          k = 0.5000-0.5000 0.5000 (   368 PWs)   bands (ev):

   -85.3122 -45.6824 -45.3829 -45.3829  13.4055  15.9402  15.9402  17.5240
    17.7808  17.7808  23.8699  39.9902  42.5468

          k = 0.0000 0.2000 0.0000 (   355 PWs)   bands (ev):

   -85.3418 -45.4319 -45.3166 -45.3166   9.4644  15.8201  16.1091  16.1091
    16.9016  17.1937  40.5344  42.4360  42.4360

          k =-0.1000 0.3000-0.1000 (   364 PWs)   bands (ev):

   -85.3353 -45.4647 -45.4151 -45.3560  10.3151  15.5773  16.2389  16.2821
    16.7828  17.2017  36.7887  40.8469  40.9314

          k =-0.2000 0.4000-0.2000 (   369 PWs)   bands (ev):

   -85.3255 -45.5430 -45.4352 -45.3879  11.7294  15.3920  16.1002  16.2973
    17.1416  17.4058  31.8157  39.8914  40.0657

          k =-0.3000 0.5000-0.3000 (   372 PWs)   bands (ev):

   -85.3163 -45.6109 -45.4452 -45.4113  13.0949  15.6323  15.9323  16.1712
    17.6842  17.8940  27.3630  39.0888  39.6359

          k = 0.6000-0.4000 0.6000 (   375 PWs)   bands (ev):

   -85.3113 -45.6830 -45.4413 -45.4187  13.5906  15.7145  16.0697  16.4324
    17.7696  19.0092  24.2237  38.0892  40.1952

          k = 0.5000-0.3000 0.5000 (   374 PWs)   bands (ev):

   -85.3124 -45.6734 -45.4378 -45.4103  13.5203  15.7832  16.0669  16.2830
    17.5871  18.7553  25.0091  37.3938  41.2334

          k = 0.4000-0.2000 0.4000 (   372 PWs)   bands (ev):

   -85.3191 -45.5877 -45.4539 -45.4027  12.7218  15.5506  15.9772  16.1745
    17.1939  17.9442  28.7731  37.2558  42.3462

          k = 0.3000-0.1000 0.3000 (   368 PWs)   bands (ev):

   -85.3290 -45.5195 -45.4153 -45.3968  11.2203  15.4737  16.1715  16.3025
    16.8113  17.4282  33.4445  37.7191  44.0588

          k = 0.2000 0.0000 0.2000 (   363 PWs)   bands (ev):

   -85.3381 -45.4482 -45.3823 -45.3731   9.9530  15.6990  16.1735  16.1872
    16.8370  17.1614  38.0690  39.1770  44.4699

          k = 0.0000 0.4000 0.0000 (   367 PWs)   bands (ev):

   -85.3308 -45.4774 -45.4096 -45.4096  10.8916  15.3145  16.4933  16.5323
    16.5323  17.2876  38.7645  38.7645  39.1617

          k =-0.1000 0.5000-0.1000 (   368 PWs)   bands (ev):

   -85.3226 -45.5285 -45.4234 -45.4075  12.0341  15.0495  16.1676  16.6980
    17.1113  17.4844  34.0893  37.4114  38.1253

          k =-0.2000 0.6000-0.2000 (   384 PWs)   bands (ev):

   -85.3144 -45.6422 -45.4996 -45.4681  13.3048  14.9344  15.8635  16.6030
    17.7078  18.1871  29.3990  36.1029  36.8883

          k = 0.7000-0.3000 0.7000 (   376 PWs)   bands (ev):

   -85.3086 -45.6424 -45.4844 -45.4475  14.0125  15.0820  15.8540  16.4929
    17.8137  20.0449  25.4730  34.3280  37.3057

          k = 0.6000-0.2000 0.6000 (   382 PWs)   bands (ev):

   -85.3080 -45.6668 -45.5139 -45.4717  14.1363  15.2279  15.8310  16.4000
    17.5705  20.7839  24.5564  33.1005  38.6680

          k = 0.5000-0.1000 0.5000 (   375 PWs)   bands (ev):

   -85.3124 -45.6035 -45.5033 -45.4218  13.7690  15.3576  15.5911  16.4377
    17.1562  19.1758  28.0375  32.5820  40.8532

          k = 0.4000 0.0000 0.4000 (   371 PWs)   bands (ev):

   -85.3205 -45.5479 -45.4657 -45.4073  12.5331  15.2645  15.9316  16.5718
    16.6941  18.1233  32.1705  33.1501  43.1505

          k = 0.0000 0.6000 0.0000 (   371 PWs)   bands (ev):

   -85.3167 -45.5401 -45.4455 -45.4455  12.7075  14.7417  16.5606  17.1263
    17.1263  17.5077  35.3019  35.6380  35.6380

          k =-0.1000 0.7000-0.1000 (   373 PWs)   bands (ev):

   -85.3100 -45.6151 -45.4501 -45.4393  13.4467  14.5672  16.5227  17.2164
    17.7350  18.2415  31.8592  32.9694  34.7502

          k = 0.8000-0.2000 0.8000 (   378 PWs)   bands (ev):

   -85.3051 -45.6224 -45.5342 -45.4588  14.0068  14.5566  16.2069  17.0757
    17.8477  20.5100  27.7205  30.8741  34.8996

          k = 0.7000-0.1000 0.7000 (   379 PWs)   bands (ev):

   -85.3038 -45.6125 -45.5754 -45.4601  14.4649  14.6731  15.8406  16.9025
    17.6593  23.0990  24.5509  29.4990  36.0913

          k = 0.6000-0.0000 0.6000 (   385 PWs)   bands (ev):

   -85.3067 -45.6447 -45.5765 -45.4724  14.5225  15.0300  15.4051  16.7077
    17.3143  21.0737  26.9612  29.3279  38.1547

          k = 0.0000 0.8000 0.0000 (   383 PWs)   bands (ev):

   -85.3057 -45.6564 -45.4991 -45.4991  13.4724  14.2965  17.6670  17.6916
    17.6916  18.3783  30.1578  33.4619  33.4619

          k = 0.9000-0.1000 0.9000 (   370 PWs)   bands (ev):

   -85.3022 -45.6221 -45.4584 -45.4558  13.6786  14.2754  17.2919  17.6139
    17.8950  20.4691  28.2739  30.7315  33.2605

          k = 0.8000 0.0000 0.8000 (   373 PWs)   bands (ev):

   -85.3016 -45.6180 -45.5356 -45.4378  14.0241  14.4178  16.5411  17.3906
    17.8009  22.7291  26.7627  27.9980  34.1977

          k = 0.0000-1.0000 0.0000 (   388 PWs)   bands (ev):

   -85.3015 -45.6828 -45.5344 -45.5344  13.5129  14.1163  17.7316  17.9249
    17.9249  20.2655  27.3204  32.6644  32.6644

          k =-0.2000 0.4000 0.0000 (   370 PWs)   bands (ev):

   -85.3279 -45.5132 -45.4308 -45.4124  11.3340  15.3192  16.1509  16.5335
    16.7379  17.4638  35.2683  36.0275  41.8952

          k =-0.3000 0.5000-0.1000 (   375 PWs)   bands (ev):

   -85.3188 -45.5726 -45.4688 -45.4351  12.7465  15.1731  15.8530  16.5295
    17.1189  18.0609  30.7250  35.0516  39.5903

          k = 0.6000-0.4000 0.8000 (   375 PWs)   bands (ev):

   -85.3114 -45.6317 -45.4804 -45.4288  13.7736  15.3440  15.7326  16.3897
    17.5703  19.2144  26.4820  35.0410  37.6047

          k = 0.5000-0.3000 0.7000 (   376 PWs)   bands (ev):

   -85.3086 -45.6577 -45.4763 -45.4468  13.9967  15.3364  15.9834  16.3119
    17.7062  20.5172  24.0802  35.3888  36.5656

          k =-0.2000 0.6000 0.0000 (   369 PWs)   bands (ev):

   -85.3151 -45.5561 -45.4397 -45.4215  13.0723  14.8464  15.9990  17.1377
    17.1710  18.0730  32.8675  33.4753  36.0961

          k = 0.7000-0.3000 0.9000 (   376 PWs)   bands (ev):

   -85.3085 -45.6195 -45.4905 -45.4487  13.9756  14.7914  15.7440  16.9740
    17.6095  19.5479  28.6712  32.8869  33.9620

          k = 0.6000-0.2000 0.8000 (   375 PWs)   bands (ev):

   -85.3051 -45.6277 -45.5061 -45.4590  14.4515  14.8210  15.6728  16.7717
    17.7279  21.8988  25.0054  31.8767  33.8957

          k = 0.5000-0.1000 0.7000 (   379 PWs)   bands (ev):

   -85.3062 -45.6273 -45.5309 -45.4714  14.5058  14.9818  15.4384  16.7227
    17.5188  21.2473  26.0366  30.8848  35.2289

          k = 0.4000 0.0000 0.6000 (   380 PWs)   bands (ev):

   -85.3114 -45.6132 -45.5079 -45.4679  13.9049  15.0872  15.4510  16.7824
    17.1429  19.2806  29.6585  31.0289  37.2037

          k = 0.8000-0.2000 1.0000 (   374 PWs)   bands (ev):

   -85.3050 -45.6314 -45.4627 -45.4579  13.7833  14.4634  16.5377  17.5257
    17.7015  19.7909  30.3770  31.1164  32.0665

          k = 0.7000-0.1000 0.9000 (   377 PWs)   bands (ev):

   -85.3023 -45.6065 -45.5407 -45.4840  14.1343  14.5552  16.1592  17.2386
    17.8434  22.2991  27.3841  28.9029  32.0982

          k = 0.6000 0.0000 0.8000 (   380 PWs)   bands (ev):

   -85.3028 -45.5920 -45.5919 -45.4887  14.5320  14.7400  15.6419  16.9685
    17.7018  23.9719  25.0044  28.4186  33.3378

          k =-0.2000-1.0000 0.0000 (   370 PWs)   bands (ev):

   -85.3011 -45.6364 -45.4780 -45.4386  13.7945  14.3330  16.9717  17.5577
    17.9514  21.6957  27.4431  30.4539  31.3408

          k = 0.6000-0.2000 1.0000 (   383 PWs)   bands (ev):

   -85.3041 -45.6241 -45.5525 -45.5099  14.3972  14.8882  15.4351  17.0394
    17.6805  21.6960  27.8852  29.6470  31.7011

          k = 0.5000-0.1000 0.9000 (   378 PWs)   bands (ev):

   -85.3023 -45.5918 -45.5579 -45.5010  14.5278  15.0211  15.3146  16.9284
    17.8327  24.2373  25.1324  29.6252  30.5546

          k =-0.4000-1.0000 0.0000 (   382 PWs)   bands (ev):

   -85.3014 -45.6044 -45.5517 -45.5497  14.2996  14.8039  15.7033  17.0417
    17.9585  24.2301  27.2133  27.7897  29.5895

     the Fermi energy is    17.7981 ev

!    total energy              =    -339.43802414 Ry
     Harris-Foulkes estimate   =    -339.43802414 Ry
     estimated scf accuracy    <          2.2E-09 Ry

     The total energy is the sum of the following terms:

     one-electron contribution =    -186.43506729 Ry
     hartree contribution      =     104.71330940 Ry
     xc contribution           =     -34.33135808 Ry
     ewald contribution        =    -223.38275378 Ry
     smearing contrib. (-TS)   =      -0.00215439 Ry

     convergence has been achieved in   6 iterations

     Forces acting on atoms (cartesian axes, Ry/au):

     atom    1 type  1   force =     0.00000000    0.00000000    0.00000000

     Total force =     0.000000     Total SCF correction =     0.000000


     Computing stress (Cartesian axis) and pressure

          total   stress  (Ry/bohr**3)                   (kbar)     P=-2402.07
  -0.01632893  -0.00000000  -0.00000000      -2402.07     -0.00     -0.00
  -0.00000000  -0.01632893   0.00000000         -0.00  -2402.07      0.00
  -0.00000000   0.00000000  -0.01632893         -0.00      0.00  -2402.07


     Writing output data file Ni.save/

     init_run     :      0.21s CPU      0.22s WALL (       1 calls)
     electrons    :      2.32s CPU      2.51s WALL (       1 calls)
     forces       :      0.03s CPU      0.03s WALL (       1 calls)
     stress       :      0.11s CPU      0.12s WALL (       1 calls)

     Called by init_run:
     wfcinit      :      0.09s CPU      0.10s WALL (       1 calls)
     potinit      :      0.00s CPU      0.00s WALL (       1 calls)
     hinit0       :      0.11s CPU      0.11s WALL (       1 calls)

     Called by electrons:
     c_bands      :      1.94s CPU      2.09s WALL (       7 calls)
     sum_band     :      0.35s CPU      0.37s WALL (       7 calls)
     v_of_rho     :      0.02s CPU      0.02s WALL (       7 calls)
     newd         :      0.02s CPU      0.02s WALL (       7 calls)
     mix_rho      :      0.00s CPU      0.00s WALL (       7 calls)

     Called by c_bands:
     init_us_2    :      0.04s CPU      0.04s WALL (     799 calls)
     cegterg      :      1.88s CPU      2.03s WALL (     329 calls)

     Called by sum_band:
     sum_band:bec :      0.00s CPU      0.00s WALL (     329 calls)
     addusdens    :      0.02s CPU      0.02s WALL (       7 calls)

     Called by *egterg:
     h_psi        :      1.38s CPU      1.49s WALL (    1093 calls)
     s_psi        :      0.03s CPU      0.04s WALL (    1093 calls)
     g_psi        :      0.00s CPU      0.00s WALL (     717 calls)
     cdiaghg      :      0.31s CPU      0.33s WALL (     999 calls)

     Called by h_psi:
     h_psi:pot    :      1.37s CPU      1.48s WALL (    1093 calls)
     h_psi:calbec :      0.06s CPU      0.06s WALL (    1093 calls)
     vloc_psi     :      1.27s CPU      1.38s WALL (    1093 calls)
     add_vuspsi   :      0.03s CPU      0.04s WALL (    1093 calls)

     General routines
     calbec       :      0.09s CPU      0.09s WALL (    1657 calls)
     fft          :      0.01s CPU      0.01s WALL (     104 calls)
     ffts         :      0.00s CPU      0.00s WALL (       7 calls)
     fftw         :      1.42s CPU      1.54s WALL (   26023 calls)

     Parallel routines
     fft_scatt_xy :      0.13s CPU      0.14s WALL (   26134 calls)
     fft_scatt_yz :      0.40s CPU      0.43s WALL (   26134 calls)

     PWSCF        :     3.42s CPU         3.69s WALL


   This run was terminated on:  22:36: 6  26Mar2024            

=------------------------------------------------------------------------------=
   JOB DONE.
=------------------------------------------------------------------------------=
