
     Program PWSCF v.6.3MaX starts on 26Mar2024 at 22:28:36 

     This program is part of the open-source Quantum ESPRESSO suite
     for quantum simulation of materials; please cite
         "P. Giannozzi et al., J. Phys.:Condens. Matter 21 395502 (2009);
         "P. Giannozzi et al., J. Phys.:Condens. Matter 29 465901 (2017);
          URL http://www.quantum-espresso.org", 
     in publications or presentations arising from this work. More details at
     http://www.quantum-espresso.org/quote

     Parallel version (MPI), running on     5 processors

     MPI processes distributed on     1 nodes
     R & G space division:  proc/nbgrp/npool/nimage =       5
     Waiting for input...
     Reading input from standard input

     Current dimensions of program PWSCF are:
     Max number of different atomic species (ntypx) = 10
     Max number of k-points (npk) =  40000
     Max angular momentum in pseudopotentials (lmaxx) =  3
               file Ni.pbesol-spn-kjpaw_psl.1.0.0.UPF: wavefunction(s)  3P 3D renormalized

     Subspace diagonalization in iterative solution of the eigenvalue problem:
     a serial algorithm will be used


     Parallelization info
     --------------------
     sticks:   dense  smooth     PW     G-vecs:    dense   smooth      PW
     Min          30      30     11                  248      248      56
     Max          31      31     11                  251      251      58
     Sum         151     151     55                 1243     1243     283



     bravais-lattice index     =            2
     lattice parameter (alat)  =       6.6500  a.u.
     unit-cell volume          =      73.5199 (a.u.)^3
     number of atoms/cell      =            1
     number of atomic types    =            1
     number of electrons       =        18.00
     number of Kohn-Sham states=           13
     kinetic-energy cutoff     =      25.0000  Ry
     charge density cutoff     =     100.0000  Ry
     convergence threshold     =      1.0E-08
     mixing beta               =       0.7000
     number of iterations used =            8  plain     mixing
     Exchange-correlation      = SLA PW PSX PSC ( 1  4 10  8 0 0)

     celldm(1)=   6.650000  celldm(2)=   0.000000  celldm(3)=   0.000000
     celldm(4)=   0.000000  celldm(5)=   0.000000  celldm(6)=   0.000000

     crystal axes: (cart. coord. in units of alat)
               a(1) = (  -0.500000   0.000000   0.500000 )  
               a(2) = (   0.000000   0.500000   0.500000 )  
               a(3) = (  -0.500000   0.500000   0.000000 )  

     reciprocal axes: (cart. coord. in units 2 pi/alat)
               b(1) = ( -1.000000 -1.000000  1.000000 )  
               b(2) = (  1.000000  1.000000  1.000000 )  
               b(3) = ( -1.000000  1.000000 -1.000000 )  


     PseudoPot. # 1 for Ni read from file:
     /home/lorenzo/pseudos/Ni/Ni.pbesol-spn-kjpaw_psl.1.0.0.UPF
     MD5 check sum: ef06ee83099c2673f0516457bd731f51
     Pseudo is Projector augmented-wave + core cor, Zval = 18.0
     Generated using "atomic" code by A. Dal Corso v.6.3
     Shape of augmentation charge: PSQ
     Using radial grid of 1195 points,  6 beta functions with: 
                l(1) =   0
                l(2) =   0
                l(3) =   1
                l(4) =   1
                l(5) =   2
                l(6) =   2
     Q(r) pseudized with 0 coefficients 


     atomic species   valence    mass     pseudopotential
        Ni            18.00    58.69340     Ni( 1.00)

     48 Sym. Ops., with inversion, found



   Cartesian axes

     site n.     atom                  positions (alat units)
         1           Ni  tau(   1) = (   0.0000000   0.0000000   0.0000000  )

     number of k points=     8  gaussian smearing, width (Ry)=  0.0100
                       cart. coord. in units 2pi/alat
        k(    1) = (   0.0000000   0.0000000   0.0000000), wk =   0.0312500
        k(    2) = (  -0.2500000   0.2500000  -0.2500000), wk =   0.2500000
        k(    3) = (   0.5000000  -0.5000000   0.5000000), wk =   0.1250000
        k(    4) = (   0.0000000   0.5000000   0.0000000), wk =   0.1875000
        k(    5) = (   0.7500000  -0.2500000   0.7500000), wk =   0.7500000
        k(    6) = (   0.5000000   0.0000000   0.5000000), wk =   0.3750000
        k(    7) = (   0.0000000  -1.0000000   0.0000000), wk =   0.0937500
        k(    8) = (  -0.5000000  -1.0000000   0.0000000), wk =   0.1875000

     Dense  grid:     1243 G-vectors     FFT dimensions: (  15,  15,  15)

     Estimated max dynamical RAM per process >       1.84 MB

     Estimated total dynamical RAM >       9.18 MB

     Check: negative/imaginary core charge=   -0.000245    0.000000

     Initial potential from superposition of free atoms
     Check: negative starting charge=   -0.002896

     starting charge   17.99977, renormalised to   18.00000

     negative rho (up, down):  2.896E-03 0.000E+00
     Starting wfcs are   10 randomized atomic wfcs +    3 random wfcs
     Checking if some PAW data can be deallocated... 

     total cpu time spent up to now is        0.9 secs

     Self-consistent Calculation

     iteration #  1     ecut=    25.00 Ry     beta= 0.70
     Davidson diagonalization with overlap
     ethr =  1.00E-02,  avg # of iterations =  4.1

     total cpu time spent up to now is        1.1 secs

     total energy              =    -410.58113717 Ry
     Harris-Foulkes estimate   =    -416.73660588 Ry
     estimated scf accuracy    <       7.31568005 Ry

     iteration #  2     ecut=    25.00 Ry     beta= 0.70
     Davidson diagonalization with overlap
     ethr =  1.00E-02,  avg # of iterations =  2.2

     total cpu time spent up to now is        1.2 secs

     total energy              =    -413.07393393 Ry
     Harris-Foulkes estimate   =    -417.90679875 Ry
     estimated scf accuracy    <      10.00531262 Ry

     iteration #  3     ecut=    25.00 Ry     beta= 0.70
     Davidson diagonalization with overlap
     ethr =  1.00E-02,  avg # of iterations =  2.0

     negative rho (up, down):  4.198E-04 0.000E+00

     total cpu time spent up to now is        1.4 secs

     total energy              =    -414.22702879 Ry
     Harris-Foulkes estimate   =    -414.31961493 Ry
     estimated scf accuracy    <       0.15062207 Ry

     iteration #  4     ecut=    25.00 Ry     beta= 0.70
     Davidson diagonalization with overlap
     ethr =  8.37E-04,  avg # of iterations =  2.0

     negative rho (up, down):  2.236E-06 0.000E+00

     total cpu time spent up to now is        1.5 secs

     total energy              =    -414.26096871 Ry
     Harris-Foulkes estimate   =    -414.35255370 Ry
     estimated scf accuracy    <       0.32012365 Ry

     iteration #  5     ecut=    25.00 Ry     beta= 0.70
     Davidson diagonalization with overlap
     ethr =  8.37E-04,  avg # of iterations =  1.6

     total cpu time spent up to now is        1.6 secs

     total energy              =    -414.26762351 Ry
     Harris-Foulkes estimate   =    -414.28245024 Ry
     estimated scf accuracy    <       0.03112108 Ry

     iteration #  6     ecut=    25.00 Ry     beta= 0.70
     Davidson diagonalization with overlap
     ethr =  1.73E-04,  avg # of iterations =  1.9

     total cpu time spent up to now is        1.8 secs

     total energy              =    -414.27662532 Ry
     Harris-Foulkes estimate   =    -414.28203410 Ry
     estimated scf accuracy    <       0.03783150 Ry

     iteration #  7     ecut=    25.00 Ry     beta= 0.70
     Davidson diagonalization with overlap
     ethr =  1.73E-04,  avg # of iterations =  1.0

     total cpu time spent up to now is        1.9 secs

     total energy              =    -414.27718864 Ry
     Harris-Foulkes estimate   =    -414.27814652 Ry
     estimated scf accuracy    <       0.00474856 Ry

     iteration #  8     ecut=    25.00 Ry     beta= 0.70
     Davidson diagonalization with overlap
     ethr =  2.64E-05,  avg # of iterations =  1.0

     total cpu time spent up to now is        2.0 secs

     total energy              =    -414.27751323 Ry
     Harris-Foulkes estimate   =    -414.27756017 Ry
     estimated scf accuracy    <       0.00012066 Ry

     iteration #  9     ecut=    25.00 Ry     beta= 0.70
     Davidson diagonalization with overlap
     ethr =  6.70E-07,  avg # of iterations =  1.6

     total cpu time spent up to now is        2.1 secs

     total energy              =    -414.27754216 Ry
     Harris-Foulkes estimate   =    -414.27754606 Ry
     estimated scf accuracy    <       0.00002527 Ry

     iteration # 10     ecut=    25.00 Ry     beta= 0.70
     Davidson diagonalization with overlap
     ethr =  1.40E-07,  avg # of iterations =  1.0

     total cpu time spent up to now is        2.3 secs

     total energy              =    -414.27754225 Ry
     Harris-Foulkes estimate   =    -414.27754300 Ry
     estimated scf accuracy    <       0.00000624 Ry

     iteration # 11     ecut=    25.00 Ry     beta= 0.70
     Davidson diagonalization with overlap
     ethr =  3.46E-08,  avg # of iterations =  1.0

     total cpu time spent up to now is        2.4 secs

     total energy              =    -414.27754251 Ry
     Harris-Foulkes estimate   =    -414.27754238 Ry
     estimated scf accuracy    <       0.00000221 Ry

     iteration # 12     ecut=    25.00 Ry     beta= 0.70
     Davidson diagonalization with overlap
     ethr =  1.23E-08,  avg # of iterations =  1.0

     total cpu time spent up to now is        2.5 secs

     total energy              =    -414.27754157 Ry
     Harris-Foulkes estimate   =    -414.27754252 Ry
     estimated scf accuracy    <       0.00000313 Ry

     iteration # 13     ecut=    25.00 Ry     beta= 0.70
     Davidson diagonalization with overlap
     ethr =  1.23E-08,  avg # of iterations =  1.4

     total cpu time spent up to now is        2.7 secs

     total energy              =    -414.27754202 Ry
     Harris-Foulkes estimate   =    -414.27754203 Ry
     estimated scf accuracy    <       0.00000003 Ry

     iteration # 14     ecut=    25.00 Ry     beta= 0.70
     Davidson diagonalization with overlap
     ethr =  1.41E-10,  avg # of iterations =  1.1

     total cpu time spent up to now is        2.8 secs

     End of self-consistent calculation

          k = 0.0000 0.0000 0.0000 (   169 PWs)   bands (ev):

   -99.8441 -49.6825 -49.6825 -49.6825   9.8678  12.5367  12.5367  13.9876
    13.9876  13.9876  42.5986  46.0801  46.0801

          k =-0.2500 0.2500-0.2500 (   150 PWs)   bands (ev):

   -99.3670 -46.0807 -46.0807 -43.3927  12.3064  16.7365  16.7365  18.6729
    19.5695  19.5695  33.7637  42.6288  43.5335

          k = 0.5000-0.5000 0.5000 (   156 PWs)   bands (ev):

   -99.4549 -47.8349 -45.7243 -45.7243  12.3625  17.0311  17.0311  18.2971
    19.1705  19.1705  22.5183  41.0844  43.4432

          k = 0.0000 0.5000 0.0000 (   149 PWs)   bands (ev):

   -99.3073 -45.3144 -45.3144 -43.6066  13.0032  16.0789  18.8173  18.9830
    20.0279  20.0279  38.1037  38.1037  38.2443

          k = 0.7500-0.2500 0.7500 (   154 PWs)   bands (ev):

   -99.3645 -46.9640 -45.2003 -44.9435  13.8271  16.4785  17.5802  18.1533
    19.8260  19.9742  27.6267  33.1404  37.2678

          k = 0.5000 0.0000 0.5000 (   156 PWs)   bands (ev):

   -99.4395 -47.0345 -45.9642 -45.9493  13.6287  15.7688  16.2503  17.6054
    18.1345  18.5729  31.5342  31.6191  41.4220

          k = 0.0000-1.0000 0.0000 (   150 PWs)   bands (ev):

   -99.2629 -44.7337 -44.7337 -44.5921  15.7594  17.4111  18.9399  20.3243
    20.3243  21.2920  27.9779  33.6709  33.6709

          k =-0.5000-1.0000 0.0000 (   156 PWs)   bands (ev):

   -99.4080 -46.3190 -46.3190 -45.8019  15.7420  16.2582  16.2582  16.6290
    17.2033  26.8126  26.8126  28.6498  30.3272

     the Fermi energy is    19.8060 ev

!    total energy              =    -414.27754203 Ry
     Harris-Foulkes estimate   =    -414.27754203 Ry
     estimated scf accuracy    <          2.2E-11 Ry

     total all-electron energy =     -3026.735887 Ry

     The total energy is the sum of the following terms:

     one-electron contribution =    -161.47397337 Ry
     hartree contribution      =      91.42866923 Ry
     xc contribution           =     -32.59521935 Ry
     ewald contribution        =    -223.38275373 Ry
     one-center paw contrib.   =     -88.25159317 Ry
     smearing contrib. (-TS)   =      -0.00267164 Ry

     convergence has been achieved in  14 iterations

     Forces acting on atoms (cartesian axes, Ry/au):

     atom    1 type  1   force =     0.00000000    0.00000000    0.00000000

     Total force =     0.000000     Total SCF correction =     0.000000


     Computing stress (Cartesian axis) and pressure

          total   stress  (Ry/bohr**3)                   (kbar)     P=********
  -0.55354483   0.00000000   0.00000000     -81429.24      0.00      0.00
   0.00000000  -0.55354483  -0.00000000          0.00 -81429.24     -0.00
   0.00000000  -0.00000000  -0.55354483          0.00     -0.00 -81429.24


     Writing output data file Ni.save/

     init_run     :      0.20s CPU      0.22s WALL (       1 calls)
     electrons    :      1.65s CPU      1.87s WALL (       1 calls)
     forces       :      0.01s CPU      0.01s WALL (       1 calls)
     stress       :      0.02s CPU      0.02s WALL (       1 calls)

     Called by init_run:
     wfcinit      :      0.01s CPU      0.01s WALL (       1 calls)
     potinit      :      0.10s CPU      0.11s WALL (       1 calls)
     hinit0       :      0.07s CPU      0.07s WALL (       1 calls)

     Called by electrons:
     c_bands      :      0.30s CPU      0.34s WALL (      14 calls)
     sum_band     :      0.07s CPU      0.08s WALL (      14 calls)
     v_of_rho     :      0.01s CPU      0.01s WALL (      15 calls)
     newd         :      0.02s CPU      0.02s WALL (      15 calls)
     PAW_pot      :      1.34s CPU      1.51s WALL (      15 calls)
     mix_rho      :      0.00s CPU      0.00s WALL (      14 calls)

     Called by c_bands:
     init_us_2    :      0.01s CPU      0.01s WALL (     248 calls)
     cegterg      :      0.29s CPU      0.32s WALL (     112 calls)

     Called by sum_band:
     sum_band:bec :      0.00s CPU      0.00s WALL (     112 calls)
     addusdens    :      0.02s CPU      0.02s WALL (      14 calls)

     Called by *egterg:
     h_psi        :      0.17s CPU      0.20s WALL (     304 calls)
     s_psi        :      0.01s CPU      0.01s WALL (     304 calls)
     g_psi        :      0.00s CPU      0.00s WALL (     184 calls)
     cdiaghg      :      0.08s CPU      0.08s WALL (     296 calls)

     Called by h_psi:
     h_psi:pot    :      0.17s CPU      0.19s WALL (     304 calls)
     h_psi:calbec :      0.01s CPU      0.01s WALL (     304 calls)
     vloc_psi     :      0.16s CPU      0.18s WALL (     304 calls)
     add_vuspsi   :      0.01s CPU      0.01s WALL (     304 calls)

     General routines
     calbec       :      0.01s CPU      0.01s WALL (     456 calls)
     fft          :      0.01s CPU      0.01s WALL (     191 calls)
     ffts         :      0.00s CPU      0.00s WALL (      14 calls)
     fftw         :      0.17s CPU      0.19s WALL (    8166 calls)

     Parallel routines
     fft_scatt_xy :      0.02s CPU      0.02s WALL (    8371 calls)
     fft_scatt_yz :      0.07s CPU      0.08s WALL (    8371 calls)

     PWSCF        :     2.60s CPU         2.88s WALL


   This run was terminated on:  22:28:39  26Mar2024            

=------------------------------------------------------------------------------=
   JOB DONE.
=------------------------------------------------------------------------------=
