
     Program PWSCF v.6.3MaX starts on 26Mar2024 at 22:44:35 

     This program is part of the open-source Quantum ESPRESSO suite
     for quantum simulation of materials; please cite
         "P. Giannozzi et al., J. Phys.:Condens. Matter 21 395502 (2009);
         "P. Giannozzi et al., J. Phys.:Condens. Matter 29 465901 (2017);
          URL http://www.quantum-espresso.org", 
     in publications or presentations arising from this work. More details at
     http://www.quantum-espresso.org/quote

     Parallel version (MPI), running on     5 processors

     MPI processes distributed on     1 nodes
     R & G space division:  proc/nbgrp/npool/nimage =       5
     Waiting for input...
     Reading input from standard input

     Current dimensions of program PWSCF are:
     Max number of different atomic species (ntypx) = 10
     Max number of k-points (npk) =  40000
     Max angular momentum in pseudopotentials (lmaxx) =  3

     Subspace diagonalization in iterative solution of the eigenvalue problem:
     a serial algorithm will be used


     Parallelization info
     --------------------
     sticks:   dense  smooth     PW     G-vecs:    dense   smooth      PW
     Min          73      73     24                  928      928     178
     Max          74      74     25                  930      930     181
     Sum         367     367    121                 4645     4645     893



     bravais-lattice index     =            2
     lattice parameter (alat)  =       6.6500  a.u.
     unit-cell volume          =      73.5199 (a.u.)^3
     number of atoms/cell      =            1
     number of atomic types    =            1
     number of electrons       =        18.00
     number of Kohn-Sham states=           13
     kinetic-energy cutoff     =      60.0000  Ry
     charge density cutoff     =     240.0000  Ry
     convergence threshold     =      1.0E-08
     mixing beta               =       0.7000
     number of iterations used =            8  plain     mixing
     Exchange-correlation      = PBE ( 1  4  3  4 0 0)

     celldm(1)=   6.650000  celldm(2)=   0.000000  celldm(3)=   0.000000
     celldm(4)=   0.000000  celldm(5)=   0.000000  celldm(6)=   0.000000

     crystal axes: (cart. coord. in units of alat)
               a(1) = (  -0.500000   0.000000   0.500000 )  
               a(2) = (   0.000000   0.500000   0.500000 )  
               a(3) = (  -0.500000   0.500000   0.000000 )  

     reciprocal axes: (cart. coord. in units 2 pi/alat)
               b(1) = ( -1.000000 -1.000000  1.000000 )  
               b(2) = (  1.000000  1.000000  1.000000 )  
               b(3) = ( -1.000000  1.000000 -1.000000 )  


     PseudoPot. # 1 for Ni read from file:
     /home/lorenzo/pseudos/Ni/Ni.pbe-spn-rrkjus_psl.1.0.0.UPF
     MD5 check sum: 8b3fc9aac6dafe35f580d41bb18c3945
     Pseudo is Ultrasoft + core correction, Zval = 18.0
     Generated using "atomic" code by A. Dal Corso v.6.3
     Using radial grid of 1195 points,  6 beta functions with: 
                l(1) =   0
                l(2) =   0
                l(3) =   1
                l(4) =   1
                l(5) =   2
                l(6) =   2
     Q(r) pseudized with 0 coefficients 


     atomic species   valence    mass     pseudopotential
        Ni            18.00    58.69340     Ni( 1.00)

     48 Sym. Ops., with inversion, found



   Cartesian axes

     site n.     atom                  positions (alat units)
         1           Ni  tau(   1) = (   0.0000000   0.0000000   0.0000000  )

     number of k points=    16  gaussian smearing, width (Ry)=  0.0100
                       cart. coord. in units 2pi/alat
        k(    1) = (   0.0000000   0.0000000   0.0000000), wk =   0.0092593
        k(    2) = (  -0.1666667   0.1666667  -0.1666667), wk =   0.0740741
        k(    3) = (  -0.3333333   0.3333333  -0.3333333), wk =   0.0740741
        k(    4) = (   0.5000000  -0.5000000   0.5000000), wk =   0.0370370
        k(    5) = (   0.0000000   0.3333333   0.0000000), wk =   0.0555556
        k(    6) = (  -0.1666667   0.5000000  -0.1666667), wk =   0.2222222
        k(    7) = (   0.6666667  -0.3333333   0.6666667), wk =   0.2222222
        k(    8) = (   0.5000000  -0.1666667   0.5000000), wk =   0.2222222
        k(    9) = (   0.3333333   0.0000000   0.3333333), wk =   0.1111111
        k(   10) = (   0.0000000   0.6666667   0.0000000), wk =   0.0555556
        k(   11) = (   0.8333333  -0.1666667   0.8333333), wk =   0.2222222
        k(   12) = (   0.6666667  -0.0000000   0.6666667), wk =   0.1111111
        k(   13) = (   0.0000000  -1.0000000   0.0000000), wk =   0.0277778
        k(   14) = (   0.6666667  -0.3333333   1.0000000), wk =   0.2222222
        k(   15) = (   0.5000000  -0.1666667   0.8333333), wk =   0.2222222
        k(   16) = (  -0.3333333  -1.0000000   0.0000000), wk =   0.1111111

     Dense  grid:     4645 G-vectors     FFT dimensions: (  24,  24,  24)

     Estimated max dynamical RAM per process >       5.17 MB

     Estimated total dynamical RAM >      25.86 MB

     Check: negative/imaginary core charge=   -0.000009    0.000000

     Initial potential from superposition of free atoms

     starting charge   17.99975, renormalised to   18.00000
     Starting wfcs are   10 randomized atomic wfcs +    3 random wfcs

     total cpu time spent up to now is        0.9 secs

     Self-consistent Calculation

     iteration #  1     ecut=    60.00 Ry     beta= 0.70
     Davidson diagonalization with overlap
     ethr =  1.00E-02,  avg # of iterations =  3.8

     Threshold (ethr) on eigenvalues was too large:
     Diagonalizing with lowered threshold

     Davidson diagonalization with overlap
     ethr =  1.42E-05,  avg # of iterations =  3.1

     total cpu time spent up to now is        1.2 secs

     total energy              =    -339.59414908 Ry
     Harris-Foulkes estimate   =    -339.59525883 Ry
     estimated scf accuracy    <       0.00258822 Ry

     iteration #  2     ecut=    60.00 Ry     beta= 0.70
     Davidson diagonalization with overlap
     ethr =  1.44E-05,  avg # of iterations =  2.1

     total cpu time spent up to now is        1.3 secs

     total energy              =    -339.59362494 Ry
     Harris-Foulkes estimate   =    -339.59643434 Ry
     estimated scf accuracy    <       0.00757740 Ry

     iteration #  3     ecut=    60.00 Ry     beta= 0.70
     Davidson diagonalization with overlap
     ethr =  1.44E-05,  avg # of iterations =  2.1

     total cpu time spent up to now is        1.5 secs

     total energy              =    -339.59497866 Ry
     Harris-Foulkes estimate   =    -339.59501617 Ry
     estimated scf accuracy    <       0.00017940 Ry

     iteration #  4     ecut=    60.00 Ry     beta= 0.70
     Davidson diagonalization with overlap
     ethr =  9.97E-07,  avg # of iterations =  1.2

     total cpu time spent up to now is        1.6 secs

     total energy              =    -339.59500348 Ry
     Harris-Foulkes estimate   =    -339.59500320 Ry
     estimated scf accuracy    <       0.00000068 Ry

     iteration #  5     ecut=    60.00 Ry     beta= 0.70
     Davidson diagonalization with overlap
     ethr =  3.78E-09,  avg # of iterations =  3.1

     total cpu time spent up to now is        1.8 secs

     total energy              =    -339.59500405 Ry
     Harris-Foulkes estimate   =    -339.59500407 Ry
     estimated scf accuracy    <       0.00000003 Ry

     iteration #  6     ecut=    60.00 Ry     beta= 0.70
     Davidson diagonalization with overlap
     ethr =  1.94E-10,  avg # of iterations =  1.7

     total cpu time spent up to now is        1.9 secs

     End of self-consistent calculation

          k = 0.0000 0.0000 0.0000 (   561 PWs)   bands (ev):

   -85.3767 -45.6306 -45.6306 -45.6306   8.8334  15.8468  15.8468  15.8468
    16.9521  16.9521  41.4906  45.4372  45.4372

          k =-0.1667 0.1667-0.1667 (   570 PWs)   bands (ev):

   -85.3686 -45.6865 -45.6389 -45.6389   9.8894  15.5996  16.0272  16.0272
    16.9111  16.9111  36.5480  42.2607  43.9133

          k =-0.3333 0.3333-0.3333 (   589 PWs)   bands (ev):

   -85.3525 -45.7965 -45.6551 -45.6551  12.3501  15.7002  15.9520  15.9520
    17.3317  17.3317  28.4788  40.8173  42.8067

          k = 0.5000-0.5000 0.5000 (   580 PWs)   bands (ev):

   -85.3437 -45.8509 -45.6630 -45.6630  13.2649  15.8023  15.8023  17.5467
    17.6914  17.6914  23.7601  39.9982  42.5683

          k = 0.0000 0.3333 0.0000 (   572 PWs)   bands (ev):

   -85.3659 -45.6848 -45.6517 -45.6517  10.2309  15.3557  16.2484  16.2484
    16.5288  17.1293  39.6179  39.9815  39.9815

          k =-0.1667 0.5000-0.1667 (   579 PWs)   bands (ev):

   -85.3521 -45.7652 -45.6702 -45.6699  12.2733  15.0050  15.9006  16.4188
    17.3126  17.4592  31.6684  37.9643  38.3931

          k = 0.6667-0.3333 0.6667 (   574 PWs)   bands (ev):

   -85.3407 -45.8286 -45.6948 -45.6756  13.7681  15.2460  15.8620  16.2248
    17.7171  19.7347  24.8559  35.5969  38.2629

          k = 0.5000-0.1667 0.5000 (   583 PWs)   bands (ev):

   -85.3438 -45.8114 -45.7020 -45.6630  13.5922  15.4533  15.5823  16.2146
    17.2271  19.0366  26.8220  34.1213  41.0750

          k = 0.3333 0.0000 0.3333 (   572 PWs)   bands (ev):

   -85.3575 -45.7391 -45.6748 -45.6446  11.4910  15.2664  15.9751  16.3990
    16.5449  17.5504  34.1182  34.8868  44.4769

          k = 0.0000 0.6667 0.0000 (   576 PWs)   bands (ev):

   -85.3436 -45.7886 -45.6928 -45.6928  13.0445  14.4379  16.8641  17.2386
    17.2386  17.4923  33.5245  34.8109  34.8109

          k = 0.8333-0.1667 0.8333 (   576 PWs)   bands (ev):

   -85.3352 -45.8165 -45.7264 -45.7006  13.7882  14.3304  16.4751  17.1821
    17.7773  20.5073  28.5946  29.8812  34.2792

          k = 0.6667-0.0000 0.6667 (   572 PWs)   bands (ev):

   -85.3350 -45.7799 -45.7788 -45.6859  14.4942  14.6487  15.6097  16.8351
    17.4183  22.7461  25.4547  28.4966  36.6625

          k = 0.0000-1.0000 0.0000 (   588 PWs)   bands (ev):

   -85.3329 -45.8393 -45.7136 -45.7136  13.4194  14.0076  17.6785  17.8743
    17.8743  20.2918  27.2276  32.6888  32.6888

          k = 0.6667-0.3333 1.0000 (   574 PWs)   bands (ev):

   -85.3407 -45.7950 -45.7214 -45.6817  13.8945  14.7787  15.4530  16.9769
    17.2394  19.3437  30.0259  31.1302  34.7812

          k = 0.5000-0.1667 0.8333 (   574 PWs)   bands (ev):

   -85.3351 -45.8024 -45.7479 -45.6944  14.6371  14.6417  15.3867  16.7357
    17.6408  22.9286  24.5692  31.4249  32.1443

          k =-0.3333-1.0000 0.0000 (   584 PWs)   bands (ev):

   -85.3327 -45.8078 -45.7449 -45.7146  14.0492  14.5003  16.0276  17.1281
    17.8751  23.3387  27.5994  28.3053  29.9263

     the Fermi energy is    17.6812 ev

!    total energy              =    -339.59500406 Ry
     Harris-Foulkes estimate   =    -339.59500406 Ry
     estimated scf accuracy    <          1.3E-09 Ry

     The total energy is the sum of the following terms:

     one-electron contribution =    -186.58957071 Ry
     hartree contribution      =     104.69080783 Ry
     xc contribution           =     -34.31136166 Ry
     ewald contribution        =    -223.38275372 Ry
     smearing contrib. (-TS)   =      -0.00212580 Ry

     convergence has been achieved in   6 iterations

     Forces acting on atoms (cartesian axes, Ry/au):

     atom    1 type  1   force =     0.00000000    0.00000000    0.00000000

     Total force =     0.000000     Total SCF correction =     0.000000


     Computing stress (Cartesian axis) and pressure

          total   stress  (Ry/bohr**3)                   (kbar)     P=  -42.58
  -0.00028948   0.00000000   0.00000000        -42.58      0.00      0.00
   0.00000000  -0.00028948   0.00000000          0.00    -42.58      0.00
   0.00000000   0.00000000  -0.00028948          0.00      0.00    -42.58


     Writing output data file Ni.save/

     init_run     :      0.17s CPU      0.18s WALL (       1 calls)
     electrons    :      0.95s CPU      1.03s WALL (       1 calls)
     forces       :      0.02s CPU      0.02s WALL (       1 calls)
     stress       :      0.07s CPU      0.07s WALL (       1 calls)

     Called by init_run:
     wfcinit      :      0.04s CPU      0.04s WALL (       1 calls)
     potinit      :      0.01s CPU      0.01s WALL (       1 calls)
     hinit0       :      0.13s CPU      0.13s WALL (       1 calls)

     Called by electrons:
     c_bands      :      0.75s CPU      0.81s WALL (       7 calls)
     sum_band     :      0.15s CPU      0.17s WALL (       7 calls)
     v_of_rho     :      0.02s CPU      0.02s WALL (       7 calls)
     newd         :      0.03s CPU      0.03s WALL (       7 calls)
     mix_rho      :      0.00s CPU      0.00s WALL (       7 calls)

     Called by c_bands:
     init_us_2    :      0.02s CPU      0.02s WALL (     272 calls)
     cegterg      :      0.73s CPU      0.78s WALL (     112 calls)

     Called by sum_band:
     sum_band:bec :      0.00s CPU      0.00s WALL (     112 calls)
     addusdens    :      0.03s CPU      0.03s WALL (       7 calls)

     Called by *egterg:
     h_psi        :      0.51s CPU      0.55s WALL (     402 calls)
     s_psi        :      0.02s CPU      0.02s WALL (     402 calls)
     g_psi        :      0.00s CPU      0.00s WALL (     274 calls)
     cdiaghg      :      0.12s CPU      0.13s WALL (     370 calls)

     Called by h_psi:
     h_psi:pot    :      0.51s CPU      0.55s WALL (     402 calls)
     h_psi:calbec :      0.02s CPU      0.03s WALL (     402 calls)
     vloc_psi     :      0.47s CPU      0.50s WALL (     402 calls)
     add_vuspsi   :      0.02s CPU      0.02s WALL (     402 calls)

     General routines
     calbec       :      0.04s CPU      0.04s WALL (     594 calls)
     fft          :      0.01s CPU      0.01s WALL (     104 calls)
     ffts         :      0.00s CPU      0.00s WALL (       7 calls)
     fftw         :      0.52s CPU      0.56s WALL (    8962 calls)

     Parallel routines
     fft_scatt_xy :      0.05s CPU      0.05s WALL (    9073 calls)
     fft_scatt_yz :      0.14s CPU      0.15s WALL (    9073 calls)

     PWSCF        :     1.93s CPU         2.06s WALL


   This run was terminated on:  22:44:37  26Mar2024            

=------------------------------------------------------------------------------=
   JOB DONE.
=------------------------------------------------------------------------------=
