
     Program PWSCF v.6.3MaX starts on 26Mar2024 at 22:46:49 

     This program is part of the open-source Quantum ESPRESSO suite
     for quantum simulation of materials; please cite
         "P. Giannozzi et al., J. Phys.:Condens. Matter 21 395502 (2009);
         "P. Giannozzi et al., J. Phys.:Condens. Matter 29 465901 (2017);
          URL http://www.quantum-espresso.org", 
     in publications or presentations arising from this work. More details at
     http://www.quantum-espresso.org/quote

     Parallel version (MPI), running on     5 processors

     MPI processes distributed on     1 nodes
     R & G space division:  proc/nbgrp/npool/nimage =       5
     Waiting for input...
     Reading input from standard input

     Current dimensions of program PWSCF are:
     Max number of different atomic species (ntypx) = 10
     Max number of k-points (npk) =  40000
     Max angular momentum in pseudopotentials (lmaxx) =  3

     Subspace diagonalization in iterative solution of the eigenvalue problem:
     a serial algorithm will be used


     Parallelization info
     --------------------
     sticks:   dense  smooth     PW     G-vecs:    dense   smooth      PW
     Min          79      79     24                 1032     1032     187
     Max          80      80     25                 1033     1033     191
     Sum         397     397    121                 5161     5161     941



     bravais-lattice index     =            2
     lattice parameter (alat)  =       6.6500  a.u.
     unit-cell volume          =      73.5199 (a.u.)^3
     number of atoms/cell      =            1
     number of atomic types    =            1
     number of electrons       =        18.00
     number of Kohn-Sham states=           13
     kinetic-energy cutoff     =      65.0000  Ry
     charge density cutoff     =     260.0000  Ry
     convergence threshold     =      1.0E-08
     mixing beta               =       0.7000
     number of iterations used =            8  plain     mixing
     Exchange-correlation      = PBESOL ( 1  4 10  8 0 0)

     celldm(1)=   6.650000  celldm(2)=   0.000000  celldm(3)=   0.000000
     celldm(4)=   0.000000  celldm(5)=   0.000000  celldm(6)=   0.000000

     crystal axes: (cart. coord. in units of alat)
               a(1) = (  -0.500000   0.000000   0.500000 )  
               a(2) = (   0.000000   0.500000   0.500000 )  
               a(3) = (  -0.500000   0.500000   0.000000 )  

     reciprocal axes: (cart. coord. in units 2 pi/alat)
               b(1) = ( -1.000000 -1.000000  1.000000 )  
               b(2) = (  1.000000  1.000000  1.000000 )  
               b(3) = ( -1.000000  1.000000 -1.000000 )  


     PseudoPot. # 1 for Ni read from file:
     /home/lorenzo/pseudos/Ni/Ni.pbesol-spn-rrkjus_psl.1.0.0.UPF
     MD5 check sum: 6fc0a587bf949a08f2faed986b854013
     Pseudo is Ultrasoft + core correction, Zval = 18.0
     Generated using "atomic" code by A. Dal Corso v.6.3
     Using radial grid of 1195 points,  6 beta functions with: 
                l(1) =   0
                l(2) =   0
                l(3) =   1
                l(4) =   1
                l(5) =   2
                l(6) =   2
     Q(r) pseudized with 0 coefficients 


     atomic species   valence    mass     pseudopotential
        Ni            18.00    58.69340     Ni( 1.00)

     48 Sym. Ops., with inversion, found



   Cartesian axes

     site n.     atom                  positions (alat units)
         1           Ni  tau(   1) = (   0.0000000   0.0000000   0.0000000  )

     number of k points=     8  gaussian smearing, width (Ry)=  0.0100
                       cart. coord. in units 2pi/alat
        k(    1) = (   0.0000000   0.0000000   0.0000000), wk =   0.0312500
        k(    2) = (  -0.2500000   0.2500000  -0.2500000), wk =   0.2500000
        k(    3) = (   0.5000000  -0.5000000   0.5000000), wk =   0.1250000
        k(    4) = (   0.0000000   0.5000000   0.0000000), wk =   0.1875000
        k(    5) = (   0.7500000  -0.2500000   0.7500000), wk =   0.7500000
        k(    6) = (   0.5000000   0.0000000   0.5000000), wk =   0.3750000
        k(    7) = (   0.0000000  -1.0000000   0.0000000), wk =   0.0937500
        k(    8) = (  -0.5000000  -1.0000000   0.0000000), wk =   0.1875000

     Dense  grid:     5161 G-vectors     FFT dimensions: (  25,  25,  25)

     Estimated max dynamical RAM per process >       5.45 MB

     Estimated total dynamical RAM >      27.23 MB

     Check: negative/imaginary core charge=   -0.000011    0.000000

     Initial potential from superposition of free atoms

     starting charge   17.99977, renormalised to   18.00000
     Starting wfcs are   10 randomized atomic wfcs +    3 random wfcs

     total cpu time spent up to now is        0.9 secs

     Self-consistent Calculation

     iteration #  1     ecut=    65.00 Ry     beta= 0.70
     Davidson diagonalization with overlap
     ethr =  1.00E-02,  avg # of iterations =  4.1

     Threshold (ethr) on eigenvalues was too large:
     Diagonalizing with lowered threshold

     Davidson diagonalization with overlap
     ethr =  9.02E-06,  avg # of iterations =  2.9

     total cpu time spent up to now is        1.1 secs

     total energy              =    -339.39246577 Ry
     Harris-Foulkes estimate   =    -339.39277051 Ry
     estimated scf accuracy    <       0.00156306 Ry

     iteration #  2     ecut=    65.00 Ry     beta= 0.70
     Davidson diagonalization with overlap
     ethr =  8.68E-06,  avg # of iterations =  1.0

     total cpu time spent up to now is        1.2 secs

     total energy              =    -339.39246456 Ry
     Harris-Foulkes estimate   =    -339.39252678 Ry
     estimated scf accuracy    <       0.00014582 Ry

     iteration #  3     ecut=    65.00 Ry     beta= 0.70
     Davidson diagonalization with overlap
     ethr =  8.10E-07,  avg # of iterations =  2.6

     total cpu time spent up to now is        1.3 secs

     total energy              =    -339.39242800 Ry
     Harris-Foulkes estimate   =    -339.39260701 Ry
     estimated scf accuracy    <       0.00051409 Ry

     iteration #  4     ecut=    65.00 Ry     beta= 0.70
     Davidson diagonalization with overlap
     ethr =  8.10E-07,  avg # of iterations =  2.2

     total cpu time spent up to now is        1.4 secs

     total energy              =    -339.39251218 Ry
     Harris-Foulkes estimate   =    -339.39251230 Ry
     estimated scf accuracy    <       0.00000091 Ry

     iteration #  5     ecut=    65.00 Ry     beta= 0.70
     Davidson diagonalization with overlap
     ethr =  5.05E-09,  avg # of iterations =  3.0

     total cpu time spent up to now is        1.5 secs

     total energy              =    -339.39251266 Ry
     Harris-Foulkes estimate   =    -339.39251267 Ry
     estimated scf accuracy    <       0.00000002 Ry

     iteration #  6     ecut=    65.00 Ry     beta= 0.70
     Davidson diagonalization with overlap
     ethr =  9.24E-11,  avg # of iterations =  1.9

     total cpu time spent up to now is        1.6 secs

     End of self-consistent calculation

          k = 0.0000 0.0000 0.0000 (   645 PWs)   bands (ev):

   -85.2555 -45.6521 -45.6521 -45.6521   8.6053  15.6502  15.6502  15.6502
    16.7800  16.7800  41.2770  45.2048  45.2048

          k =-0.2500 0.2500-0.2500 (   640 PWs)   bands (ev):

   -85.2382 -45.7639 -45.6682 -45.6682  10.8562  15.2698  15.8609  15.8609
    16.8707  16.8707  32.1314  41.3898  42.9921

          k = 0.5000-0.5000 0.5000 (   652 PWs)   bands (ev):

   -85.2214 -45.8748 -45.6843 -45.6843  13.0523  15.6166  15.6166  17.3304
    17.5112  17.5112  23.5458  39.7937  42.3159

          k = 0.0000 0.5000 0.0000 (   649 PWs)   bands (ev):

   -85.2329 -45.7594 -45.6938 -45.6938  11.5215  14.6865  16.1161  16.5129
    16.5129  17.1392  36.9011  36.9011  37.7017

          k = 0.7500-0.2500 0.7500 (   655 PWs)   bands (ev):

   -85.2159 -45.8371 -45.7418 -45.7099  13.8072  14.4959  15.6152  16.5015
    17.5638  20.1093  26.2145  32.2656  35.8173

          k = 0.5000 0.0000 0.5000 (   656 PWs)   bands (ev):

   -85.2216 -45.8116 -45.7465 -45.6843  13.5304  14.9449  15.2279  16.3250
    16.7323  18.9576  29.2651  30.6098  40.5575

          k = 0.0000-1.0000 0.0000 (   636 PWs)   bands (ev):

   -85.2097 -45.8628 -45.7355 -45.7355  13.2289  13.8050  17.5108  17.6866
    17.6866  20.0668  27.0250  32.4507  32.4507

          k =-0.5000-1.0000 0.0000 (   648 PWs)   bands (ev):

   -85.2100 -45.7992 -45.7992 -45.7370  14.1432  14.9313  14.9313  16.6978
    17.6876  25.4810  25.4810  27.7429  28.7874

     the Fermi energy is    17.6081 ev

!    total energy              =    -339.39251267 Ry
     Harris-Foulkes estimate   =    -339.39251267 Ry
     estimated scf accuracy    <          1.2E-09 Ry

     The total energy is the sum of the following terms:

     one-electron contribution =    -186.54624310 Ry
     hartree contribution      =     104.45009197 Ry
     xc contribution           =     -33.91036140 Ry
     ewald contribution        =    -223.38275369 Ry
     smearing contrib. (-TS)   =      -0.00324645 Ry

     convergence has been achieved in   6 iterations

     Forces acting on atoms (cartesian axes, Ry/au):

     atom    1 type  1   force =     0.00000000    0.00000000    0.00000000

     Total force =     0.000000     Total SCF correction =     0.000000


     Computing stress (Cartesian axis) and pressure

          total   stress  (Ry/bohr**3)                   (kbar)     P= -147.43
  -0.00100224   0.00000000   0.00000000       -147.43      0.00      0.00
   0.00000000  -0.00100224  -0.00000000          0.00   -147.43     -0.00
   0.00000000  -0.00000000  -0.00100224          0.00     -0.00   -147.43


     Writing output data file Ni.save/

     init_run     :      0.20s CPU      0.20s WALL (       1 calls)
     electrons    :      0.69s CPU      0.73s WALL (       1 calls)
     forces       :      0.02s CPU      0.02s WALL (       1 calls)
     stress       :      0.06s CPU      0.06s WALL (       1 calls)

     Called by init_run:
     wfcinit      :      0.03s CPU      0.03s WALL (       1 calls)
     potinit      :      0.01s CPU      0.01s WALL (       1 calls)
     hinit0       :      0.15s CPU      0.15s WALL (       1 calls)

     Called by electrons:
     c_bands      :      0.50s CPU      0.53s WALL (       7 calls)
     sum_band     :      0.13s CPU      0.14s WALL (       7 calls)
     v_of_rho     :      0.02s CPU      0.02s WALL (       7 calls)
     newd         :      0.04s CPU      0.04s WALL (       7 calls)
     mix_rho      :      0.00s CPU      0.00s WALL (       7 calls)

     Called by c_bands:
     init_us_2    :      0.01s CPU      0.01s WALL (     136 calls)
     cegterg      :      0.48s CPU      0.51s WALL (      56 calls)

     Called by sum_band:
     sum_band:bec :      0.00s CPU      0.00s WALL (      56 calls)
     addusdens    :      0.04s CPU      0.04s WALL (       7 calls)

     Called by *egterg:
     h_psi        :      0.35s CPU      0.37s WALL (     206 calls)
     s_psi        :      0.01s CPU      0.01s WALL (     206 calls)
     g_psi        :      0.00s CPU      0.00s WALL (     142 calls)
     cdiaghg      :      0.07s CPU      0.07s WALL (     190 calls)

     Called by h_psi:
     h_psi:pot    :      0.35s CPU      0.37s WALL (     206 calls)
     h_psi:calbec :      0.01s CPU      0.02s WALL (     206 calls)
     vloc_psi     :      0.32s CPU      0.34s WALL (     206 calls)
     add_vuspsi   :      0.01s CPU      0.01s WALL (     206 calls)

     General routines
     calbec       :      0.02s CPU      0.03s WALL (     302 calls)
     fft          :      0.02s CPU      0.02s WALL (     104 calls)
     ffts         :      0.00s CPU      0.00s WALL (       7 calls)
     fftw         :      0.37s CPU      0.39s WALL (    4544 calls)

     Parallel routines
     fft_scatt_xy :      0.03s CPU      0.03s WALL (    4655 calls)
     fft_scatt_yz :      0.12s CPU      0.13s WALL (    4655 calls)

     PWSCF        :     1.69s CPU         1.77s WALL


   This run was terminated on:  22:46:51  26Mar2024            

=------------------------------------------------------------------------------=
   JOB DONE.
=------------------------------------------------------------------------------=
