
     Program PWSCF v.6.3MaX starts on 26Mar2024 at 23: 4:22 

     This program is part of the open-source Quantum ESPRESSO suite
     for quantum simulation of materials; please cite
         "P. Giannozzi et al., J. Phys.:Condens. Matter 21 395502 (2009);
         "P. Giannozzi et al., J. Phys.:Condens. Matter 29 465901 (2017);
          URL http://www.quantum-espresso.org", 
     in publications or presentations arising from this work. More details at
     http://www.quantum-espresso.org/quote

     Parallel version (MPI), running on     5 processors

     MPI processes distributed on     1 nodes
     R & G space division:  proc/nbgrp/npool/nimage =       5
     Waiting for input...
     Reading input from standard input

     Current dimensions of program PWSCF are:
     Max number of different atomic species (ntypx) = 10
     Max number of k-points (npk) =  40000
     Max angular momentum in pseudopotentials (lmaxx) =  3

     Subspace diagonalization in iterative solution of the eigenvalue problem:
     a serial algorithm will be used


     Parallelization info
     --------------------
     sticks:   dense  smooth     PW     G-vecs:    dense   smooth      PW
     Min         116     116     37                 1850     1850     327
     Max         117     117     38                 1853     1853     329
     Sum         583     583    187                 9257     9257    1639



     bravais-lattice index     =            2
     lattice parameter (alat)  =       6.6500  a.u.
     unit-cell volume          =      73.5199 (a.u.)^3
     number of atoms/cell      =            1
     number of atomic types    =            1
     number of electrons       =        18.00
     number of Kohn-Sham states=           13
     kinetic-energy cutoff     =      95.0000  Ry
     charge density cutoff     =     380.0000  Ry
     convergence threshold     =      1.0E-08
     mixing beta               =       0.7000
     number of iterations used =            8  plain     mixing
     Exchange-correlation      = PBESOL ( 1  4 10  8 0 0)

     celldm(1)=   6.650000  celldm(2)=   0.000000  celldm(3)=   0.000000
     celldm(4)=   0.000000  celldm(5)=   0.000000  celldm(6)=   0.000000

     crystal axes: (cart. coord. in units of alat)
               a(1) = (  -0.500000   0.000000   0.500000 )  
               a(2) = (   0.000000   0.500000   0.500000 )  
               a(3) = (  -0.500000   0.500000   0.000000 )  

     reciprocal axes: (cart. coord. in units 2 pi/alat)
               b(1) = ( -1.000000 -1.000000  1.000000 )  
               b(2) = (  1.000000  1.000000  1.000000 )  
               b(3) = ( -1.000000  1.000000 -1.000000 )  


     PseudoPot. # 1 for Ni read from file:
     /home/lorenzo/pseudos/Ni/Ni.pbesol-spn-rrkjus_psl.1.0.0.UPF
     MD5 check sum: 6fc0a587bf949a08f2faed986b854013
     Pseudo is Ultrasoft + core correction, Zval = 18.0
     Generated using "atomic" code by A. Dal Corso v.6.3
     Using radial grid of 1195 points,  6 beta functions with: 
                l(1) =   0
                l(2) =   0
                l(3) =   1
                l(4) =   1
                l(5) =   2
                l(6) =   2
     Q(r) pseudized with 0 coefficients 


     atomic species   valence    mass     pseudopotential
        Ni            18.00    58.69340     Ni( 1.00)

     48 Sym. Ops., with inversion, found



   Cartesian axes

     site n.     atom                  positions (alat units)
         1           Ni  tau(   1) = (   0.0000000   0.0000000   0.0000000  )

     number of k points=    56  gaussian smearing, width (Ry)=  0.0100
                       cart. coord. in units 2pi/alat
        k(    1) = (   0.0000000   0.0000000   0.0000000), wk =   0.0015026
        k(    2) = (  -0.0909091   0.0909091  -0.0909091), wk =   0.0120210
        k(    3) = (  -0.1818182   0.1818182  -0.1818182), wk =   0.0120210
        k(    4) = (  -0.2727273   0.2727273  -0.2727273), wk =   0.0120210
        k(    5) = (  -0.3636364   0.3636364  -0.3636364), wk =   0.0120210
        k(    6) = (  -0.4545455   0.4545455  -0.4545455), wk =   0.0120210
        k(    7) = (   0.0000000   0.1818182   0.0000000), wk =   0.0090158
        k(    8) = (  -0.0909091   0.2727273  -0.0909091), wk =   0.0360631
        k(    9) = (  -0.1818182   0.3636364  -0.1818182), wk =   0.0360631
        k(   10) = (  -0.2727273   0.4545455  -0.2727273), wk =   0.0360631
        k(   11) = (  -0.3636364   0.5454545  -0.3636364), wk =   0.0360631
        k(   12) = (   0.5454545  -0.3636364   0.5454545), wk =   0.0360631
        k(   13) = (   0.4545455  -0.2727273   0.4545455), wk =   0.0360631
        k(   14) = (   0.3636364  -0.1818182   0.3636364), wk =   0.0360631
        k(   15) = (   0.2727273  -0.0909091   0.2727273), wk =   0.0360631
        k(   16) = (   0.1818182  -0.0000000   0.1818182), wk =   0.0180316
        k(   17) = (   0.0000000   0.3636364   0.0000000), wk =   0.0090158
        k(   18) = (  -0.0909091   0.4545455  -0.0909091), wk =   0.0360631
        k(   19) = (  -0.1818182   0.5454545  -0.1818182), wk =   0.0360631
        k(   20) = (  -0.2727273   0.6363636  -0.2727273), wk =   0.0360631
        k(   21) = (   0.6363636  -0.2727273   0.6363636), wk =   0.0360631
        k(   22) = (   0.5454545  -0.1818182   0.5454545), wk =   0.0360631
        k(   23) = (   0.4545455  -0.0909091   0.4545455), wk =   0.0360631
        k(   24) = (   0.3636364   0.0000000   0.3636364), wk =   0.0180316
        k(   25) = (   0.0000000   0.5454545   0.0000000), wk =   0.0090158
        k(   26) = (  -0.0909091   0.6363636  -0.0909091), wk =   0.0360631
        k(   27) = (  -0.1818182   0.7272727  -0.1818182), wk =   0.0360631
        k(   28) = (   0.7272727  -0.1818182   0.7272727), wk =   0.0360631
        k(   29) = (   0.6363636  -0.0909091   0.6363636), wk =   0.0360631
        k(   30) = (   0.5454545   0.0000000   0.5454545), wk =   0.0180316
        k(   31) = (   0.0000000   0.7272727   0.0000000), wk =   0.0090158
        k(   32) = (  -0.0909091   0.8181818  -0.0909091), wk =   0.0360631
        k(   33) = (   0.8181818  -0.0909091   0.8181818), wk =   0.0360631
        k(   34) = (   0.7272727   0.0000000   0.7272727), wk =   0.0180316
        k(   35) = (   0.0000000   0.9090909   0.0000000), wk =   0.0090158
        k(   36) = (   0.9090909  -0.0000000   0.9090909), wk =   0.0180316
        k(   37) = (  -0.1818182   0.3636364   0.0000000), wk =   0.0360631
        k(   38) = (  -0.2727273   0.4545455  -0.0909091), wk =   0.0721262
        k(   39) = (  -0.3636364   0.5454545  -0.1818182), wk =   0.0721262
        k(   40) = (   0.5454545  -0.3636364   0.7272727), wk =   0.0721262
        k(   41) = (  -0.1818182   0.5454545   0.0000000), wk =   0.0360631
        k(   42) = (  -0.2727273   0.6363636  -0.0909091), wk =   0.0721262
        k(   43) = (   0.6363636  -0.2727273   0.8181818), wk =   0.0721262
        k(   44) = (   0.5454545  -0.1818182   0.7272727), wk =   0.0721262
        k(   45) = (   0.4545455  -0.0909091   0.6363636), wk =   0.0721262
        k(   46) = (   0.3636364   0.0000000   0.5454545), wk =   0.0360631
        k(   47) = (  -0.1818182   0.7272727   0.0000000), wk =   0.0360631
        k(   48) = (   0.7272727  -0.1818182   0.9090909), wk =   0.0721262
        k(   49) = (   0.6363636  -0.0909091   0.8181818), wk =   0.0721262
        k(   50) = (   0.5454545   0.0000000   0.7272727), wk =   0.0360631
        k(   51) = (   0.8181818  -0.0909091   1.0000000), wk =   0.0360631
        k(   52) = (   0.7272727   0.0000000   0.9090909), wk =   0.0360631
        k(   53) = (   0.6363636  -0.2727273   1.0000000), wk =   0.0360631
        k(   54) = (   0.5454545  -0.1818182   0.9090909), wk =   0.0721262
        k(   55) = (   0.6363636  -0.0909091   1.0000000), wk =   0.0360631
        k(   56) = (   0.5454545   0.0000000   0.9090909), wk =   0.0360631

     Dense  grid:     9257 G-vectors     FFT dimensions: (  30,  30,  30)

     Estimated max dynamical RAM per process >      11.14 MB

     Estimated total dynamical RAM >      55.69 MB

     Check: negative/imaginary core charge=   -0.000003    0.000000

     Initial potential from superposition of free atoms

     starting charge   17.99977, renormalised to   18.00000
     Starting wfcs are   10 randomized atomic wfcs +    3 random wfcs

     total cpu time spent up to now is        1.2 secs

     Self-consistent Calculation

     iteration #  1     ecut=    95.00 Ry     beta= 0.70
     Davidson diagonalization with overlap
     ethr =  1.00E-02,  avg # of iterations =  3.5

     Threshold (ethr) on eigenvalues was too large:
     Diagonalizing with lowered threshold

     Davidson diagonalization with overlap
     ethr =  1.02E-05,  avg # of iterations =  3.1

     total cpu time spent up to now is        3.1 secs

     total energy              =    -339.40069372 Ry
     Harris-Foulkes estimate   =    -339.40141781 Ry
     estimated scf accuracy    <       0.00176597 Ry

     iteration #  2     ecut=    95.00 Ry     beta= 0.70
     Davidson diagonalization with overlap
     ethr =  9.81E-06,  avg # of iterations =  2.0

     total cpu time spent up to now is        3.9 secs

     total energy              =    -339.40036031 Ry
     Harris-Foulkes estimate   =    -339.40127929 Ry
     estimated scf accuracy    <       0.00184558 Ry

     iteration #  3     ecut=    95.00 Ry     beta= 0.70
     Davidson diagonalization with overlap
     ethr =  9.81E-06,  avg # of iterations =  2.0

     total cpu time spent up to now is        4.6 secs

     total energy              =    -339.40082424 Ry
     Harris-Foulkes estimate   =    -339.40108660 Ry
     estimated scf accuracy    <       0.00078938 Ry

     iteration #  4     ecut=    95.00 Ry     beta= 0.70
     Davidson diagonalization with overlap
     ethr =  4.39E-06,  avg # of iterations =  1.4

     total cpu time spent up to now is        5.3 secs

     total energy              =    -339.40094031 Ry
     Harris-Foulkes estimate   =    -339.40094015 Ry
     estimated scf accuracy    <       0.00000030 Ry

     iteration #  5     ecut=    95.00 Ry     beta= 0.70
     Davidson diagonalization with overlap
     ethr =  1.65E-09,  avg # of iterations =  3.1

     total cpu time spent up to now is        6.5 secs

     total energy              =    -339.40094276 Ry
     Harris-Foulkes estimate   =    -339.40094287 Ry
     estimated scf accuracy    <       0.00000041 Ry

     iteration #  6     ecut=    95.00 Ry     beta= 0.70
     Davidson diagonalization with overlap
     ethr =  1.65E-09,  avg # of iterations =  1.0

     total cpu time spent up to now is        7.2 secs

     total energy              =    -339.40094276 Ry
     Harris-Foulkes estimate   =    -339.40094278 Ry
     estimated scf accuracy    <       0.00000007 Ry

     iteration #  7     ecut=    95.00 Ry     beta= 0.70
     Davidson diagonalization with overlap
     ethr =  4.15E-10,  avg # of iterations =  1.1

     total cpu time spent up to now is        8.1 secs

     End of self-consistent calculation

          k = 0.0000 0.0000 0.0000 (  1139 PWs)   bands (ev):

   -85.1851 -45.5960 -45.5960 -45.5960   8.6025  15.6940  15.6940  15.6940
    16.8183  16.8183  41.2812  45.1980  45.1980

          k =-0.0909 0.0909-0.0909 (  1167 PWs)   bands (ev):

   -85.1823 -45.6144 -45.5989 -45.5989   8.9249  15.6066  15.7648  15.7648
    16.7895  16.7895  39.9169  42.7202  44.4922

          k =-0.1818 0.1818-0.1818 (  1167 PWs)   bands (ev):

   -85.1750 -45.6621 -45.6060 -45.6060   9.8530  15.4095  15.8925  15.8925
    16.7852  16.7852  35.5571  41.9425  43.5349

          k =-0.2727 0.2727-0.2727 (  1164 PWs)   bands (ev):

   -85.1654 -45.7244 -45.6150 -45.6150  11.2184  15.3120  15.8833  15.8833
    16.9806  16.9806  31.0385  41.1728  42.8531

          k =-0.3636 0.3636-0.3636 (  1155 PWs)   bands (ev):

   -85.1566 -45.7815 -45.6231 -45.6231  12.5006  15.7612  15.7612  15.7870
    17.3006  17.3006  27.0004  40.3543  42.4712

          k =-0.4545 0.4545-0.4545 (  1164 PWs)   bands (ev):

   -85.1513 -45.8155 -45.6281 -45.6281  13.0322  15.6676  15.6676  17.0263
    17.5251  17.5251  24.0603  39.8540  42.3313

          k = 0.0000 0.1818 0.0000 (  1163 PWs)   bands (ev):

   -85.1814 -45.6138 -45.6030 -45.6030   9.0317  15.5343  15.8167  15.8167
    16.6735  16.8746  40.4789  42.5764  42.5764

          k =-0.0909 0.2727-0.0909 (  1164 PWs)   bands (ev):

   -85.1756 -45.6493 -45.6113 -45.6080   9.7568  15.3419  15.9492  15.9623
    16.5678  16.9322  37.3052  40.9796  41.1050

          k =-0.1818 0.3636-0.1818 (  1145 PWs)   bands (ev):

   -85.1668 -45.7051 -45.6207 -45.6161  10.9882  15.1626  15.8998  16.0222
    16.7762  17.0970  32.7140  40.1335  40.2326

          k =-0.2727 0.4545-0.2727 (  1145 PWs)   bands (ev):

   -85.1577 -45.7625 -45.6288 -45.6265  12.3604  15.2710  15.7105  15.9357
    17.3334  17.3675  28.4568  39.4364  39.7062

          k =-0.3636 0.5455-0.3636 (  1149 PWs)   bands (ev):

   -85.1513 -45.8028 -45.6360 -45.6327  13.1326  15.5177  15.8218  16.0087
    17.5523  18.2105  24.9605  38.6037  39.9034

          k = 0.5455-0.3636 0.5455 (  1156 PWs)   bands (ev):

   -85.1495 -45.8137 -45.6413 -45.6314  13.2650  15.5035  15.7740  16.3596
    17.5134  18.8125  23.6764  37.8653  40.8088

          k = 0.4545-0.2727 0.4545 (  1145 PWs)   bands (ev):

   -85.1530 -45.7915 -45.6405 -45.6249  12.9765  15.6002  15.7859  15.8267
    17.2432  18.0719  26.0048  37.4756  41.3614

          k = 0.3636-0.1818 0.3636 (  1148 PWs)   bands (ev):

   -85.1607 -45.7440 -45.6338 -45.6157  11.9367  15.2250  15.7787  15.9569
    16.8543  17.4894  29.8265  37.5590  42.5643

          k = 0.2727-0.0909 0.2727 (  1152 PWs)   bands (ev):

   -85.1700 -45.6861 -45.6229 -45.6065  10.5368  15.2508  15.9067  16.0256
    16.5825  17.0884  34.2289  38.1105  44.0119

          k = 0.1818-0.0000 0.1818 (  1163 PWs)   bands (ev):

   -85.1781 -45.6378 -45.6100 -45.6003   9.4500  15.4574  15.8730  15.8741
    16.6461  16.8803  38.4200  39.5622  44.1062

          k = 0.0000 0.3636 0.0000 (  1162 PWs)   bands (ev):

   -85.1717 -45.6598 -45.6209 -45.6209  10.2540  15.1176  16.1712  16.1712
    16.3287  17.0272  39.2030  39.2030  39.2181

          k =-0.0909 0.4545-0.0909 (  1151 PWs)   bands (ev):

   -85.1644 -45.6995 -45.6317 -45.6309  11.2621  14.8817  15.9771  16.3401
    16.6778  17.1700  34.7841  37.8833  38.8289

          k =-0.1818 0.5455-0.1818 (  1146 PWs)   bands (ev):

   -85.1561 -45.7468 -45.6440 -45.6403  12.5260  14.7672  15.6748  16.3213
    17.4162  17.4844  30.3847  37.2141  37.2142

          k =-0.2727 0.6364-0.2727 (  1144 PWs)   bands (ev):

   -85.1494 -45.7836 -45.6592 -45.6440  13.4542  14.9012  15.5585  16.2087
    17.5848  18.8246  26.4795  35.5260  37.2768

          k = 0.6364-0.2727 0.6364 (  1155 PWs)   bands (ev):

   -85.1464 -45.7982 -45.6718 -45.6418  13.7402  15.0261  15.7148  16.1170
    17.5235  20.4045  23.8697  34.1805  38.1212

          k = 0.5455-0.1818 0.5455 (  1150 PWs)   bands (ev):

   -85.1482 -45.7871 -45.6763 -45.6338  13.6684  15.1763  15.5110  16.1062
    17.2242  19.6008  25.4171  33.3608  39.7113

          k = 0.4545-0.0909 0.4545 (  1141 PWs)   bands (ev):

   -85.1540 -45.7562 -45.6689 -45.6231  12.9907  15.0546  15.4774  16.1948
    16.7868  18.3782  29.0644  33.1401  41.9172

          k = 0.3636 0.0000 0.3636 (  1151 PWs)   bands (ev):

   -85.1622 -45.7187 -45.6491 -45.6129  11.7014  15.0531  15.7548  16.3416
    16.3738  17.6075  33.0269  33.8062  43.6220

          k = 0.0000 0.5455 0.0000 (  1146 PWs)   bands (ev):

   -85.1589 -45.7188 -45.6441 -45.6441  11.9484  14.5962  16.1702  16.7026
    16.7026  17.2303  36.2078  36.2078  36.5550

          k =-0.0909 0.6364-0.0909 (  1141 PWs)   bands (ev):

   -85.1522 -45.7509 -45.6580 -45.6540  12.8183  14.3983  16.0844  16.8291
    17.4271  17.4777  32.6140  34.3926  35.2244

          k =-0.1818 0.7273-0.1818 (  1151 PWs)   bands (ev):

   -85.1462 -45.7753 -45.6787 -45.6584  13.5509  14.3665  15.8690  16.7434
    17.6112  19.1134  28.6125  32.3448  35.0492

          k = 0.7273-0.1818 0.7273 (  1150 PWs)   bands (ev):

   -85.1430 -45.7807 -45.7027 -45.6557  14.0108  14.4682  15.6710  16.6183
    17.5574  21.4392  25.1373  30.7614  35.7347

          k = 0.6364-0.0909 0.6364 (  1144 PWs)   bands (ev):

   -85.1436 -45.7686 -45.7193 -45.6469  14.2460  14.6578  15.3828  16.5145
    17.2731  21.6878  25.0606  29.7528  37.2163

          k = 0.5455 0.0000 0.5455 (  1147 PWs)   bands (ev):

   -85.1477 -45.7600 -45.7063 -45.6348  13.9610  15.0421  15.0514  16.4150
    16.9247  19.7306  28.1171  29.8001  39.3377

          k = 0.0000 0.7273 0.0000 (  1150 PWs)   bands (ev):

   -85.1472 -45.7724 -45.6656 -45.6656  13.0834  14.1391  17.2566  17.2803
    17.2803  17.4203  31.7190  33.9048  33.9048

          k =-0.0909 0.8182-0.0909 (  1152 PWs)   bands (ev):

   -85.1428 -45.7890 -45.6796 -45.6712  13.3511  14.0422  16.8939  17.2719
    17.6247  19.1560  29.6031  31.1786  33.4259

          k = 0.8182-0.0909 0.8182 (  1148 PWs)   bands (ev):

   -85.1404 -45.7868 -45.7043 -45.6691  13.6812  14.1318  16.3789  17.1320
    17.6164  21.5557  27.4387  28.3170  33.8810

          k = 0.7273 0.0000 0.7273 (  1136 PWs)   bands (ev):

   -85.1407 -45.7651 -45.7330 -45.6600  14.0925  14.3333  15.7874  16.8963
    17.4235  23.9585  24.3396  27.8242  35.2052

          k = 0.0000 0.9091 0.0000 (  1154 PWs)   bands (ev):

   -85.1403 -45.8037 -45.6784 -45.6784  13.2512  13.8765  17.5348  17.6793
    17.6793  19.5344  27.7602  32.6190  32.6190

          k = 0.9091-0.0000 0.9091 (  1138 PWs)   bands (ev):

   -85.1394 -45.8027 -45.6875 -45.6774  13.3644  13.9127  17.2508  17.4550
    17.7006  20.7703  27.0775  30.5885  32.7801

          k =-0.1818 0.3636 0.0000 (  1153 PWs)   bands (ev):

   -85.1691 -45.6816 -45.6286 -45.6128  10.6370  15.1226  15.9454  16.1869
    16.4952  17.1231  35.8772  36.5926  42.5578

          k =-0.2727 0.4545-0.0909 (  1146 PWs)   bands (ev):

   -85.1605 -45.7283 -45.6452 -45.6208  11.9221  14.9665  15.7168  16.2485
    16.7564  17.5630  31.6468  35.5697  40.5208

          k =-0.3636 0.5455-0.1818 (  1148 PWs)   bands (ev):

   -85.1526 -45.7728 -45.6565 -45.6307  13.1091  15.1045  15.4946  16.1268
    17.2121  18.3341  27.5490  35.3677  38.6025

          k = 0.5455-0.3636 0.7273 (  1153 PWs)   bands (ev):

   -85.1480 -45.7996 -45.6618 -45.6377  13.5733  15.1979  15.7427  16.0287
    17.4731  19.6358  24.3533  35.6546  37.1906

          k =-0.1818 0.5455 0.0000 (  1139 PWs)   bands (ev):

   -85.1574 -45.7305 -45.6526 -45.6369  12.2721  14.6648  15.7742  16.7040
    16.8148  17.5482  33.5950  34.1201  37.3480

          k =-0.2727 0.6364-0.0909 (  1151 PWs)   bands (ev):

   -85.1502 -45.7617 -45.6719 -45.6459  13.3240  14.5957  15.5065  16.6475
    17.2614  18.5120  29.5961  33.4863  35.2076

          k = 0.6364-0.2727 0.8182 (  1142 PWs)   bands (ev):

   -85.1453 -45.7809 -45.6878 -45.6516  13.9428  14.6746  15.4188  16.4926
    17.4988  20.2889  25.8793  33.0979  34.0999

          k = 0.5455-0.1818 0.7273 (  1154 PWs)   bands (ev):

   -85.1441 -45.7828 -45.6984 -45.6496  14.1414  14.7219  15.4268  16.3934
    17.4391  21.6044  24.1477  31.9727  34.9036

          k = 0.4545-0.0909 0.6364 (  1152 PWs)   bands (ev):

   -85.1470 -45.7696 -45.6962 -45.6408  13.9536  14.9090  15.1480  16.4427
    17.1480  19.8235  27.0546  31.3260  36.3961

          k = 0.3636 0.0000 0.5455 (  1149 PWs)   bands (ev):

   -85.1532 -45.7501 -45.6760 -45.6296  13.1012  14.8437  15.3860  16.5327
    16.7443  18.4327  30.6409  31.6460  38.3515

          k =-0.1818 0.7273 0.0000 (  1152 PWs)   bands (ev):

   -85.1466 -45.7717 -45.6752 -45.6623  13.3527  14.2554  16.1231  17.2503
    17.2779  18.6107  31.7545  31.7716  32.6751

          k = 0.7273-0.1818 0.9091 (  1150 PWs)   bands (ev):

   -85.1424 -45.7792 -45.6971 -45.6676  13.7811  14.2934  15.8878  17.0251
    17.5615  20.6102  28.1658  30.1738  32.2785

          k = 0.6364-0.0909 0.8182 (  1152 PWs)   bands (ev):

   -85.1409 -45.7679 -45.7243 -45.6642  14.1607  14.4256  15.5601  16.7976
    17.5281  23.1954  24.8831  28.8787  33.0805

          k = 0.5455 0.0000 0.7273 (  1151 PWs)   bands (ev):

   -85.1427 -45.7544 -45.7343 -45.6537  14.4452  14.5802  15.1552  16.6461
    17.3028  21.9075  26.1446  28.6498  34.5110

          k = 0.8182-0.0909 1.0000 (  1152 PWs)   bands (ev):

   -85.1402 -45.7947 -45.6885 -45.6783  13.4786  14.0183  16.7591  17.3657
    17.6790  20.7361  27.9200  30.6826  31.3644

          k = 0.7273 0.0000 0.9091 (  1152 PWs)   bands (ev):

   -85.1395 -45.7835 -45.7087 -45.6756  13.7596  14.1882  16.1989  17.1207
    17.6763  22.5629  27.1185  27.8960  31.7576

          k = 0.6364-0.2727 1.0000 (  1151 PWs)   bands (ev):

   -85.1449 -45.7671 -45.7009 -45.6560  13.9988  14.6027  15.2206  16.8618
    17.2768  20.1041  28.8033  30.1375  33.0525

          k = 0.5455-0.1818 0.9091 (  1151 PWs)   bands (ev):

   -85.1417 -45.7646 -45.7211 -45.6646  14.3183  14.6570  15.1186  16.7013
    17.5103  22.3840  25.6760  30.1574  31.4434

          k = 0.6364-0.0909 1.0000 (  1153 PWs)   bands (ev):

   -85.1400 -45.7707 -45.7155 -45.6779  13.9916  14.4508  15.6034  16.9281
    17.6779  22.7584  27.7486  28.4076  29.5961

          k = 0.5455 0.0000 0.9091 (  1148 PWs)   bands (ev):

   -85.1397 -45.7509 -45.7388 -45.6767  14.1909  14.7337  15.1851  16.7511
    17.6762  24.9820  25.0217  28.0339  29.9549

     the Fermi energy is    17.5579 ev

!    total energy              =    -339.40094277 Ry
     Harris-Foulkes estimate   =    -339.40094277 Ry
     estimated scf accuracy    <          3.9E-10 Ry

     The total energy is the sum of the following terms:

     one-electron contribution =    -186.61951725 Ry
     hartree contribution      =     104.52695632 Ry
     xc contribution           =     -33.92283546 Ry
     ewald contribution        =    -223.38275369 Ry
     smearing contrib. (-TS)   =      -0.00279269 Ry

     convergence has been achieved in   7 iterations

     Forces acting on atoms (cartesian axes, Ry/au):

     atom    1 type  1   force =     0.00000000    0.00000000    0.00000000

     Total force =     0.000000     Total SCF correction =     0.000000


     Computing stress (Cartesian axis) and pressure

          total   stress  (Ry/bohr**3)                   (kbar)     P= -114.14
  -0.00077594   0.00000000   0.00000000       -114.14      0.00      0.00
   0.00000000  -0.00077594  -0.00000000          0.00   -114.14     -0.00
   0.00000000  -0.00000000  -0.00077594          0.00     -0.00   -114.14


     Writing output data file Ni.save/

     init_run     :      0.44s CPU      0.46s WALL (       1 calls)
     electrons    :      6.68s CPU      6.92s WALL (       1 calls)
     forces       :      0.10s CPU      0.10s WALL (       1 calls)
     stress       :      0.31s CPU      0.31s WALL (       1 calls)

     Called by init_run:
     wfcinit      :      0.24s CPU      0.25s WALL (       1 calls)
     potinit      :      0.01s CPU      0.01s WALL (       1 calls)
     hinit0       :      0.18s CPU      0.18s WALL (       1 calls)

     Called by electrons:
     c_bands      :      5.52s CPU      5.71s WALL (       8 calls)
     sum_band     :      1.05s CPU      1.09s WALL (       8 calls)
     v_of_rho     :      0.05s CPU      0.05s WALL (       8 calls)
     newd         :      0.07s CPU      0.07s WALL (       8 calls)
     mix_rho      :      0.00s CPU      0.00s WALL (       8 calls)

     Called by c_bands:
     init_us_2    :      0.15s CPU      0.15s WALL (    1064 calls)
     cegterg      :      5.30s CPU      5.49s WALL (     448 calls)

     Called by sum_band:
     sum_band:bec :      0.00s CPU      0.01s WALL (     448 calls)
     addusdens    :      0.07s CPU      0.07s WALL (       8 calls)

     Called by *egterg:
     h_psi        :      4.11s CPU      4.27s WALL (    1476 calls)
     s_psi        :      0.13s CPU      0.13s WALL (    1476 calls)
     g_psi        :      0.01s CPU      0.01s WALL (     972 calls)
     cdiaghg      :      0.48s CPU      0.50s WALL (    1364 calls)

     Called by h_psi:
     h_psi:pot    :      4.09s CPU      4.25s WALL (    1476 calls)
     h_psi:calbec :      0.19s CPU      0.19s WALL (    1476 calls)
     vloc_psi     :      3.76s CPU      3.91s WALL (    1476 calls)
     add_vuspsi   :      0.13s CPU      0.14s WALL (    1476 calls)

     General routines
     calbec       :      0.38s CPU      0.39s WALL (    2204 calls)
     fft          :      0.03s CPU      0.03s WALL (     115 calls)
     ffts         :      0.00s CPU      0.00s WALL (       8 calls)
     fftw         :      4.29s CPU      4.45s WALL (   35228 calls)

     Parallel routines
     fft_scatt_xy :      0.35s CPU      0.37s WALL (   35351 calls)
     fft_scatt_yz :      1.20s CPU      1.24s WALL (   35351 calls)

     PWSCF        :     8.33s CPU         8.69s WALL


   This run was terminated on:  23: 4:31  26Mar2024            

=------------------------------------------------------------------------------=
   JOB DONE.
=------------------------------------------------------------------------------=
