
     Program PWSCF v.6.3MaX starts on 26Mar2024 at 22:53: 8 

     This program is part of the open-source Quantum ESPRESSO suite
     for quantum simulation of materials; please cite
         "P. Giannozzi et al., J. Phys.:Condens. Matter 21 395502 (2009);
         "P. Giannozzi et al., J. Phys.:Condens. Matter 29 465901 (2017);
          URL http://www.quantum-espresso.org", 
     in publications or presentations arising from this work. More details at
     http://www.quantum-espresso.org/quote

     Parallel version (MPI), running on     5 processors

     MPI processes distributed on     1 nodes
     R & G space division:  proc/nbgrp/npool/nimage =       5
     Waiting for input...
     Reading input from standard input

     Current dimensions of program PWSCF are:
     Max number of different atomic species (ntypx) = 10
     Max number of k-points (npk) =  40000
     Max angular momentum in pseudopotentials (lmaxx) =  3

     Subspace diagonalization in iterative solution of the eigenvalue problem:
     a serial algorithm will be used


     Parallelization info
     --------------------
     sticks:   dense  smooth     PW     G-vecs:    dense   smooth      PW
     Min          90      90     30                 1284     1284     248
     Max          91      91     31                 1287     1287     251
     Sum         451     451    151                 6423     6423    1243



     bravais-lattice index     =            2
     lattice parameter (alat)  =       6.6500  a.u.
     unit-cell volume          =      73.5199 (a.u.)^3
     number of atoms/cell      =            1
     number of atomic types    =            1
     number of electrons       =        18.00
     number of Kohn-Sham states=           13
     kinetic-energy cutoff     =      75.0000  Ry
     charge density cutoff     =     300.0000  Ry
     convergence threshold     =      1.0E-08
     mixing beta               =       0.7000
     number of iterations used =            8  plain     mixing
     Exchange-correlation      = PBE ( 1  4  3  4 0 0)

     celldm(1)=   6.650000  celldm(2)=   0.000000  celldm(3)=   0.000000
     celldm(4)=   0.000000  celldm(5)=   0.000000  celldm(6)=   0.000000

     crystal axes: (cart. coord. in units of alat)
               a(1) = (  -0.500000   0.000000   0.500000 )  
               a(2) = (   0.000000   0.500000   0.500000 )  
               a(3) = (  -0.500000   0.500000   0.000000 )  

     reciprocal axes: (cart. coord. in units 2 pi/alat)
               b(1) = ( -1.000000 -1.000000  1.000000 )  
               b(2) = (  1.000000  1.000000  1.000000 )  
               b(3) = ( -1.000000  1.000000 -1.000000 )  


     PseudoPot. # 1 for Ni read from file:
     /home/lorenzo/pseudos/Ni/Ni.pbe-spn-rrkjus_psl.1.0.0.UPF
     MD5 check sum: 8b3fc9aac6dafe35f580d41bb18c3945
     Pseudo is Ultrasoft + core correction, Zval = 18.0
     Generated using "atomic" code by A. Dal Corso v.6.3
     Using radial grid of 1195 points,  6 beta functions with: 
                l(1) =   0
                l(2) =   0
                l(3) =   1
                l(4) =   1
                l(5) =   2
                l(6) =   2
     Q(r) pseudized with 0 coefficients 


     atomic species   valence    mass     pseudopotential
        Ni            18.00    58.69340     Ni( 1.00)

     48 Sym. Ops., with inversion, found



   Cartesian axes

     site n.     atom                  positions (alat units)
         1           Ni  tau(   1) = (   0.0000000   0.0000000   0.0000000  )

     number of k points=    20  gaussian smearing, width (Ry)=  0.0100
                       cart. coord. in units 2pi/alat
        k(    1) = (   0.0000000   0.0000000   0.0000000), wk =   0.0058309
        k(    2) = (  -0.1428571   0.1428571  -0.1428571), wk =   0.0466472
        k(    3) = (  -0.2857143   0.2857143  -0.2857143), wk =   0.0466472
        k(    4) = (  -0.4285714   0.4285714  -0.4285714), wk =   0.0466472
        k(    5) = (   0.0000000   0.2857143   0.0000000), wk =   0.0349854
        k(    6) = (  -0.1428571   0.4285714  -0.1428571), wk =   0.1399417
        k(    7) = (  -0.2857143   0.5714286  -0.2857143), wk =   0.1399417
        k(    8) = (   0.5714286  -0.2857143   0.5714286), wk =   0.1399417
        k(    9) = (   0.4285714  -0.1428571   0.4285714), wk =   0.1399417
        k(   10) = (   0.2857143  -0.0000000   0.2857143), wk =   0.0699708
        k(   11) = (   0.0000000   0.5714286   0.0000000), wk =   0.0349854
        k(   12) = (  -0.1428571   0.7142857  -0.1428571), wk =   0.1399417
        k(   13) = (   0.7142857  -0.1428571   0.7142857), wk =   0.1399417
        k(   14) = (   0.5714286   0.0000000   0.5714286), wk =   0.0699708
        k(   15) = (   0.0000000   0.8571429   0.0000000), wk =   0.0349854
        k(   16) = (   0.8571429  -0.0000000   0.8571429), wk =   0.0699708
        k(   17) = (  -0.2857143   0.5714286   0.0000000), wk =   0.1399417
        k(   18) = (   0.5714286  -0.2857143   0.8571429), wk =   0.2798834
        k(   19) = (   0.7142857  -0.1428571   1.0000000), wk =   0.1399417
        k(   20) = (   0.5714286   0.0000000   0.8571429), wk =   0.1399417

     Dense  grid:     6423 G-vectors     FFT dimensions: (  25,  25,  25)

     Estimated max dynamical RAM per process >       6.88 MB

     Estimated total dynamical RAM >      34.42 MB

     Check: negative/imaginary core charge=   -0.000008    0.000000

     Initial potential from superposition of free atoms

     starting charge   17.99975, renormalised to   18.00000
     Starting wfcs are   10 randomized atomic wfcs +    3 random wfcs

     total cpu time spent up to now is        1.1 secs

     Self-consistent Calculation

     iteration #  1     ecut=    75.00 Ry     beta= 0.70
     Davidson diagonalization with overlap
     ethr =  1.00E-02,  avg # of iterations =  3.6

     Threshold (ethr) on eigenvalues was too large:
     Diagonalizing with lowered threshold

     Davidson diagonalization with overlap
     ethr =  2.19E-05,  avg # of iterations =  3.1

     total cpu time spent up to now is        1.9 secs

     total energy              =    -339.59852175 Ry
     Harris-Foulkes estimate   =    -339.60082072 Ry
     estimated scf accuracy    <       0.00397542 Ry

     iteration #  2     ecut=    75.00 Ry     beta= 0.70
     Davidson diagonalization with overlap
     ethr =  2.21E-05,  avg # of iterations =  2.4

     total cpu time spent up to now is        2.2 secs

     total energy              =    -339.59776362 Ry
     Harris-Foulkes estimate   =    -339.60253217 Ry
     estimated scf accuracy    <       0.01278078 Ry

     iteration #  3     ecut=    75.00 Ry     beta= 0.70
     Davidson diagonalization with overlap
     ethr =  2.21E-05,  avg # of iterations =  2.1

     total cpu time spent up to now is        2.5 secs

     total energy              =    -339.60007264 Ry
     Harris-Foulkes estimate   =    -339.60012515 Ry
     estimated scf accuracy    <       0.00019433 Ry

     iteration #  4     ecut=    75.00 Ry     beta= 0.70
     Davidson diagonalization with overlap
     ethr =  1.08E-06,  avg # of iterations =  1.8

     total cpu time spent up to now is        2.7 secs

     total energy              =    -339.60010237 Ry
     Harris-Foulkes estimate   =    -339.60010218 Ry
     estimated scf accuracy    <       0.00000037 Ry

     iteration #  5     ecut=    75.00 Ry     beta= 0.70
     Davidson diagonalization with overlap
     ethr =  2.06E-09,  avg # of iterations =  3.5

     total cpu time spent up to now is        3.1 secs

     total energy              =    -339.60010299 Ry
     Harris-Foulkes estimate   =    -339.60010301 Ry
     estimated scf accuracy    <       0.00000006 Ry

     iteration #  6     ecut=    75.00 Ry     beta= 0.70
     Davidson diagonalization with overlap
     ethr =  3.18E-10,  avg # of iterations =  1.1

     total cpu time spent up to now is        3.3 secs

     End of self-consistent calculation

          k = 0.0000 0.0000 0.0000 (   869 PWs)   bands (ev):

   -85.2736 -45.5324 -45.5324 -45.5324   8.8257  15.9208  15.9208  15.9208
    17.0312  17.0312  41.4886  45.4379  45.4379

          k =-0.1429 0.1429-0.1429 (   818 PWs)   bands (ev):

   -85.2668 -45.5721 -45.5364 -45.5364   9.6108  15.7258  16.0713  16.0713
    16.9874  16.9874  37.7637  42.4152  44.1652

          k =-0.2857 0.2857-0.2857 (   818 PWs)   bands (ev):

   -85.2525 -45.6654 -45.5500 -45.5500  11.6506  15.5560  16.0923  16.0923
    17.2433  17.2433  30.6531  41.2551  43.0316

          k =-0.4286 0.4286-0.4286 (   805 PWs)   bands (ev):

   -85.2409 -45.7393 -45.5604 -45.5604  13.1830  15.9081  15.9081  16.8941
    17.7013  17.7013  24.9378  40.1548  42.6105

          k = 0.0000 0.2857 0.0000 (   813 PWs)   bands (ev):

   -85.2646 -45.5701 -45.5460 -45.5460   9.8674  15.5478  16.2216  16.2216
    16.7024  17.1662  39.9541  40.8693  40.8693

          k =-0.1429 0.4286-0.1429 (   814 PWs)   bands (ev):

   -85.2530 -45.6398 -45.5615 -45.5588  11.4988  15.2137  16.1102  16.4139
    17.0188  17.3947  33.4466  38.9115  39.5578

          k =-0.2857 0.5714-0.2857 (   811 PWs)   bands (ev):

   -85.2406 -45.7135 -45.5786 -45.5715  13.3685  15.3626  15.8184  16.2722
    17.7612  18.4326  26.9592  37.5433  38.5005

          k = 0.5714-0.2857 0.5714 (   802 PWs)   bands (ev):

   -85.2367 -45.7350 -45.5917 -45.5679  13.7456  15.5067  16.1488  16.1604
    17.6763  19.8797  24.1041  35.7526  39.8961

          k = 0.4286-0.1429 0.4286 (   810 PWs)   bands (ev):

   -85.2444 -45.6901 -45.5873 -45.5544  12.9131  15.3871  15.8170  16.2796
    17.0867  18.2754  28.9917  35.2015  42.3085

          k = 0.2857-0.0000 0.2857 (   811 PWs)   bands (ev):

   -85.2577 -45.6172 -45.5631 -45.5396  10.8377  15.4379  16.1220  16.3429
    16.6898  17.3840  35.5507  36.3251  45.5100

          k = 0.0000 0.5714 0.0000 (   821 PWs)   bands (ev):

   -85.2457 -45.6602 -45.5809 -45.5809  12.4011  14.7515  16.4348  17.0129
    17.0129  17.4740  36.0742  36.0742  36.0934

          k =-0.1429 0.7143-0.1429 (   807 PWs)   bands (ev):

   -85.2358 -45.7023 -45.6063 -45.5929  13.5817  14.5327  16.2752  17.0768
    17.7995  18.7923  30.2974  32.7048  34.9938

          k = 0.7143-0.1429 0.7143 (   806 PWs)   bands (ev):

   -85.2311 -45.7080 -45.6444 -45.5890  14.3192  14.6690  15.8829  16.8770
    17.7264  22.4335  24.8537  30.2018  36.0198

          k = 0.5714 0.0000 0.5714 (   802 PWs)   bands (ev):

   -85.2348 -45.6910 -45.6473 -45.5716  14.3584  15.1452  15.3259  16.6755
    17.2316  20.4557  27.7039  29.6259  38.9159

          k = 0.0000 0.8571 0.0000 (   794 PWs)   bands (ev):

   -85.2303 -45.7279 -45.6083 -45.6083  13.4643  14.1548  17.7268  17.8251
    17.8251  19.1374  28.8974  33.1089  33.1089

          k = 0.8571-0.0000 0.8571 (   798 PWs)   bands (ev):

   -85.2281 -45.7258 -45.6302 -45.6068  13.7412  14.2386  17.0225  17.5412
    17.8743  21.7703  27.3432  29.1129  33.4978

          k =-0.2857 0.5714 0.0000 (   812 PWs)   bands (ev):

   -85.2423 -45.6789 -45.6015 -45.5688  13.1360  14.9343  15.7142  16.9484
    17.0226  18.3732  31.7971  32.6033  37.3078

          k = 0.5714-0.2857 0.8571 (   808 PWs)   bands (ev):

   -85.2337 -45.7083 -45.6284 -45.5834  14.3107  14.9596  15.4897  16.7112
    17.6168  20.8001  26.0412  32.4340  34.3510

          k = 0.7143-0.1429 1.0000 (   803 PWs)   bands (ev):

   -85.2299 -45.7112 -45.6317 -45.6070  13.9975  14.4949  16.1751  17.3405
    17.8222  21.3759  29.3706  29.4390  30.7262

          k = 0.5714 0.0000 0.8571 (   805 PWs)   bands (ev):

   -85.2289 -45.6841 -45.6709 -45.6036  14.4445  14.8284  15.5310  16.9794
    17.8190  24.6281  25.0738  28.2824  31.6021

     the Fermi energy is    17.8071 ev

!    total energy              =    -339.60010299 Ry
     Harris-Foulkes estimate   =    -339.60010299 Ry
     estimated scf accuracy    <          3.5E-09 Ry

     The total energy is the sum of the following terms:

     one-electron contribution =    -186.69567189 Ry
     hartree contribution      =     104.80804561 Ry
     xc contribution           =     -34.32708261 Ry
     ewald contribution        =    -223.38275369 Ry
     smearing contrib. (-TS)   =      -0.00264042 Ry

     convergence has been achieved in   6 iterations

     Forces acting on atoms (cartesian axes, Ry/au):

     atom    1 type  1   force =     0.00000000    0.00000000    0.00000000

     Total force =     0.000000     Total SCF correction =     0.000000


     Computing stress (Cartesian axis) and pressure

          total   stress  (Ry/bohr**3)                   (kbar)     P=  -66.57
  -0.00045255   0.00000000  -0.00000000        -66.57      0.00     -0.00
   0.00000000  -0.00045255   0.00000000          0.00    -66.57      0.00
  -0.00000000   0.00000000  -0.00045255         -0.00      0.00    -66.57


     Writing output data file Ni.save/

     init_run     :      0.28s CPU      0.28s WALL (       1 calls)
     electrons    :      2.16s CPU      2.28s WALL (       1 calls)
     forces       :      0.03s CPU      0.03s WALL (       1 calls)
     stress       :      0.11s CPU      0.11s WALL (       1 calls)

     Called by init_run:
     wfcinit      :      0.08s CPU      0.08s WALL (       1 calls)
     potinit      :      0.01s CPU      0.01s WALL (       1 calls)
     hinit0       :      0.18s CPU      0.18s WALL (       1 calls)

     Called by electrons:
     c_bands      :      1.77s CPU      1.86s WALL (       7 calls)
     sum_band     :      0.32s CPU      0.34s WALL (       7 calls)
     v_of_rho     :      0.02s CPU      0.03s WALL (       7 calls)
     newd         :      0.05s CPU      0.06s WALL (       7 calls)
     mix_rho      :      0.00s CPU      0.00s WALL (       7 calls)

     Called by c_bands:
     init_us_2    :      0.04s CPU      0.04s WALL (     340 calls)
     cegterg      :      1.70s CPU      1.79s WALL (     140 calls)

     Called by sum_band:
     sum_band:bec :      0.00s CPU      0.00s WALL (     140 calls)
     addusdens    :      0.05s CPU      0.05s WALL (       7 calls)

     Called by *egterg:
     h_psi        :      1.23s CPU      1.30s WALL (     511 calls)
     s_psi        :      0.04s CPU      0.04s WALL (     511 calls)
     g_psi        :      0.00s CPU      0.00s WALL (     351 calls)
     cdiaghg      :      0.23s CPU      0.24s WALL (     471 calls)

     Called by h_psi:
     h_psi:pot    :      1.22s CPU      1.29s WALL (     511 calls)
     h_psi:calbec :      0.06s CPU      0.07s WALL (     511 calls)
     vloc_psi     :      1.12s CPU      1.18s WALL (     511 calls)
     add_vuspsi   :      0.04s CPU      0.04s WALL (     511 calls)

     General routines
     calbec       :      0.10s CPU      0.10s WALL (     751 calls)
     fft          :      0.02s CPU      0.02s WALL (     104 calls)
     ffts         :      0.00s CPU      0.00s WALL (       7 calls)
     fftw         :      1.25s CPU      1.32s WALL (   11332 calls)

     Parallel routines
     fft_scatt_xy :      0.09s CPU      0.09s WALL (   11443 calls)
     fft_scatt_yz :      0.43s CPU      0.46s WALL (   11443 calls)

     PWSCF        :     3.37s CPU         3.55s WALL


   This run was terminated on:  22:53:11  26Mar2024            

=------------------------------------------------------------------------------=
   JOB DONE.
=------------------------------------------------------------------------------=
