
     Program PWSCF v.6.3MaX starts on 26Mar2024 at 22:31:37 

     This program is part of the open-source Quantum ESPRESSO suite
     for quantum simulation of materials; please cite
         "P. Giannozzi et al., J. Phys.:Condens. Matter 21 395502 (2009);
         "P. Giannozzi et al., J. Phys.:Condens. Matter 29 465901 (2017);
          URL http://www.quantum-espresso.org", 
     in publications or presentations arising from this work. More details at
     http://www.quantum-espresso.org/quote

     Parallel version (MPI), running on     5 processors

     MPI processes distributed on     1 nodes
     R & G space division:  proc/nbgrp/npool/nimage =       5
     Waiting for input...
     Reading input from standard input

     Current dimensions of program PWSCF are:
     Max number of different atomic species (ntypx) = 10
     Max number of k-points (npk) =  40000
     Max angular momentum in pseudopotentials (lmaxx) =  3

     Subspace diagonalization in iterative solution of the eigenvalue problem:
     a serial algorithm will be used


     Parallelization info
     --------------------
     sticks:   dense  smooth     PW     G-vecs:    dense   smooth      PW
     Min          37      37     12                  327      327      67
     Max          38      38     13                  329      329      70
     Sum         187     187     61                 1639     1639     339



     bravais-lattice index     =            2
     lattice parameter (alat)  =       6.6500  a.u.
     unit-cell volume          =      73.5199 (a.u.)^3
     number of atoms/cell      =            1
     number of atomic types    =            1
     number of electrons       =        18.00
     number of Kohn-Sham states=           13
     kinetic-energy cutoff     =      30.0000  Ry
     charge density cutoff     =     120.0000  Ry
     convergence threshold     =      1.0E-08
     mixing beta               =       0.7000
     number of iterations used =            8  plain     mixing
     Exchange-correlation      = PBE ( 1  4  3  4 0 0)

     celldm(1)=   6.650000  celldm(2)=   0.000000  celldm(3)=   0.000000
     celldm(4)=   0.000000  celldm(5)=   0.000000  celldm(6)=   0.000000

     crystal axes: (cart. coord. in units of alat)
               a(1) = (  -0.500000   0.000000   0.500000 )  
               a(2) = (   0.000000   0.500000   0.500000 )  
               a(3) = (  -0.500000   0.500000   0.000000 )  

     reciprocal axes: (cart. coord. in units 2 pi/alat)
               b(1) = ( -1.000000 -1.000000  1.000000 )  
               b(2) = (  1.000000  1.000000  1.000000 )  
               b(3) = ( -1.000000  1.000000 -1.000000 )  


     PseudoPot. # 1 for Ni read from file:
     /home/lorenzo/pseudos/Ni/Ni.pbe-spn-rrkjus_psl.1.0.0.UPF
     MD5 check sum: 8b3fc9aac6dafe35f580d41bb18c3945
     Pseudo is Ultrasoft + core correction, Zval = 18.0
     Generated using "atomic" code by A. Dal Corso v.6.3
     Using radial grid of 1195 points,  6 beta functions with: 
                l(1) =   0
                l(2) =   0
                l(3) =   1
                l(4) =   1
                l(5) =   2
                l(6) =   2
     Q(r) pseudized with 0 coefficients 


     atomic species   valence    mass     pseudopotential
        Ni            18.00    58.69340     Ni( 1.00)

     48 Sym. Ops., with inversion, found



   Cartesian axes

     site n.     atom                  positions (alat units)
         1           Ni  tau(   1) = (   0.0000000   0.0000000   0.0000000  )

     number of k points=    35  gaussian smearing, width (Ry)=  0.0100
                       cart. coord. in units 2pi/alat
        k(    1) = (   0.0000000   0.0000000   0.0000000), wk =   0.0027435
        k(    2) = (  -0.1111111   0.1111111  -0.1111111), wk =   0.0219479
        k(    3) = (  -0.2222222   0.2222222  -0.2222222), wk =   0.0219479
        k(    4) = (  -0.3333333   0.3333333  -0.3333333), wk =   0.0219479
        k(    5) = (  -0.4444444   0.4444444  -0.4444444), wk =   0.0219479
        k(    6) = (   0.0000000   0.2222222   0.0000000), wk =   0.0164609
        k(    7) = (  -0.1111111   0.3333333  -0.1111111), wk =   0.0658436
        k(    8) = (  -0.2222222   0.4444444  -0.2222222), wk =   0.0658436
        k(    9) = (  -0.3333333   0.5555556  -0.3333333), wk =   0.0658436
        k(   10) = (   0.5555556  -0.3333333   0.5555556), wk =   0.0658436
        k(   11) = (   0.4444444  -0.2222222   0.4444444), wk =   0.0658436
        k(   12) = (   0.3333333  -0.1111111   0.3333333), wk =   0.0658436
        k(   13) = (   0.2222222  -0.0000000   0.2222222), wk =   0.0329218
        k(   14) = (   0.0000000   0.4444444   0.0000000), wk =   0.0164609
        k(   15) = (  -0.1111111   0.5555556  -0.1111111), wk =   0.0658436
        k(   16) = (  -0.2222222   0.6666667  -0.2222222), wk =   0.0658436
        k(   17) = (   0.6666667  -0.2222222   0.6666667), wk =   0.0658436
        k(   18) = (   0.5555556  -0.1111111   0.5555556), wk =   0.0658436
        k(   19) = (   0.4444444   0.0000000   0.4444444), wk =   0.0329218
        k(   20) = (   0.0000000   0.6666667   0.0000000), wk =   0.0164609
        k(   21) = (  -0.1111111   0.7777778  -0.1111111), wk =   0.0658436
        k(   22) = (   0.7777778  -0.1111111   0.7777778), wk =   0.0658436
        k(   23) = (   0.6666667  -0.0000000   0.6666667), wk =   0.0329218
        k(   24) = (   0.0000000   0.8888889   0.0000000), wk =   0.0164609
        k(   25) = (   0.8888889   0.0000000   0.8888889), wk =   0.0329218
        k(   26) = (  -0.2222222   0.4444444   0.0000000), wk =   0.0658436
        k(   27) = (  -0.3333333   0.5555556  -0.1111111), wk =   0.1316872
        k(   28) = (   0.5555556  -0.3333333   0.7777778), wk =   0.1316872
        k(   29) = (  -0.2222222   0.6666667   0.0000000), wk =   0.0658436
        k(   30) = (   0.6666667  -0.2222222   0.8888889), wk =   0.1316872
        k(   31) = (   0.5555556  -0.1111111   0.7777778), wk =   0.1316872
        k(   32) = (   0.4444444   0.0000000   0.6666667), wk =   0.0658436
        k(   33) = (   0.7777778  -0.1111111   1.0000000), wk =   0.0658436
        k(   34) = (   0.6666667  -0.0000000   0.8888889), wk =   0.0658436
        k(   35) = (   0.5555556  -0.1111111   1.0000000), wk =   0.0658436

     Dense  grid:     1639 G-vectors     FFT dimensions: (  18,  18,  18)

     Estimated max dynamical RAM per process >       2.46 MB

     Estimated total dynamical RAM >      12.32 MB

     Check: negative/imaginary core charge=   -0.000069    0.000000

     Initial potential from superposition of free atoms

     starting charge   17.99975, renormalised to   18.00000
     Starting wfcs are   10 randomized atomic wfcs +    3 random wfcs

     total cpu time spent up to now is        0.8 secs

     Self-consistent Calculation

     iteration #  1     ecut=    30.00 Ry     beta= 0.70
     Davidson diagonalization with overlap
     ethr =  1.00E-02,  avg # of iterations =  4.1

     total cpu time spent up to now is        1.1 secs

     total energy              =    -334.62623604 Ry
     Harris-Foulkes estimate   =    -335.55765255 Ry
     estimated scf accuracy    <       1.23287053 Ry

     iteration #  2     ecut=    30.00 Ry     beta= 0.70
     Davidson diagonalization with overlap
     ethr =  6.85E-03,  avg # of iterations =  2.0

     total cpu time spent up to now is        1.4 secs

     total energy              =    -334.61014616 Ry
     Harris-Foulkes estimate   =    -336.02848167 Ry
     estimated scf accuracy    <       3.68176416 Ry

     iteration #  3     ecut=    30.00 Ry     beta= 0.70
     Davidson diagonalization with overlap
     ethr =  6.85E-03,  avg # of iterations =  2.0

     total cpu time spent up to now is        1.5 secs

     total energy              =    -335.21115044 Ry
     Harris-Foulkes estimate   =    -335.21689952 Ry
     estimated scf accuracy    <       0.01418277 Ry

     iteration #  4     ecut=    30.00 Ry     beta= 0.70
     Davidson diagonalization with overlap
     ethr =  7.88E-05,  avg # of iterations =  2.1

     total cpu time spent up to now is        1.7 secs

     total energy              =    -335.21270634 Ry
     Harris-Foulkes estimate   =    -335.21276248 Ry
     estimated scf accuracy    <       0.00026145 Ry

     iteration #  5     ecut=    30.00 Ry     beta= 0.70
     Davidson diagonalization with overlap
     ethr =  1.45E-06,  avg # of iterations =  2.2

     total cpu time spent up to now is        1.9 secs

     total energy              =    -335.21274284 Ry
     Harris-Foulkes estimate   =    -335.21276023 Ry
     estimated scf accuracy    <       0.00004456 Ry

     iteration #  6     ecut=    30.00 Ry     beta= 0.70
     Davidson diagonalization with overlap
     ethr =  2.48E-07,  avg # of iterations =  1.3

     total cpu time spent up to now is        2.0 secs

     total energy              =    -335.21274959 Ry
     Harris-Foulkes estimate   =    -335.21274968 Ry
     estimated scf accuracy    <       0.00000023 Ry

     iteration #  7     ecut=    30.00 Ry     beta= 0.70
     Davidson diagonalization with overlap
     ethr =  1.30E-09,  avg # of iterations =  2.0

     total cpu time spent up to now is        2.2 secs

     total energy              =    -335.21274967 Ry
     Harris-Foulkes estimate   =    -335.21274968 Ry
     estimated scf accuracy    <       0.00000005 Ry

     iteration #  8     ecut=    30.00 Ry     beta= 0.70
     Davidson diagonalization with overlap
     ethr =  2.85E-10,  avg # of iterations =  1.1

     total cpu time spent up to now is        2.3 secs

     End of self-consistent calculation

          k = 0.0000 0.0000 0.0000 (   181 PWs)   bands (ev):

   -89.0616 -41.8467 -41.8467 -41.8467   9.6609  19.0139  19.0139  19.0139
    19.5430  19.5430  42.0428  46.0286  46.0286

          k =-0.1111 0.1111-0.1111 (   190 PWs)   bands (ev):

   -89.0928 -43.3120 -42.3567 -42.3567  10.1221  18.0758  18.0758  18.1075
    18.9592  18.9592  39.5359  43.2616  44.8066

          k =-0.2222 0.2222-0.2222 (   199 PWs)   bands (ev):

   -89.1352 -44.8409 -43.0356 -43.0356  11.4435  16.7519  17.3475  17.3475
    18.2747  18.2747  33.7289  42.4119  43.5605

          k =-0.3333 0.3333-0.3333 (   205 PWs)   bands (ev):

   -89.1647 -45.0119 -43.8645 -43.8645  13.2467  16.2977  17.2424  17.2424
    17.4947  17.4947  28.7681  41.3489  42.8579

          k =-0.4444 0.4444-0.4444 (   207 PWs)   bands (ev):

   -89.1601 -44.8210 -44.1598 -44.1598  14.6159  16.7655  16.7655  17.5107
    17.5107  17.5411  25.3160  40.6396  42.8441

          k = 0.0000 0.2222 0.0000 (   186 PWs)   bands (ev):

   -89.0692 -43.1304 -41.8788 -41.8788  10.2847  17.9634  18.6888  18.6888
    18.7115  19.8320  40.8605  42.4918  42.4918

          k =-0.1111 0.3333-0.1111 (   196 PWs)   bands (ev):

   -89.1179 -44.5930 -42.7833 -42.6714  11.3216  16.7689  17.4161  17.7060
    18.3147  19.0603  35.9119  40.5353  41.0343

          k =-0.2222 0.4444-0.2222 (   200 PWs)   bands (ev):

   -89.1346 -44.8049 -43.3741 -43.2096  13.0233  16.1680  17.1615  17.6531
    18.0299  18.6470  30.6084  39.6720  39.8136

          k =-0.3333 0.5556-0.3333 (   205 PWs)   bands (ev):

   -89.1553 -44.7948 -43.9919 -43.9839  14.5510  16.1002  16.9157  17.4360
    17.6063  18.5924  26.3765  38.4687  39.5588

          k = 0.5556-0.3333 0.5556 (   206 PWs)   bands (ev):

   -89.1536 -45.0333 -44.1092 -43.8318  14.5740  16.4621  16.8923  17.2179
    17.6608  19.6042  24.3178  37.3574  40.6621

          k = 0.4444-0.2222 0.4444 (   205 PWs)   bands (ev):

   -89.1570 -44.9913 -44.0313 -43.7222  14.1406  16.2591  16.8247  17.2369
    17.6773  18.2230  27.6229  36.9085  42.3136

          k = 0.3333-0.1111 0.3333 (   200 PWs)   bands (ev):

   -89.1379 -44.8294 -43.4202 -43.0697  12.4084  16.1500  17.2531  17.8578
    18.1386  18.2001  32.2523  37.2389  44.1335

          k = 0.2222-0.0000 0.2222 (   200 PWs)   bands (ev):

   -89.1397 -44.7161 -43.2835 -42.9096  10.8751  16.3790  17.3963  17.6029
    18.2367  18.3364  37.2125  38.5957  45.2211

          k = 0.0000 0.4444 0.0000 (   202 PWs)   bands (ev):

   -89.1547 -44.7103 -43.5819 -43.5819  12.0049  16.9654  16.9654  17.2925
    17.4431  18.0382  38.0217  38.0217  39.1637

          k =-0.1111 0.5556-0.1111 (   206 PWs)   bands (ev):

   -89.1694 -45.2358 -44.1342 -43.6908  13.2851  16.1712  16.9907  17.0575
    17.3689  17.8914  33.0469  36.7336  36.8519

          k =-0.2222 0.6667-0.2222 (   204 PWs)   bands (ev):

   -89.1497 -44.6188 -44.0390 -43.9225  14.6621  15.6821  16.8095  17.4250
    17.9885  19.6634  28.2990  34.5457  36.5406

          k = 0.6667-0.2222 0.6667 (   204 PWs)   bands (ev):

   -89.1428 -44.6895 -43.9601 -43.8958  15.2473  15.6558  16.8443  17.6375
    17.7207  21.6741  24.8428  32.8600  37.5358

          k = 0.5556-0.1111 0.5556 (   204 PWs)   bands (ev):

   -89.1468 -44.5292 -44.0609 -43.9666  15.1264  16.0856  16.4498  17.1974
    17.7464  20.5417  26.9029  31.9981  39.4999

          k = 0.4444 0.0000 0.4444 (   202 PWs)   bands (ev):

   -89.1386 -45.1810 -43.7042 -43.0918  13.9134  15.8025  16.8061  17.3654
    18.5147  18.7044  30.8281  32.5329  42.3699

          k = 0.0000 0.6667 0.0000 (   202 PWs)   bands (ev):

   -89.1453 -44.7004 -43.7617 -43.7617  14.0346  16.6873  17.2915  17.2915
    18.0649  18.1376  33.5878  35.0008  35.0008

          k =-0.1111 0.7778-0.1111 (   205 PWs)   bands (ev):

   -89.1626 -44.7018 -44.2670 -44.1849  14.6651  15.7352  17.1654  17.3968
    17.9367  19.5585  30.6347  31.6718  34.3104

          k = 0.7778-0.1111 0.7778 (   208 PWs)   bands (ev):

   -89.1727 -44.8284 -44.6538 -44.3796  14.8023  15.3462  16.5311  17.5282
    17.7720  22.2133  26.9013  29.4312  34.8635

          k = 0.6667-0.0000 0.6667 (   212 PWs)   bands (ev):

   -89.1910 -44.9957 -44.9272 -44.7929  14.9714  15.2157  15.8915  16.8899
    17.7524  22.8220  25.2953  28.9182  36.6924

          k = 0.0000 0.8889 0.0000 (   206 PWs)   bands (ev):

   -89.1621 -44.8627 -44.2817 -44.2817  14.6688  15.4174  17.6538  17.6538
    18.1209  19.8349  28.7571  33.2554  33.2554

          k = 0.8889 0.0000 0.8889 (   208 PWs)   bands (ev):

   -89.1751 -44.9983 -44.6094 -44.3791  14.3455  15.2650  17.2528  17.8065
    17.9117  21.4791  27.5044  30.4821  33.4223

          k =-0.2222 0.4444 0.0000 (   203 PWs)   bands (ev):

   -89.1565 -44.8074 -44.0684 -43.2589  12.5431  16.1207  16.9148  17.6495
    17.7634  18.0114  34.1137  35.3075  40.9248

          k =-0.3333 0.5556-0.1111 (   204 PWs)   bands (ev):

   -89.1539 -44.9886 -44.0900 -43.4838  14.1260  15.8076  16.6625  17.5866
    17.9328  18.6570  29.4933  34.3481  38.3711

          k = 0.5556-0.3333 0.7778 (   202 PWs)   bands (ev):

   -89.1332 -44.6789 -43.9525 -43.4115  15.2145  15.9453  17.0048  17.5335
    18.0357  20.5424  25.5418  34.6780  36.4983

          k =-0.2222 0.6667 0.0000 (   204 PWs)   bands (ev):

   -89.1558 -44.6991 -44.3665 -43.6498  14.3891  15.8673  16.6911  17.4469
    18.0662  19.1022  31.7621  32.6141  34.6136

          k = 0.6667-0.2222 0.8889 (   204 PWs)   bands (ev):

   -89.1504 -44.6415 -44.2601 -43.8635  15.1788  15.7963  16.6702  17.6216
    17.8015  21.1506  27.6623  31.6580  33.1227

          k = 0.5556-0.1111 0.7778 (   204 PWs)   bands (ev):

   -89.1460 -44.7759 -44.3568 -43.6171  15.3570  15.7380  16.5875  17.6406
    17.8285  23.1429  25.0305  30.4706  33.9997

          k = 0.4444 0.0000 0.6667 (   205 PWs)   bands (ev):

   -89.1578 -44.6017 -44.4083 -43.9825  15.1570  16.1710  16.2339  17.0773
    17.6231  20.5826  28.3929  30.5392  35.7971

          k = 0.7778-0.1111 1.0000 (   206 PWs)   bands (ev):

   -89.1668 -44.9671 -44.3622 -44.1595  14.6354  15.7847  16.9671  17.7481
    17.7772  21.2349  28.6669  30.4134  31.8493

          k = 0.6667-0.0000 0.8889 (   206 PWs)   bands (ev):

   -89.1635 -44.7950 -44.4848 -44.1928  15.0506  15.8420  16.5014  17.4096
    17.6933  23.7452  26.7015  28.4391  32.1335

          k = 0.5556-0.1111 1.0000 (   206 PWs)   bands (ev):

   -89.1655 -44.7672 -44.6732 -44.0611  15.1523  15.9274  16.0564  17.5846
    17.5982  23.9220  26.8585  28.8374  30.7152

     the Fermi energy is    18.1939 ev

!    total energy              =    -335.21274967 Ry
     Harris-Foulkes estimate   =    -335.21274967 Ry
     estimated scf accuracy    <          1.1E-09 Ry

     The total energy is the sum of the following terms:

     one-electron contribution =    -178.80008104 Ry
     hartree contribution      =     101.00713044 Ry
     xc contribution           =     -34.03574593 Ry
     ewald contribution        =    -223.38275371 Ry
     smearing contrib. (-TS)   =      -0.00129943 Ry

     convergence has been achieved in   8 iterations

     Forces acting on atoms (cartesian axes, Ry/au):

     atom    1 type  1   force =     0.00000000    0.00000000    0.00000000

     Total force =     0.000000     Total SCF correction =     0.000000


     Computing stress (Cartesian axis) and pressure

          total   stress  (Ry/bohr**3)                   (kbar)     P=********
  -0.23812968  -0.00000000  -0.00000000     -35030.08     -0.00     -0.00
  -0.00000000  -0.23812968   0.00000000         -0.00 -35030.08      0.00
  -0.00000000   0.00000000  -0.23812968         -0.00      0.00 -35030.08


     Writing output data file Ni.save/

     init_run     :      0.14s CPU      0.15s WALL (       1 calls)
     electrons    :      1.34s CPU      1.50s WALL (       1 calls)
     forces       :      0.01s CPU      0.01s WALL (       1 calls)
     stress       :      0.04s CPU      0.04s WALL (       1 calls)

     Called by init_run:
     wfcinit      :      0.05s CPU      0.06s WALL (       1 calls)
     potinit      :      0.00s CPU      0.00s WALL (       1 calls)
     hinit0       :      0.09s CPU      0.09s WALL (       1 calls)

     Called by electrons:
     c_bands      :      1.15s CPU      1.27s WALL (       8 calls)
     sum_band     :      0.16s CPU      0.19s WALL (       8 calls)
     v_of_rho     :      0.01s CPU      0.01s WALL (       9 calls)
     newd         :      0.01s CPU      0.01s WALL (       9 calls)
     mix_rho      :      0.00s CPU      0.00s WALL (       8 calls)

     Called by c_bands:
     init_us_2    :      0.02s CPU      0.02s WALL (     665 calls)
     cegterg      :      1.11s CPU      1.23s WALL (     280 calls)

     Called by sum_band:
     sum_band:bec :      0.00s CPU      0.00s WALL (     280 calls)
     addusdens    :      0.01s CPU      0.01s WALL (       8 calls)

     Called by *egterg:
     h_psi        :      0.74s CPU      0.83s WALL (     902 calls)
     s_psi        :      0.02s CPU      0.02s WALL (     902 calls)
     g_psi        :      0.00s CPU      0.00s WALL (     587 calls)
     cdiaghg      :      0.26s CPU      0.28s WALL (     867 calls)

     Called by h_psi:
     h_psi:pot    :      0.74s CPU      0.83s WALL (     902 calls)
     h_psi:calbec :      0.03s CPU      0.04s WALL (     902 calls)
     vloc_psi     :      0.68s CPU      0.76s WALL (     902 calls)
     add_vuspsi   :      0.02s CPU      0.02s WALL (     902 calls)

     General routines
     calbec       :      0.05s CPU      0.05s WALL (    1357 calls)
     fft          :      0.01s CPU      0.01s WALL (     125 calls)
     ffts         :      0.00s CPU      0.00s WALL (       8 calls)
     fftw         :      0.74s CPU      0.83s WALL (   21904 calls)

     Parallel routines
     fft_scatt_xy :      0.07s CPU      0.08s WALL (   22037 calls)
     fft_scatt_yz :      0.24s CPU      0.28s WALL (   22037 calls)

     PWSCF        :     2.26s CPU         2.48s WALL


   This run was terminated on:  22:31:39  26Mar2024            

=------------------------------------------------------------------------------=
   JOB DONE.
=------------------------------------------------------------------------------=
