
     Program PWSCF v.6.3MaX starts on 26Mar2024 at 22:45:34 

     This program is part of the open-source Quantum ESPRESSO suite
     for quantum simulation of materials; please cite
         "P. Giannozzi et al., J. Phys.:Condens. Matter 21 395502 (2009);
         "P. Giannozzi et al., J. Phys.:Condens. Matter 29 465901 (2017);
          URL http://www.quantum-espresso.org", 
     in publications or presentations arising from this work. More details at
     http://www.quantum-espresso.org/quote

     Parallel version (MPI), running on     5 processors

     MPI processes distributed on     1 nodes
     R & G space division:  proc/nbgrp/npool/nimage =       5
     Waiting for input...
     Reading input from standard input

     Current dimensions of program PWSCF are:
     Max number of different atomic species (ntypx) = 10
     Max number of k-points (npk) =  40000
     Max angular momentum in pseudopotentials (lmaxx) =  3

     Subspace diagonalization in iterative solution of the eigenvalue problem:
     a serial algorithm will be used


     Parallelization info
     --------------------
     sticks:   dense  smooth     PW     G-vecs:    dense   smooth      PW
     Min          79      79     25                 1032     1032     192
     Max          80      80     26                 1033     1033     195
     Sum         397     397    127                 5161     5161     965



     bravais-lattice index     =            2
     lattice parameter (alat)  =       6.6500  a.u.
     unit-cell volume          =      73.5199 (a.u.)^3
     number of atoms/cell      =            1
     number of atomic types    =            1
     number of electrons       =        18.00
     number of Kohn-Sham states=           13
     kinetic-energy cutoff     =      65.0000  Ry
     charge density cutoff     =     260.0000  Ry
     convergence threshold     =      1.0E-08
     mixing beta               =       0.7000
     number of iterations used =            8  plain     mixing
     Exchange-correlation      = PBESOL ( 1  4 10  8 0 0)

     celldm(1)=   6.650000  celldm(2)=   0.000000  celldm(3)=   0.000000
     celldm(4)=   0.000000  celldm(5)=   0.000000  celldm(6)=   0.000000

     crystal axes: (cart. coord. in units of alat)
               a(1) = (  -0.500000   0.000000   0.500000 )  
               a(2) = (   0.000000   0.500000   0.500000 )  
               a(3) = (  -0.500000   0.500000   0.000000 )  

     reciprocal axes: (cart. coord. in units 2 pi/alat)
               b(1) = ( -1.000000 -1.000000  1.000000 )  
               b(2) = (  1.000000  1.000000  1.000000 )  
               b(3) = ( -1.000000  1.000000 -1.000000 )  


     PseudoPot. # 1 for Ni read from file:
     /home/lorenzo/pseudos/Ni/Ni.pbesol-spn-rrkjus_psl.1.0.0.UPF
     MD5 check sum: 6fc0a587bf949a08f2faed986b854013
     Pseudo is Ultrasoft + core correction, Zval = 18.0
     Generated using "atomic" code by A. Dal Corso v.6.3
     Using radial grid of 1195 points,  6 beta functions with: 
                l(1) =   0
                l(2) =   0
                l(3) =   1
                l(4) =   1
                l(5) =   2
                l(6) =   2
     Q(r) pseudized with 0 coefficients 


     atomic species   valence    mass     pseudopotential
        Ni            18.00    58.69340     Ni( 1.00)

     48 Sym. Ops., with inversion, found



   Cartesian axes

     site n.     atom                  positions (alat units)
         1           Ni  tau(   1) = (   0.0000000   0.0000000   0.0000000  )

     number of k points=    47  gaussian smearing, width (Ry)=  0.0100
                       cart. coord. in units 2pi/alat
        k(    1) = (   0.0000000   0.0000000   0.0000000), wk =   0.0020000
        k(    2) = (  -0.1000000   0.1000000  -0.1000000), wk =   0.0160000
        k(    3) = (  -0.2000000   0.2000000  -0.2000000), wk =   0.0160000
        k(    4) = (  -0.3000000   0.3000000  -0.3000000), wk =   0.0160000
        k(    5) = (  -0.4000000   0.4000000  -0.4000000), wk =   0.0160000
        k(    6) = (   0.5000000  -0.5000000   0.5000000), wk =   0.0080000
        k(    7) = (   0.0000000   0.2000000   0.0000000), wk =   0.0120000
        k(    8) = (  -0.1000000   0.3000000  -0.1000000), wk =   0.0480000
        k(    9) = (  -0.2000000   0.4000000  -0.2000000), wk =   0.0480000
        k(   10) = (  -0.3000000   0.5000000  -0.3000000), wk =   0.0480000
        k(   11) = (   0.6000000  -0.4000000   0.6000000), wk =   0.0480000
        k(   12) = (   0.5000000  -0.3000000   0.5000000), wk =   0.0480000
        k(   13) = (   0.4000000  -0.2000000   0.4000000), wk =   0.0480000
        k(   14) = (   0.3000000  -0.1000000   0.3000000), wk =   0.0480000
        k(   15) = (   0.2000000   0.0000000   0.2000000), wk =   0.0240000
        k(   16) = (   0.0000000   0.4000000   0.0000000), wk =   0.0120000
        k(   17) = (  -0.1000000   0.5000000  -0.1000000), wk =   0.0480000
        k(   18) = (  -0.2000000   0.6000000  -0.2000000), wk =   0.0480000
        k(   19) = (   0.7000000  -0.3000000   0.7000000), wk =   0.0480000
        k(   20) = (   0.6000000  -0.2000000   0.6000000), wk =   0.0480000
        k(   21) = (   0.5000000  -0.1000000   0.5000000), wk =   0.0480000
        k(   22) = (   0.4000000   0.0000000   0.4000000), wk =   0.0240000
        k(   23) = (   0.0000000   0.6000000   0.0000000), wk =   0.0120000
        k(   24) = (  -0.1000000   0.7000000  -0.1000000), wk =   0.0480000
        k(   25) = (   0.8000000  -0.2000000   0.8000000), wk =   0.0480000
        k(   26) = (   0.7000000  -0.1000000   0.7000000), wk =   0.0480000
        k(   27) = (   0.6000000  -0.0000000   0.6000000), wk =   0.0240000
        k(   28) = (   0.0000000   0.8000000   0.0000000), wk =   0.0120000
        k(   29) = (   0.9000000  -0.1000000   0.9000000), wk =   0.0480000
        k(   30) = (   0.8000000   0.0000000   0.8000000), wk =   0.0240000
        k(   31) = (   0.0000000  -1.0000000   0.0000000), wk =   0.0060000
        k(   32) = (  -0.2000000   0.4000000   0.0000000), wk =   0.0480000
        k(   33) = (  -0.3000000   0.5000000  -0.1000000), wk =   0.0960000
        k(   34) = (   0.6000000  -0.4000000   0.8000000), wk =   0.0960000
        k(   35) = (   0.5000000  -0.3000000   0.7000000), wk =   0.0480000
        k(   36) = (  -0.2000000   0.6000000   0.0000000), wk =   0.0480000
        k(   37) = (   0.7000000  -0.3000000   0.9000000), wk =   0.0960000
        k(   38) = (   0.6000000  -0.2000000   0.8000000), wk =   0.0960000
        k(   39) = (   0.5000000  -0.1000000   0.7000000), wk =   0.0960000
        k(   40) = (   0.4000000   0.0000000   0.6000000), wk =   0.0480000
        k(   41) = (   0.8000000  -0.2000000   1.0000000), wk =   0.0480000
        k(   42) = (   0.7000000  -0.1000000   0.9000000), wk =   0.0960000
        k(   43) = (   0.6000000   0.0000000   0.8000000), wk =   0.0480000
        k(   44) = (  -0.2000000  -1.0000000   0.0000000), wk =   0.0240000
        k(   45) = (   0.6000000  -0.2000000   1.0000000), wk =   0.0480000
        k(   46) = (   0.5000000  -0.1000000   0.9000000), wk =   0.0480000
        k(   47) = (  -0.4000000  -1.0000000   0.0000000), wk =   0.0240000

     Dense  grid:     5161 G-vectors     FFT dimensions: (  25,  25,  25)

     Estimated max dynamical RAM per process >       6.45 MB

     Estimated total dynamical RAM >      32.26 MB

     Check: negative/imaginary core charge=   -0.000011    0.000000

     Initial potential from superposition of free atoms

     starting charge   17.99977, renormalised to   18.00000
     Starting wfcs are   10 randomized atomic wfcs +    3 random wfcs

     total cpu time spent up to now is        1.0 secs

     Self-consistent Calculation

     iteration #  1     ecut=    65.00 Ry     beta= 0.70
     Davidson diagonalization with overlap
     ethr =  1.00E-02,  avg # of iterations =  3.6

     Threshold (ethr) on eigenvalues was too large:
     Diagonalizing with lowered threshold

     Davidson diagonalization with overlap
     ethr =  1.12E-05,  avg # of iterations =  2.9

     total cpu time spent up to now is        2.4 secs

     total energy              =    -339.38770698 Ry
     Harris-Foulkes estimate   =    -339.38858092 Ry
     estimated scf accuracy    <       0.00200602 Ry

     iteration #  2     ecut=    65.00 Ry     beta= 0.70
     Davidson diagonalization with overlap
     ethr =  1.11E-05,  avg # of iterations =  2.1

     total cpu time spent up to now is        2.9 secs

     total energy              =    -339.38726217 Ry
     Harris-Foulkes estimate   =    -339.38903833 Ry
     estimated scf accuracy    <       0.00437565 Ry

     iteration #  3     ecut=    65.00 Ry     beta= 0.70
     Davidson diagonalization with overlap
     ethr =  1.11E-05,  avg # of iterations =  2.1

     total cpu time spent up to now is        3.3 secs

     total energy              =    -339.38818692 Ry
     Harris-Foulkes estimate   =    -339.38828854 Ry
     estimated scf accuracy    <       0.00033464 Ry

     iteration #  4     ecut=    65.00 Ry     beta= 0.70
     Davidson diagonalization with overlap
     ethr =  1.86E-06,  avg # of iterations =  1.3

     total cpu time spent up to now is        3.7 secs

     total energy              =    -339.38823448 Ry
     Harris-Foulkes estimate   =    -339.38823422 Ry
     estimated scf accuracy    <       0.00000023 Ry

     iteration #  5     ecut=    65.00 Ry     beta= 0.70
     Davidson diagonalization with overlap
     ethr =  1.28E-09,  avg # of iterations =  3.4

     total cpu time spent up to now is        4.5 secs

     total energy              =    -339.38823554 Ry
     Harris-Foulkes estimate   =    -339.38823560 Ry
     estimated scf accuracy    <       0.00000014 Ry

     iteration #  6     ecut=    65.00 Ry     beta= 0.70
     Davidson diagonalization with overlap
     ethr =  7.64E-10,  avg # of iterations =  1.0

     total cpu time spent up to now is        4.8 secs

     total energy              =    -339.38823554 Ry
     Harris-Foulkes estimate   =    -339.38823555 Ry
     estimated scf accuracy    <       0.00000002 Ry

     iteration #  7     ecut=    65.00 Ry     beta= 0.70
     Davidson diagonalization with overlap
     ethr =  9.38E-11,  avg # of iterations =  1.7

     total cpu time spent up to now is        5.3 secs

     End of self-consistent calculation

          k = 0.0000 0.0000 0.0000 (   645 PWs)   bands (ev):

   -85.1568 -45.5567 -45.5567 -45.5567   8.6097  15.7299  15.7299  15.7299
    16.8539  16.8539  41.2818  45.2047  45.2047

          k =-0.1000 0.1000-0.1000 (   637 PWs)   bands (ev):

   -85.1532 -45.5782 -45.5598 -45.5598   8.9998  15.6249  15.8140  15.8140
    16.8210  16.8210  39.5628  42.5896  44.4015

          k =-0.2000 0.2000-0.2000 (   646 PWs)   bands (ev):

   -85.1449 -45.6344 -45.5679 -45.5679  10.1080  15.4056  15.9418  15.9418
    16.8411  16.8411  34.6486  41.8117  43.3886

          k =-0.3000 0.3000-0.3000 (   640 PWs)   bands (ev):

   -85.1341 -45.7035 -45.5779 -45.5779  11.6610  15.3922  15.8858  15.8858
    17.1120  17.1120  29.7799  40.9142  42.7241

          k =-0.4000 0.4000-0.4000 (   634 PWs)   bands (ev):

   -85.1253 -45.7591 -45.5859 -45.5859  12.8252  15.7493  15.7493  16.2651
    17.4509  17.4509  25.6527  40.1006  42.4059

          k = 0.5000-0.5000 0.5000 (   652 PWs)   bands (ev):

   -85.1225 -45.7803 -45.5890 -45.5890  13.1017  15.6883  15.6883  17.3324
    17.5959  17.5959  23.5958  39.7863  42.3313

          k = 0.0000 0.2000 0.0000 (   637 PWs)   bands (ev):

   -85.1521 -45.5776 -45.5647 -45.5647   9.1286  15.5373  15.8784  15.8784
    16.6802  16.9222  40.3572  42.2474  42.2474

          k =-0.1000 0.3000-0.1000 (   649 PWs)   bands (ev):

   -85.1457 -45.6193 -45.5743 -45.5708   9.9957  15.3141  16.0136  16.0413
    16.5857  16.9999  36.5952  40.6614  40.7206

          k =-0.2000 0.4000-0.2000 (   638 PWs)   bands (ev):

   -85.1354 -45.6821 -45.5848 -45.5807  11.4256  15.1475  15.8764  16.0699
    16.9464  17.2208  31.5916  39.7047  39.8751

          k =-0.3000 0.5000-0.3000 (   639 PWs)   bands (ev):

   -85.1262 -45.7401 -45.5927 -45.5923  12.8022  15.4086  15.6939  15.9517
    17.5062  17.7094  27.1105  38.9135  39.4481

          k = 0.6000-0.4000 0.6000 (   649 PWs)   bands (ev):

   -85.1214 -45.7713 -45.6019 -45.5939  13.3055  15.4937  15.8473  16.2232
    17.6057  18.8334  23.9523  37.9057  40.0051

          k = 0.5000-0.3000 0.5000 (   647 PWs)   bands (ev):

   -85.1224 -45.7643 -45.6048 -45.5891  13.2321  15.5496  15.8488  16.0753
    17.4107  18.5783  24.7495  37.1950  41.4500

          k = 0.4000-0.2000 0.4000 (   641 PWs)   bands (ev):

   -85.1291 -45.7219 -45.5998 -45.5795  12.4274  15.3275  15.7357  15.9665
    17.0020  17.7603  28.5296  37.0520  42.1294

          k = 0.3000-0.1000 0.3000 (   643 PWs)   bands (ev):

   -85.1391 -45.6608 -45.5884 -45.5689  10.9128  15.2321  15.9163  16.0903
    16.6253  17.2394  33.2304  37.5051  43.8547

          k = 0.2000 0.0000 0.2000 (   650 PWs)   bands (ev):

   -85.1486 -45.6059 -45.5731 -45.5614   9.6299  15.4495  15.9294  15.9455
    16.6512  16.9440  37.9028  38.9385  44.2602

          k = 0.0000 0.4000 0.0000 (   649 PWs)   bands (ev):

   -85.1411 -45.6316 -45.5856 -45.5856  10.5820  15.0495  16.2938  16.3030
    16.3030  17.1020  38.5766  38.5766  39.0108

          k =-0.1000 0.5000-0.1000 (   650 PWs)   bands (ev):

   -85.1330 -45.6753 -45.5979 -45.5977  11.7346  14.7953  15.9473  16.4741
    16.9024  17.2829  33.8857  37.2197  37.9656

          k =-0.2000 0.6000-0.2000 (   655 PWs)   bands (ev):

   -85.1245 -45.7221 -45.6146 -45.6058  13.0377  14.7206  15.6457  16.4138
    17.5494  18.0143  29.1831  35.9227  36.6980

          k = 0.7000-0.3000 0.7000 (   653 PWs)   bands (ev):

   -85.1187 -45.7506 -45.6326 -45.6068  13.7536  14.8719  15.6245  16.2866
    17.6320  19.8648  25.2145  34.1159  37.1155

          k = 0.6000-0.2000 0.6000 (   657 PWs)   bands (ev):

   -85.1181 -45.7513 -45.6442 -45.6005  13.8856  15.0183  15.6209  16.2157
    17.4106  20.6095  24.2984  32.8737  38.4845

          k = 0.5000-0.1000 0.5000 (   649 PWs)   bands (ev):

   -85.1225 -45.7272 -45.6414 -45.5891  13.4987  15.1349  15.3452  16.2536
    16.9663  18.9858  27.8081  32.3420  40.6770

          k = 0.4000 0.0000 0.4000 (   642 PWs)   bands (ev):

   -85.1305 -45.6928 -45.6199 -45.5770  12.2416  15.0354  15.6810  16.3813
    16.4934  17.9224  32.0088  32.8632  42.9173

          k = 0.0000 0.6000 0.0000 (   644 PWs)   bands (ev):

   -85.1268 -45.6970 -45.6115 -45.6115  12.4238  14.4769  16.3314  16.9181
    16.9181  17.3287  35.1261  35.4420  35.4420

          k =-0.1000 0.7000-0.1000 (   648 PWs)   bands (ev):

   -85.1201 -45.7272 -45.6279 -45.6211  13.1770  14.2950  16.3071  17.0079
    17.5577  18.0462  31.6664  32.7390  34.5522

          k = 0.8000-0.2000 0.8000 (   658 PWs)   bands (ev):

   -85.1154 -45.7415 -45.6539 -45.6227  13.7585  14.3190  16.0111  16.8840
    17.6682  20.3080  27.4953  30.6309  34.7028

          k = 0.7000-0.1000 0.7000 (   655 PWs)   bands (ev):

   -85.1139 -45.7308 -45.6832 -45.6158  14.2070  14.4614  15.6427  16.7324
    17.4694  22.9322  24.3045  29.2209  35.9007

          k = 0.6000-0.0000 0.6000 (   666 PWs)   bands (ev):

   -85.1171 -45.7185 -45.6853 -45.6030  14.2829  14.8128  15.2084  16.5537
    17.1301  20.8791  26.8043  29.0226  37.9738

          k = 0.0000 0.8000 0.0000 (   660 PWs)   bands (ev):

   -85.1159 -45.7488 -45.6325 -45.6325  13.2315  14.0356  17.5154  17.5160
    17.5160  18.1669  29.9414  33.2595  33.2595

          k = 0.9000-0.1000 0.9000 (   650 PWs)   bands (ev):

   -85.1123 -45.7580 -45.6471 -45.6356  13.4139  13.9963  17.0976  17.4113
    17.7155  20.2707  28.0190  30.4872  33.0550

          k = 0.8000 0.0000 0.8000 (   648 PWs)   bands (ev):

   -85.1115 -45.7443 -45.6733 -45.6292  13.7760  14.1788  16.3443  17.1835
    17.6061  22.5536  26.6022  27.6346  33.9971

          k = 0.0000-1.0000 0.0000 (   636 PWs)   bands (ev):

   -85.1108 -45.7683 -45.6404 -45.6404  13.2725  13.8721  17.5880  17.7775
    17.7775  20.0760  27.0586  32.4589  32.4589

          k =-0.2000 0.4000 0.0000 (   643 PWs)   bands (ev):

   -85.1380 -45.6555 -45.5951 -45.5765  11.0318  15.0700  15.9294  16.3196
    16.5479  17.2667  35.1030  35.7766  41.7109

          k =-0.3000 0.5000-0.1000 (   644 PWs)   bands (ev):

   -85.1288 -45.7039 -45.6143 -45.5862  12.4631  14.9430  15.6317  16.3275
    16.9244  17.8758  30.5040  34.8372  39.3797

          k = 0.6000-0.4000 0.8000 (   651 PWs)   bands (ev):

   -85.1215 -45.7446 -45.6256 -45.5965  13.5049  15.1339  15.4950  16.1881
    17.3801  19.0265  26.2372  34.8380  37.3704

          k = 0.5000-0.3000 0.7000 (   650 PWs)   bands (ev):

   -85.1186 -45.7603 -45.6290 -45.6012  13.7347  15.1203  15.7668  16.1122
    17.5346  20.3402  23.7995  35.2236  36.2890

          k =-0.2000 0.6000 0.0000 (   648 PWs)   bands (ev):

   -85.1254 -45.7063 -45.6223 -45.6044  12.7917  14.5791  15.7571  16.9177
    16.9790  17.8800  32.6921  33.2399  35.8546

          k = 0.7000-0.3000 0.9000 (   654 PWs)   bands (ev):

   -85.1188 -45.7312 -45.6445 -45.6137  13.7226  14.5592  15.5063  16.7753
    17.4286  19.3541  28.4521  32.7097  33.6689

          k = 0.6000-0.2000 0.8000 (   652 PWs)   bands (ev):

   -85.1152 -45.7392 -45.6633 -45.6163  14.2004  14.6063  15.4375  16.5861
    17.5458  21.7157  24.7502  31.6514  33.6291

          k = 0.5000-0.1000 0.7000 (   658 PWs)   bands (ev):

   -85.1164 -45.7311 -45.6699 -45.6091  14.2721  14.7560  15.2189  16.5431
    17.3392  21.0501  25.8149  30.6302  34.9906

          k = 0.4000 0.0000 0.6000 (   651 PWs)   bands (ev):

   -85.1215 -45.7190 -45.6505 -45.5968  13.6538  14.8603  15.2265  16.6120
    16.9517  19.0915  29.4938  30.7374  36.9783

          k = 0.8000-0.2000 1.0000 (   658 PWs)   bands (ev):

   -85.1154 -45.7429 -45.6443 -45.6304  13.5305  14.1923  16.3292  17.3335
    17.5139  19.5883  30.1898  30.9337  31.7435

          k = 0.7000-0.1000 0.9000 (   657 PWs)   bands (ev):

   -85.1125 -45.7389 -45.6699 -45.6327  13.8882  14.3136  15.9575  17.0626
    17.6676  22.1075  27.1943  28.6090  31.8353

          k = 0.6000 0.0000 0.8000 (   659 PWs)   bands (ev):

   -85.1130 -45.7135 -45.7016 -45.6237  14.3030  14.5106  15.4402  16.8010
    17.5206  23.7661  24.8406  28.1041  33.0942

          k =-0.2000-1.0000 0.0000 (   650 PWs)   bands (ev):

   -85.1112 -45.7561 -45.6527 -45.6410  13.5381  14.0475  16.7741  17.3594
    17.7778  21.5127  27.1800  30.2658  31.0401

          k = 0.6000-0.2000 1.0000 (   656 PWs)   bands (ev):

   -85.1142 -45.7264 -45.6752 -45.6259  14.1808  14.6662  15.2150  16.8738
    17.5103  21.4962  27.7197  29.3932  31.4048

          k = 0.5000-0.1000 0.9000 (   656 PWs)   bands (ev):

   -85.1124 -45.7163 -45.6935 -45.6324  14.3034  14.8017  15.0932  16.7491
    17.6531  24.0704  24.8991  29.4671  30.1574

          k =-0.4000-1.0000 0.0000 (   662 PWs)   bands (ev):

   -85.1115 -45.7242 -45.6847 -45.6418  14.0766  14.5859  15.5061  16.8749
    17.7782  24.0612  27.0470  27.5939  29.1814

     the Fermi energy is    17.6203 ev

!    total energy              =    -339.38823555 Ry
     Harris-Foulkes estimate   =    -339.38823555 Ry
     estimated scf accuracy    <          8.2E-10 Ry

     The total energy is the sum of the following terms:

     one-electron contribution =    -186.63986005 Ry
     hartree contribution      =     104.55822213 Ry
     xc contribution           =     -33.92168240 Ry
     ewald contribution        =    -223.38275369 Ry
     smearing contrib. (-TS)   =      -0.00216154 Ry

     convergence has been achieved in   7 iterations

     Forces acting on atoms (cartesian axes, Ry/au):

     atom    1 type  1   force =     0.00000000    0.00000000    0.00000000

     Total force =     0.000000     Total SCF correction =     0.000000


     Computing stress (Cartesian axis) and pressure

          total   stress  (Ry/bohr**3)                   (kbar)     P= -120.58
  -0.00081969  -0.00000000   0.00000000       -120.58     -0.00      0.00
  -0.00000000  -0.00081969  -0.00000000         -0.00   -120.58     -0.00
   0.00000000  -0.00000000  -0.00081969          0.00     -0.00   -120.58


     Writing output data file Ni.save/

     init_run     :      0.29s CPU      0.31s WALL (       1 calls)
     electrons    :      4.06s CPU      4.27s WALL (       1 calls)
     forces       :      0.04s CPU      0.04s WALL (       1 calls)
     stress       :      0.12s CPU      0.12s WALL (       1 calls)

     Called by init_run:
     wfcinit      :      0.14s CPU      0.14s WALL (       1 calls)
     potinit      :      0.01s CPU      0.01s WALL (       1 calls)
     hinit0       :      0.14s CPU      0.14s WALL (       1 calls)

     Called by electrons:
     c_bands      :      3.46s CPU      3.63s WALL (       8 calls)
     sum_band     :      0.53s CPU      0.56s WALL (       8 calls)
     v_of_rho     :      0.03s CPU      0.03s WALL (       8 calls)
     newd         :      0.04s CPU      0.05s WALL (       8 calls)
     mix_rho      :      0.00s CPU      0.00s WALL (       8 calls)

     Called by c_bands:
     init_us_2    :      0.08s CPU      0.08s WALL (     893 calls)
     cegterg      :      3.33s CPU      3.50s WALL (     376 calls)

     Called by sum_band:
     sum_band:bec :      0.00s CPU      0.00s WALL (     376 calls)
     addusdens    :      0.04s CPU      0.04s WALL (       8 calls)

     Called by *egterg:
     h_psi        :      2.47s CPU      2.60s WALL (    1269 calls)
     s_psi        :      0.07s CPU      0.08s WALL (    1269 calls)
     g_psi        :      0.01s CPU      0.01s WALL (     846 calls)
     cdiaghg      :      0.44s CPU      0.46s WALL (    1175 calls)

     Called by h_psi:
     h_psi:pot    :      2.45s CPU      2.58s WALL (    1269 calls)
     h_psi:calbec :      0.11s CPU      0.12s WALL (    1269 calls)
     vloc_psi     :      2.26s CPU      2.38s WALL (    1269 calls)
     add_vuspsi   :      0.07s CPU      0.08s WALL (    1269 calls)

     General routines
     calbec       :      0.16s CPU      0.17s WALL (    1880 calls)
     fft          :      0.02s CPU      0.02s WALL (     115 calls)
     ffts         :      0.00s CPU      0.00s WALL (       8 calls)
     fftw         :      2.50s CPU      2.63s WALL (   29824 calls)

     Parallel routines
     fft_scatt_xy :      0.19s CPU      0.20s WALL (   29947 calls)
     fft_scatt_yz :      0.72s CPU      0.75s WALL (   29947 calls)

     PWSCF        :     5.29s CPU         5.61s WALL


   This run was terminated on:  22:45:39  26Mar2024            

=------------------------------------------------------------------------------=
   JOB DONE.
=------------------------------------------------------------------------------=
