
     Program PWSCF v.6.3MaX starts on 26Mar2024 at 22:25:59 

     This program is part of the open-source Quantum ESPRESSO suite
     for quantum simulation of materials; please cite
         "P. Giannozzi et al., J. Phys.:Condens. Matter 21 395502 (2009);
         "P. Giannozzi et al., J. Phys.:Condens. Matter 29 465901 (2017);
          URL http://www.quantum-espresso.org", 
     in publications or presentations arising from this work. More details at
     http://www.quantum-espresso.org/quote

     Parallel version (MPI), running on     5 processors

     MPI processes distributed on     1 nodes
     R & G space division:  proc/nbgrp/npool/nimage =       5
     Waiting for input...
     Reading input from standard input

     Current dimensions of program PWSCF are:
     Max number of different atomic species (ntypx) = 10
     Max number of k-points (npk) =  40000
     Max angular momentum in pseudopotentials (lmaxx) =  3

     Subspace diagonalization in iterative solution of the eigenvalue problem:
     a serial algorithm will be used


     Parallelization info
     --------------------
     sticks:   dense  smooth     PW     G-vecs:    dense   smooth      PW
     Min          24      24     11                  178      178      51
     Max          25      25     11                  181      181      52
     Sum         121     121     55                  893      893     259



     bravais-lattice index     =            2
     lattice parameter (alat)  =       6.6500  a.u.
     unit-cell volume          =      73.5199 (a.u.)^3
     number of atoms/cell      =            1
     number of atomic types    =            1
     number of electrons       =        18.00
     number of Kohn-Sham states=           13
     kinetic-energy cutoff     =      20.0000  Ry
     charge density cutoff     =      80.0000  Ry
     convergence threshold     =      1.0E-08
     mixing beta               =       0.7000
     number of iterations used =            8  plain     mixing
     Exchange-correlation      = PBESOL ( 1  4 10  8 0 0)

     celldm(1)=   6.650000  celldm(2)=   0.000000  celldm(3)=   0.000000
     celldm(4)=   0.000000  celldm(5)=   0.000000  celldm(6)=   0.000000

     crystal axes: (cart. coord. in units of alat)
               a(1) = (  -0.500000   0.000000   0.500000 )  
               a(2) = (   0.000000   0.500000   0.500000 )  
               a(3) = (  -0.500000   0.500000   0.000000 )  

     reciprocal axes: (cart. coord. in units 2 pi/alat)
               b(1) = ( -1.000000 -1.000000  1.000000 )  
               b(2) = (  1.000000  1.000000  1.000000 )  
               b(3) = ( -1.000000  1.000000 -1.000000 )  


     PseudoPot. # 1 for Ni read from file:
     /home/lorenzo/pseudos/Ni/Ni.pbesol-spn-rrkjus_psl.1.0.0.UPF
     MD5 check sum: 6fc0a587bf949a08f2faed986b854013
     Pseudo is Ultrasoft + core correction, Zval = 18.0
     Generated using "atomic" code by A. Dal Corso v.6.3
     Using radial grid of 1195 points,  6 beta functions with: 
                l(1) =   0
                l(2) =   0
                l(3) =   1
                l(4) =   1
                l(5) =   2
                l(6) =   2
     Q(r) pseudized with 0 coefficients 


     atomic species   valence    mass     pseudopotential
        Ni            18.00    58.69340     Ni( 1.00)

     48 Sym. Ops., with inversion, found



   Cartesian axes

     site n.     atom                  positions (alat units)
         1           Ni  tau(   1) = (   0.0000000   0.0000000   0.0000000  )

     number of k points=    56  gaussian smearing, width (Ry)=  0.0100
                       cart. coord. in units 2pi/alat
        k(    1) = (   0.0000000   0.0000000   0.0000000), wk =   0.0015026
        k(    2) = (  -0.0909091   0.0909091  -0.0909091), wk =   0.0120210
        k(    3) = (  -0.1818182   0.1818182  -0.1818182), wk =   0.0120210
        k(    4) = (  -0.2727273   0.2727273  -0.2727273), wk =   0.0120210
        k(    5) = (  -0.3636364   0.3636364  -0.3636364), wk =   0.0120210
        k(    6) = (  -0.4545455   0.4545455  -0.4545455), wk =   0.0120210
        k(    7) = (   0.0000000   0.1818182   0.0000000), wk =   0.0090158
        k(    8) = (  -0.0909091   0.2727273  -0.0909091), wk =   0.0360631
        k(    9) = (  -0.1818182   0.3636364  -0.1818182), wk =   0.0360631
        k(   10) = (  -0.2727273   0.4545455  -0.2727273), wk =   0.0360631
        k(   11) = (  -0.3636364   0.5454545  -0.3636364), wk =   0.0360631
        k(   12) = (   0.5454545  -0.3636364   0.5454545), wk =   0.0360631
        k(   13) = (   0.4545455  -0.2727273   0.4545455), wk =   0.0360631
        k(   14) = (   0.3636364  -0.1818182   0.3636364), wk =   0.0360631
        k(   15) = (   0.2727273  -0.0909091   0.2727273), wk =   0.0360631
        k(   16) = (   0.1818182  -0.0000000   0.1818182), wk =   0.0180316
        k(   17) = (   0.0000000   0.3636364   0.0000000), wk =   0.0090158
        k(   18) = (  -0.0909091   0.4545455  -0.0909091), wk =   0.0360631
        k(   19) = (  -0.1818182   0.5454545  -0.1818182), wk =   0.0360631
        k(   20) = (  -0.2727273   0.6363636  -0.2727273), wk =   0.0360631
        k(   21) = (   0.6363636  -0.2727273   0.6363636), wk =   0.0360631
        k(   22) = (   0.5454545  -0.1818182   0.5454545), wk =   0.0360631
        k(   23) = (   0.4545455  -0.0909091   0.4545455), wk =   0.0360631
        k(   24) = (   0.3636364   0.0000000   0.3636364), wk =   0.0180316
        k(   25) = (   0.0000000   0.5454545   0.0000000), wk =   0.0090158
        k(   26) = (  -0.0909091   0.6363636  -0.0909091), wk =   0.0360631
        k(   27) = (  -0.1818182   0.7272727  -0.1818182), wk =   0.0360631
        k(   28) = (   0.7272727  -0.1818182   0.7272727), wk =   0.0360631
        k(   29) = (   0.6363636  -0.0909091   0.6363636), wk =   0.0360631
        k(   30) = (   0.5454545   0.0000000   0.5454545), wk =   0.0180316
        k(   31) = (   0.0000000   0.7272727   0.0000000), wk =   0.0090158
        k(   32) = (  -0.0909091   0.8181818  -0.0909091), wk =   0.0360631
        k(   33) = (   0.8181818  -0.0909091   0.8181818), wk =   0.0360631
        k(   34) = (   0.7272727   0.0000000   0.7272727), wk =   0.0180316
        k(   35) = (   0.0000000   0.9090909   0.0000000), wk =   0.0090158
        k(   36) = (   0.9090909  -0.0000000   0.9090909), wk =   0.0180316
        k(   37) = (  -0.1818182   0.3636364   0.0000000), wk =   0.0360631
        k(   38) = (  -0.2727273   0.4545455  -0.0909091), wk =   0.0721262
        k(   39) = (  -0.3636364   0.5454545  -0.1818182), wk =   0.0721262
        k(   40) = (   0.5454545  -0.3636364   0.7272727), wk =   0.0721262
        k(   41) = (  -0.1818182   0.5454545   0.0000000), wk =   0.0360631
        k(   42) = (  -0.2727273   0.6363636  -0.0909091), wk =   0.0721262
        k(   43) = (   0.6363636  -0.2727273   0.8181818), wk =   0.0721262
        k(   44) = (   0.5454545  -0.1818182   0.7272727), wk =   0.0721262
        k(   45) = (   0.4545455  -0.0909091   0.6363636), wk =   0.0721262
        k(   46) = (   0.3636364   0.0000000   0.5454545), wk =   0.0360631
        k(   47) = (  -0.1818182   0.7272727   0.0000000), wk =   0.0360631
        k(   48) = (   0.7272727  -0.1818182   0.9090909), wk =   0.0721262
        k(   49) = (   0.6363636  -0.0909091   0.8181818), wk =   0.0721262
        k(   50) = (   0.5454545   0.0000000   0.7272727), wk =   0.0360631
        k(   51) = (   0.8181818  -0.0909091   1.0000000), wk =   0.0360631
        k(   52) = (   0.7272727   0.0000000   0.9090909), wk =   0.0360631
        k(   53) = (   0.6363636  -0.2727273   1.0000000), wk =   0.0360631
        k(   54) = (   0.5454545  -0.1818182   0.9090909), wk =   0.0721262
        k(   55) = (   0.6363636  -0.0909091   1.0000000), wk =   0.0360631
        k(   56) = (   0.5454545   0.0000000   0.9090909), wk =   0.0360631

     Dense  grid:      893 G-vectors     FFT dimensions: (  15,  15,  15)

     Estimated max dynamical RAM per process >       1.69 MB

     Estimated total dynamical RAM >       8.46 MB

     Check: negative/imaginary core charge=   -0.000642    0.000000

     Initial potential from superposition of free atoms
     Check: negative starting charge=   -0.021452

     starting charge   17.99977, renormalised to   18.00000

     negative rho (up, down):  2.145E-02 0.000E+00
     Starting wfcs are   10 randomized atomic wfcs +    3 random wfcs

     total cpu time spent up to now is        0.8 secs

     Self-consistent Calculation

     iteration #  1     ecut=    20.00 Ry     beta= 0.70
     Davidson diagonalization with overlap
     ethr =  1.00E-02,  avg # of iterations =  3.4

     total cpu time spent up to now is        1.2 secs

     total energy              =    -298.12199279 Ry
     Harris-Foulkes estimate   =    -320.14827170 Ry
     estimated scf accuracy    <      27.07772828 Ry

     iteration #  2     ecut=    20.00 Ry     beta= 0.70
     Davidson diagonalization with overlap
     ethr =  1.00E-02,  avg # of iterations =  3.0

     total cpu time spent up to now is        1.6 secs

     total energy              =    -307.39096404 Ry
     Harris-Foulkes estimate   =    -313.78707665 Ry
     estimated scf accuracy    <      11.38838282 Ry

     iteration #  3     ecut=    20.00 Ry     beta= 0.70
     Davidson diagonalization with overlap
     ethr =  1.00E-02,  avg # of iterations =  2.1

     total cpu time spent up to now is        1.8 secs

     total energy              =    -308.81188193 Ry
     Harris-Foulkes estimate   =    -308.97001479 Ry
     estimated scf accuracy    <       0.26991294 Ry

     iteration #  4     ecut=    20.00 Ry     beta= 0.70
     Davidson diagonalization with overlap
     ethr =  1.50E-03,  avg # of iterations =  2.0

     total cpu time spent up to now is        2.0 secs

     total energy              =    -308.84665298 Ry
     Harris-Foulkes estimate   =    -308.88004767 Ry
     estimated scf accuracy    <       0.06613936 Ry

     iteration #  5     ecut=    20.00 Ry     beta= 0.70
     Davidson diagonalization with overlap
     ethr =  3.67E-04,  avg # of iterations =  1.5

     total cpu time spent up to now is        2.2 secs

     total energy              =    -308.85813433 Ry
     Harris-Foulkes estimate   =    -308.85816689 Ry
     estimated scf accuracy    <       0.00014570 Ry

     iteration #  6     ecut=    20.00 Ry     beta= 0.70
     Davidson diagonalization with overlap
     ethr =  8.09E-07,  avg # of iterations =  2.3

     total cpu time spent up to now is        2.4 secs

     total energy              =    -308.85813833 Ry
     Harris-Foulkes estimate   =    -308.85815254 Ry
     estimated scf accuracy    <       0.00003257 Ry

     iteration #  7     ecut=    20.00 Ry     beta= 0.70
     Davidson diagonalization with overlap
     ethr =  1.81E-07,  avg # of iterations =  1.2

     total cpu time spent up to now is        2.6 secs

     total energy              =    -308.85814119 Ry
     Harris-Foulkes estimate   =    -308.85814197 Ry
     estimated scf accuracy    <       0.00000150 Ry

     iteration #  8     ecut=    20.00 Ry     beta= 0.70
     Davidson diagonalization with overlap
     ethr =  8.34E-09,  avg # of iterations =  1.8

     total cpu time spent up to now is        2.8 secs

     End of self-consistent calculation

          k = 0.0000 0.0000 0.0000 (   113 PWs)   bands (ev):

  -123.2248 -50.5223 -50.5223 -50.5223  10.7316  18.9509  18.9509  18.9509
    19.5459  19.5459  47.9541  47.9541  47.9541

          k =-0.0909 0.0909-0.0909 (   113 PWs)   bands (ev):

  -123.1875 -50.5926 -50.4599 -50.4599  11.0124  18.8418  19.0455  19.0455
    19.5924  19.5924  42.0692  45.4596  46.3472

          k =-0.1818 0.1818-0.1818 (   116 PWs)   bands (ev):

  -123.3511 -55.1024 -50.5796 -50.5796  11.7124  12.4763  17.9001  17.9001
    19.3631  19.3631  35.8582  44.4096  45.2869

          k =-0.2727 0.2727-0.2727 (   114 PWs)   bands (ev):

  -123.2324 -52.5443 -52.5443 -48.2374  12.8515  15.0306  15.0306  20.2547
    22.6311  22.6311  31.4748  42.8210  42.8210

          k =-0.3636 0.3636-0.3636 (   114 PWs)   bands (ev):

  -123.3213 -52.5561 -52.5561 -48.9297  14.1145  15.0483  15.0483  20.9638
    22.5165  22.5165  27.6750  42.7598  42.7598

          k =-0.4545 0.4545-0.4545 (   108 PWs)   bands (ev):

  -122.8715 -48.1350 -48.1350 -47.2908  16.5289  20.3445  20.5383  20.5383
    26.1998  26.1998  26.7449  44.6438  44.6438

          k = 0.0000 0.1818 0.0000 (   113 PWs)   bands (ev):

  -123.1750 -50.6117 -50.4411 -50.4411  11.1058  18.9436  19.0117  19.0117
    19.5250  19.6828  42.2795  44.9499  44.9499

          k =-0.0909 0.2727-0.0909 (   116 PWs)   bands (ev):

  -123.3481 -53.5543 -51.4389 -50.9441  11.8320  12.2129  15.8764  18.5872
    19.2465  21.2082  37.4507  42.2997  42.9281

          k =-0.1818 0.3636-0.1818 (   114 PWs)   bands (ev):

  -123.1842 -52.6151 -51.2894 -48.8388  12.7830  13.8623  16.0293  17.8827
    21.8154  25.0803  33.9646  40.8029  41.6104

          k =-0.2727 0.4545-0.2727 (   109 PWs)   bands (ev):

  -122.9074 -50.9613 -47.3948 -46.9832  13.9285  18.0435  19.3751  22.5734
    25.8432  26.2109  29.8167  40.7879  41.3392

          k =-0.3636 0.5455-0.3636 (   114 PWs)   bands (ev):

  -123.3609 -52.6438 -52.3216 -49.1827  14.6693  15.3257  16.0152  20.3316
    22.1769  22.3041  26.7975  39.8063  40.6153

          k = 0.5455-0.3636 0.5455 (   112 PWs)   bands (ev):

  -123.2078 -52.3620 -49.7219 -48.5224  16.0428  16.1331  18.1696  20.0313
    22.5100  24.5576  26.4762  39.3665  42.0811

          k = 0.4545-0.2727 0.4545 (   111 PWs)   bands (ev):

  -123.0823 -51.1557 -50.1568 -47.4988  15.1092  16.2382  18.7777  21.0339
    23.0933  25.4319  28.5258  38.7081  43.9543

          k = 0.3636-0.1818 0.3636 (   109 PWs)   bands (ev):

  -122.8459 -49.8544 -48.7452 -46.2291  13.9269  16.5227  21.0333  21.3857
    24.8999  27.8248  30.7775  38.7630  45.1636

          k = 0.2727-0.0909 0.2727 (   113 PWs)   bands (ev):

  -123.0991 -52.0577 -49.6992 -49.1514  12.4914  13.1545  18.6108  18.6579
    23.0516  24.2541  34.9240  39.4981  47.0793

          k = 0.1818-0.0000 0.1818 (   117 PWs)   bands (ev):

  -123.4562 -55.3665 -51.5443 -50.9473  11.4347  13.8533  14.4408  16.8336
    18.5990  19.5990  39.1955  40.6408  46.4894

          k = 0.0000 0.3636 0.0000 (   113 PWs)   bands (ev):

  -123.0821 -50.7835 -50.7835 -49.1238  12.3843  17.4666  17.4666  17.7282
    20.4396  23.7675  40.1231  41.2603  41.2603

          k =-0.0909 0.4545-0.0909 (   114 PWs)   bands (ev):

  -123.1879 -52.2951 -51.5770 -48.8018  13.0648  13.6616  17.9103  19.1835
    21.7933  22.6827  35.3127  39.3867  39.9484

          k =-0.1818 0.5455-0.1818 (   112 PWs)   bands (ev):

  -123.1655 -51.7222 -51.3263 -47.7248  13.6534  16.0445  18.3355  19.3357
    23.8642  25.7124  30.9778  37.6703  38.7480

          k =-0.2727 0.6364-0.2727 (   113 PWs)   bands (ev):

  -123.3090 -53.6946 -51.3079 -47.7590  12.4956  15.8125  18.2889  18.7138
    24.2574  25.5634  27.8382  35.3798  38.8365

          k = 0.6364-0.2727 0.6364 (   111 PWs)   bands (ev):

  -123.1744 -51.1137 -50.7564 -47.8599  14.3029  17.8532  19.0288  20.4168
    24.6165  26.1564  27.2093  34.2997  39.3808

          k = 0.5455-0.1818 0.5455 (   109 PWs)   bands (ev):

  -122.9967 -50.7664 -48.1482 -47.1990  16.6867  17.8690  20.5941  21.0007
    26.0523  26.0952  28.1639  33.8160  41.2258

          k = 0.4545-0.0909 0.4545 (   112 PWs)   bands (ev):

  -123.1359 -51.8527 -49.4442 -49.0934  15.0211  16.5560  17.3638  21.0622
    21.4718  26.0144  30.1333  33.9589  42.6676

          k = 0.3636 0.0000 0.3636 (   111 PWs)   bands (ev):

  -122.9510 -52.5146 -47.7589 -47.3574  13.8002  13.9929  17.2466  21.7672
    24.2591  27.2271  33.3741  35.3792  46.0923

          k = 0.0000 0.5455 0.0000 (   113 PWs)   bands (ev):

  -123.2310 -52.1407 -52.1407 -48.9770   9.3421  11.7602  17.7340  22.4844
    26.6195  26.6195  36.2223  36.5359  36.9965

          k =-0.0909 0.6364-0.0909 (   113 PWs)   bands (ev):

  -123.2732 -52.9848 -50.4350 -49.3238  10.7064  13.5744  18.8580  20.4900
    25.5177  26.0577  33.2061  34.1455  36.5011

          k =-0.1818 0.7273-0.1818 (   108 PWs)   bands (ev):

  -122.9682 -49.8435 -47.9703 -47.2908  14.7238  18.8963  22.4964  24.1154
    26.1819  26.6721  29.8931  32.9349  37.5703

          k = 0.7273-0.1818 0.7273 (   108 PWs)   bands (ev):

  -123.0023 -49.7692 -48.1082 -47.2590  15.4380  19.6201  22.1239  24.0978
    25.9615  26.9387  27.6917  31.8984  37.9081

          k = 0.6364-0.0909 0.6364 (   107 PWs)   bands (ev):

  -122.8866 -48.3982 -47.8337 -46.9696  18.7148  20.3780  21.6867  22.9343
    26.2298  26.5569  27.8009  31.3365  39.5589

          k = 0.5455 0.0000 0.5455 (   107 PWs)   bands (ev):

  -122.8265 -48.7687 -47.7941 -46.0197  17.7538  21.0284  21.6936  21.9788
    25.6138  27.1655  28.6326  32.1077  41.3408

          k = 0.0000 0.7273 0.0000 (   113 PWs)   bands (ev):

  -123.3724 -52.3696 -52.3696 -48.7302   9.1519  12.2350  19.5928  22.1307
    26.7005  26.7005  31.5435  35.2616  35.5994

          k =-0.0909 0.8182-0.0909 (   110 PWs)   bands (ev):

  -123.1723 -52.0527 -49.8467 -46.8945  11.3525  16.1619  22.2341  23.5762
    26.8627  27.8288  30.4350  31.6185  35.4182

          k = 0.8182-0.0909 0.8182 (   108 PWs)   bands (ev):

  -123.0589 -51.6384 -47.2999 -46.8632  12.5028  19.8397  23.0678  24.9339
    26.9188  28.0422  28.8768  30.0379  35.6953

          k = 0.7273 0.0000 0.7273 (   110 PWs)   bands (ev):

  -123.1997 -54.3232 -47.5474 -47.4873   9.6066  19.8763  23.5762  23.7245
    24.6134  26.4730  27.9627  30.1223  35.8717

          k = 0.0000 0.9091 0.0000 (   116 PWs)   bands (ev):

  -123.7099 -55.2922 -55.2922 -48.6459   3.4098  14.0591  21.9616  22.2920
    23.2990  23.2990  28.8451  33.5638  34.2560

          k = 0.9091-0.0000 0.9091 (   114 PWs)   bands (ev):

  -123.5456 -55.2653 -52.5060 -47.9800   6.3210  14.8601  21.9437  22.6478
    23.3287  26.6064  28.5339  31.0630  34.3365

          k =-0.1818 0.3636 0.0000 (   115 PWs)   bands (ev):

  -123.2675 -53.7298 -52.0166 -48.7001  11.9242  12.7514  14.9539  17.7035
    20.2231  26.2843  35.5509  37.6098  44.2713

          k =-0.2727 0.4545-0.0909 (   114 PWs)   bands (ev):

  -123.2418 -52.8162 -50.3331 -50.1057  12.3969  14.6073  16.8886  18.0504
    22.4226  25.4941  31.4131  36.4279  41.4874

          k =-0.3636 0.5455-0.1818 (   113 PWs)   bands (ev):

  -123.2576 -52.4111 -51.4748 -48.5021  13.4572  16.1045  17.1106  18.9939
    23.5066  25.2148  28.8247  35.9869  39.3356

          k = 0.5455-0.3636 0.7273 (   109 PWs)   bands (ev):

  -122.9701 -50.5269 -48.5260 -46.6020  16.4621  18.0785  20.4099  20.6782
    24.0268  27.3494  28.4146  37.0590  38.9211

          k =-0.1818 0.5455 0.0000 (   114 PWs)   bands (ev):

  -123.2790 -53.1930 -50.3773 -50.1187  11.6229  13.9141  14.9446  21.6944
    22.9260  25.3249  33.7052  35.1822  37.4295

          k =-0.2727 0.6364-0.0909 (   114 PWs)   bands (ev):

  -123.3738 -53.1025 -52.5383 -48.7294  11.0594  15.1815  16.7655  19.9755
    23.9534  25.1750  29.9649  33.8688  35.9633

          k = 0.6364-0.2727 0.8182 (   113 PWs)   bands (ev):

  -123.3610 -52.9099 -52.2501 -47.9829  11.8689  16.7024  18.2191  19.5711
    23.9933  26.3373  27.5207  33.0859  34.9486

          k = 0.5455-0.1818 0.7273 (   111 PWs)   bands (ev):

  -123.2180 -52.0396 -51.0761 -47.0383  14.5245  17.3052  18.5747  20.7970
    24.7988  26.3619  28.4313  32.3057  35.3841

          k = 0.4545-0.0909 0.6364 (   112 PWs)   bands (ev):

  -123.2788 -52.9141 -50.4272 -48.4425  13.6363  17.0457  18.8560  20.0394
    24.4720  25.7707  28.1313  31.8885  36.4990

          k = 0.3636 0.0000 0.5455 (   110 PWs)   bands (ev):

  -123.0022 -50.1444 -49.6363 -47.5306  15.5289  18.2452  18.4785  22.6287
    22.8200  27.3207  30.3762  32.8290  40.1059

          k =-0.1818 0.7273 0.0000 (   114 PWs)   bands (ev):

  -123.4393 -53.2223 -52.4326 -49.3753   8.4756  12.9214  19.1592  23.1122
    24.2116  25.5736  31.2753  31.6801  34.2101

          k = 0.7273-0.1818 0.9091 (   107 PWs)   bands (ev):

  -122.9771 -49.8823 -47.6686 -46.5027  15.6483  19.2272  21.9234  25.8206
    27.1233  27.7608  29.3727  31.4860  33.6689

          k = 0.6364-0.0909 0.8182 (   108 PWs)   bands (ev):

  -123.0778 -50.0868 -48.6342 -47.0441  15.5180  19.6526  21.6255  23.8897
    26.6027  27.4420  27.9589  30.4715  33.9566

          k = 0.5455 0.0000 0.7273 (   109 PWs)   bands (ev):

  -123.1232 -51.8574 -47.8706 -47.7475  15.8246  19.1099  21.1324  21.3709
    26.4073  27.3164  27.6676  30.4115  34.9840

          k = 0.8182-0.0909 1.0000 (   110 PWs)   bands (ev):

  -123.2129 -52.0512 -49.7533 -47.0228  12.3068  15.9332  22.4674  23.5701
    26.5467  28.0817  29.4589  30.7600  33.2964

          k = 0.7273 0.0000 0.9091 (   106 PWs)   bands (ev):

  -122.9458 -49.7810 -46.8358 -45.9647  15.7108  20.0963  23.0828  26.8445
    27.1783  28.6323  29.0730  30.1051  33.2030

          k = 0.6364-0.2727 1.0000 (   109 PWs)   bands (ev):

  -123.0848 -50.4571 -49.4475 -47.0397  14.8055  17.7296  17.9825  26.0555
    26.7833  27.5395  29.0218  31.1808  34.0779

          k = 0.5455-0.1818 0.9091 (   110 PWs)   bands (ev):

  -123.2231 -52.1140 -49.0082 -47.8746  15.0341  18.6774  19.5201  21.4092
    26.4431  27.0233  27.7372  30.7262  32.7011

          k = 0.6364-0.0909 1.0000 (   105 PWs)   bands (ev):

  -122.8640 -47.6010 -47.2998 -46.1191  19.7437  21.3325  21.9808  26.1583
    27.8346  28.0321  28.7208  30.6177  31.9555

          k = 0.5455 0.0000 0.9091 (   110 PWs)   bands (ev):

  -123.2680 -52.1322 -49.1414 -47.8842  15.3716  19.7686  20.0290  20.9947
    26.3995  26.9907  27.3644  29.5326  31.5278

     the Fermi energy is    25.9229 ev

!    total energy              =    -308.85814147 Ry
     Harris-Foulkes estimate   =    -308.85814148 Ry
     estimated scf accuracy    <          4.0E-09 Ry

     The total energy is the sum of the following terms:

     one-electron contribution =    -123.78286861 Ry
     hartree contribution      =      67.78629733 Ry
     xc contribution           =     -29.47824663 Ry
     ewald contribution        =    -223.38275379 Ry
     smearing contrib. (-TS)   =      -0.00056978 Ry

     convergence has been achieved in   8 iterations

     Forces acting on atoms (cartesian axes, Ry/au):

     atom    1 type  1   force =     0.00000000    0.00000000    0.00000000

     Total force =     0.000000     Total SCF correction =     0.000000


     Computing stress (Cartesian axis) and pressure

          total   stress  (Ry/bohr**3)                   (kbar)     P=********
  -0.95441374   0.00000000   0.00000000    -140399.08      0.00      0.00
   0.00000000  -0.95441374  -0.00000000          0.00-140399.08     -0.00
   0.00000000  -0.00000000  -0.95441374          0.00     -0.00-140399.08


     Writing output data file Ni.save/

     init_run     :      0.13s CPU      0.14s WALL (       1 calls)
     electrons    :      1.73s CPU      1.96s WALL (       1 calls)
     forces       :      0.01s CPU      0.02s WALL (       1 calls)
     stress       :      0.04s CPU      0.04s WALL (       1 calls)

     Called by init_run:
     wfcinit      :      0.05s CPU      0.06s WALL (       1 calls)
     potinit      :      0.00s CPU      0.00s WALL (       1 calls)
     hinit0       :      0.07s CPU      0.07s WALL (       1 calls)

     Called by electrons:
     c_bands      :      1.53s CPU      1.72s WALL (       8 calls)
     sum_band     :      0.18s CPU      0.22s WALL (       8 calls)
     v_of_rho     :      0.01s CPU      0.01s WALL (       9 calls)
     newd         :      0.01s CPU      0.01s WALL (       9 calls)
     mix_rho      :      0.00s CPU      0.00s WALL (       8 calls)

     Called by c_bands:
     init_us_2    :      0.02s CPU      0.02s WALL (    1064 calls)
     cegterg      :      1.49s CPU      1.68s WALL (     448 calls)

     Called by sum_band:
     sum_band:bec :      0.00s CPU      0.00s WALL (     448 calls)
     addusdens    :      0.01s CPU      0.01s WALL (       8 calls)

     Called by *egterg:
     h_psi        :      0.85s CPU      0.96s WALL (    1471 calls)
     s_psi        :      0.02s CPU      0.03s WALL (    1471 calls)
     g_psi        :      0.00s CPU      0.00s WALL (     967 calls)
     cdiaghg      :      0.47s CPU      0.52s WALL (    1415 calls)

     Called by h_psi:
     h_psi:pot    :      0.85s CPU      0.96s WALL (    1471 calls)
     h_psi:calbec :      0.04s CPU      0.05s WALL (    1471 calls)
     vloc_psi     :      0.77s CPU      0.87s WALL (    1471 calls)
     add_vuspsi   :      0.02s CPU      0.03s WALL (    1471 calls)

     General routines
     calbec       :      0.06s CPU      0.07s WALL (    2199 calls)
     fft          :      0.00s CPU      0.00s WALL (     125 calls)
     ffts         :      0.00s CPU      0.00s WALL (       8 calls)
     fftw         :      0.83s CPU      0.94s WALL (   36514 calls)

     Parallel routines
     fft_scatt_xy :      0.09s CPU      0.10s WALL (   36647 calls)
     fft_scatt_yz :      0.35s CPU      0.40s WALL (   36647 calls)

     PWSCF        :     2.64s CPU         2.94s WALL


   This run was terminated on:  22:26: 2  26Mar2024            

=------------------------------------------------------------------------------=
   JOB DONE.
=------------------------------------------------------------------------------=
