
     Program PWSCF v.6.3MaX starts on 26Mar2024 at 22:26:43 

     This program is part of the open-source Quantum ESPRESSO suite
     for quantum simulation of materials; please cite
         "P. Giannozzi et al., J. Phys.:Condens. Matter 21 395502 (2009);
         "P. Giannozzi et al., J. Phys.:Condens. Matter 29 465901 (2017);
          URL http://www.quantum-espresso.org", 
     in publications or presentations arising from this work. More details at
     http://www.quantum-espresso.org/quote

     Parallel version (MPI), running on     5 processors

     MPI processes distributed on     1 nodes
     R & G space division:  proc/nbgrp/npool/nimage =       5
     Waiting for input...
     Reading input from standard input

     Current dimensions of program PWSCF are:
     Max number of different atomic species (ntypx) = 10
     Max number of k-points (npk) =  40000
     Max angular momentum in pseudopotentials (lmaxx) =  3
               file Ni.pbesol-spn-kjpaw_psl.1.0.0.UPF: wavefunction(s)  3P 3D renormalized

     Subspace diagonalization in iterative solution of the eigenvalue problem:
     a serial algorithm will be used


     Parallelization info
     --------------------
     sticks:   dense  smooth     PW     G-vecs:    dense   smooth      PW
     Min          24      24     11                  178      178      45
     Max          25      25     11                  181      181      46
     Sum         121     121     55                  893      893     229



     bravais-lattice index     =            2
     lattice parameter (alat)  =       6.6500  a.u.
     unit-cell volume          =      73.5199 (a.u.)^3
     number of atoms/cell      =            1
     number of atomic types    =            1
     number of electrons       =        18.00
     number of Kohn-Sham states=           13
     kinetic-energy cutoff     =      20.0000  Ry
     charge density cutoff     =      80.0000  Ry
     convergence threshold     =      1.0E-08
     mixing beta               =       0.7000
     number of iterations used =            8  plain     mixing
     Exchange-correlation      = SLA PW PSX PSC ( 1  4 10  8 0 0)

     celldm(1)=   6.650000  celldm(2)=   0.000000  celldm(3)=   0.000000
     celldm(4)=   0.000000  celldm(5)=   0.000000  celldm(6)=   0.000000

     crystal axes: (cart. coord. in units of alat)
               a(1) = (  -0.500000   0.000000   0.500000 )  
               a(2) = (   0.000000   0.500000   0.500000 )  
               a(3) = (  -0.500000   0.500000   0.000000 )  

     reciprocal axes: (cart. coord. in units 2 pi/alat)
               b(1) = ( -1.000000 -1.000000  1.000000 )  
               b(2) = (  1.000000  1.000000  1.000000 )  
               b(3) = ( -1.000000  1.000000 -1.000000 )  


     PseudoPot. # 1 for Ni read from file:
     /home/lorenzo/pseudos/Ni/Ni.pbesol-spn-kjpaw_psl.1.0.0.UPF
     MD5 check sum: ef06ee83099c2673f0516457bd731f51
     Pseudo is Projector augmented-wave + core cor, Zval = 18.0
     Generated using "atomic" code by A. Dal Corso v.6.3
     Shape of augmentation charge: PSQ
     Using radial grid of 1195 points,  6 beta functions with: 
                l(1) =   0
                l(2) =   0
                l(3) =   1
                l(4) =   1
                l(5) =   2
                l(6) =   2
     Q(r) pseudized with 0 coefficients 


     atomic species   valence    mass     pseudopotential
        Ni            18.00    58.69340     Ni( 1.00)

     48 Sym. Ops., with inversion, found



   Cartesian axes

     site n.     atom                  positions (alat units)
         1           Ni  tau(   1) = (   0.0000000   0.0000000   0.0000000  )

     number of k points=    10  gaussian smearing, width (Ry)=  0.0100
                       cart. coord. in units 2pi/alat
        k(    1) = (   0.0000000   0.0000000   0.0000000), wk =   0.0160000
        k(    2) = (  -0.2000000   0.2000000  -0.2000000), wk =   0.1280000
        k(    3) = (  -0.4000000   0.4000000  -0.4000000), wk =   0.1280000
        k(    4) = (   0.0000000   0.4000000   0.0000000), wk =   0.0960000
        k(    5) = (  -0.2000000   0.6000000  -0.2000000), wk =   0.3840000
        k(    6) = (   0.6000000  -0.2000000   0.6000000), wk =   0.3840000
        k(    7) = (   0.4000000   0.0000000   0.4000000), wk =   0.1920000
        k(    8) = (   0.0000000   0.8000000   0.0000000), wk =   0.0960000
        k(    9) = (   0.8000000   0.0000000   0.8000000), wk =   0.1920000
        k(   10) = (   0.6000000  -0.2000000   1.0000000), wk =   0.3840000

     Dense  grid:      893 G-vectors     FFT dimensions: (  15,  15,  15)

     Estimated max dynamical RAM per process >       1.49 MB

     Estimated total dynamical RAM >       7.46 MB

     Check: negative/imaginary core charge=   -0.000642    0.000000

     Initial potential from superposition of free atoms
     Check: negative starting charge=   -0.021453

     starting charge   17.99977, renormalised to   18.00000

     negative rho (up, down):  2.145E-02 0.000E+00
     Starting wfcs are   10 randomized atomic wfcs +    3 random wfcs
     Checking if some PAW data can be deallocated... 

     total cpu time spent up to now is        0.9 secs

     Self-consistent Calculation

     iteration #  1     ecut=    20.00 Ry     beta= 0.70
     Davidson diagonalization with overlap
     ethr =  1.00E-02,  avg # of iterations =  3.6

     total cpu time spent up to now is        1.1 secs

     total energy              =    -383.64844106 Ry
     Harris-Foulkes estimate   =    -407.22930296 Ry
     estimated scf accuracy    <      27.54950578 Ry

     iteration #  2     ecut=    20.00 Ry     beta= 0.70
     Davidson diagonalization with overlap
     ethr =  1.00E-02,  avg # of iterations =  3.0

     total cpu time spent up to now is        1.2 secs

     total energy              =    -393.30628151 Ry
     Harris-Foulkes estimate   =    -400.12314508 Ry
     estimated scf accuracy    <      12.26814332 Ry

     iteration #  3     ecut=    20.00 Ry     beta= 0.70
     Davidson diagonalization with overlap
     ethr =  1.00E-02,  avg # of iterations =  2.0

     total cpu time spent up to now is        1.4 secs

     total energy              =    -394.83458575 Ry
     Harris-Foulkes estimate   =    -395.01473727 Ry
     estimated scf accuracy    <       0.27371511 Ry

     iteration #  4     ecut=    20.00 Ry     beta= 0.70
     Davidson diagonalization with overlap
     ethr =  1.52E-03,  avg # of iterations =  2.0

     total cpu time spent up to now is        1.5 secs

     total energy              =    -394.87856351 Ry
     Harris-Foulkes estimate   =    -394.90923313 Ry
     estimated scf accuracy    <       0.07423121 Ry

     iteration #  5     ecut=    20.00 Ry     beta= 0.70
     Davidson diagonalization with overlap
     ethr =  4.12E-04,  avg # of iterations =  1.1

     total cpu time spent up to now is        1.7 secs

     total energy              =    -394.88949005 Ry
     Harris-Foulkes estimate   =    -394.88965779 Ry
     estimated scf accuracy    <       0.00087381 Ry

     iteration #  6     ecut=    20.00 Ry     beta= 0.70
     Davidson diagonalization with overlap
     ethr =  4.85E-06,  avg # of iterations =  1.4

     total cpu time spent up to now is        1.8 secs

     total energy              =    -394.88934885 Ry
     Harris-Foulkes estimate   =    -394.88950818 Ry
     estimated scf accuracy    <       0.00038140 Ry

     iteration #  7     ecut=    20.00 Ry     beta= 0.70
     Davidson diagonalization with overlap
     ethr =  2.12E-06,  avg # of iterations =  1.1

     total cpu time spent up to now is        1.9 secs

     total energy              =    -394.88938118 Ry
     Harris-Foulkes estimate   =    -394.88938037 Ry
     estimated scf accuracy    <       0.00003131 Ry

     iteration #  8     ecut=    20.00 Ry     beta= 0.70
     Davidson diagonalization with overlap
     ethr =  1.74E-07,  avg # of iterations =  1.0

     total cpu time spent up to now is        2.0 secs

     total energy              =    -394.88937697 Ry
     Harris-Foulkes estimate   =    -394.88938127 Ry
     estimated scf accuracy    <       0.00003340 Ry

     iteration #  9     ecut=    20.00 Ry     beta= 0.70
     Davidson diagonalization with overlap
     ethr =  1.74E-07,  avg # of iterations =  1.0

     total cpu time spent up to now is        2.2 secs

     total energy              =    -394.88936627 Ry
     Harris-Foulkes estimate   =    -394.88937725 Ry
     estimated scf accuracy    <       0.00002167 Ry

     iteration # 10     ecut=    20.00 Ry     beta= 0.70
     Davidson diagonalization with overlap
     ethr =  1.20E-07,  avg # of iterations =  2.2

     total cpu time spent up to now is        2.3 secs

     total energy              =    -394.88936956 Ry
     Harris-Foulkes estimate   =    -394.88936970 Ry
     estimated scf accuracy    <       0.00000051 Ry

     iteration # 11     ecut=    20.00 Ry     beta= 0.70
     Davidson diagonalization with overlap
     ethr =  2.86E-09,  avg # of iterations =  1.0

     total cpu time spent up to now is        2.5 secs

     total energy              =    -394.88936947 Ry
     Harris-Foulkes estimate   =    -394.88936958 Ry
     estimated scf accuracy    <       0.00000023 Ry

     iteration # 12     ecut=    20.00 Ry     beta= 0.70
     Davidson diagonalization with overlap
     ethr =  1.27E-09,  avg # of iterations =  2.0

     total cpu time spent up to now is        2.6 secs

     total energy              =    -394.88936949 Ry
     Harris-Foulkes estimate   =    -394.88936949 Ry
     estimated scf accuracy    <       0.00000002 Ry

     iteration # 13     ecut=    20.00 Ry     beta= 0.70
     Davidson diagonalization with overlap
     ethr =  1.06E-10,  avg # of iterations =  1.2

     total cpu time spent up to now is        2.7 secs

     End of self-consistent calculation

          k = 0.0000 0.0000 0.0000 (   113 PWs)   bands (ev):

  -125.8359 -52.2632 -52.2632 -52.2632  10.5960  19.7774  19.7774  19.7774
    20.2637  20.2637  43.8032  47.4564  47.7981

          k =-0.2000 0.2000-0.2000 (   110 PWs)   bands (ev):

  -125.4236 -50.2318 -50.2318 -50.0629  12.1220  17.7908  21.2544  21.2544
    26.2375  26.2375  34.9592  45.1645  45.1645

          k =-0.4000 0.4000-0.4000 (   114 PWs)   bands (ev):

  -125.9581 -54.3583 -54.3583 -50.6174  15.0019  15.3038  15.3038  21.2414
    23.4126  23.4126  26.6172  42.8440  42.8440

          k = 0.0000 0.4000 0.0000 (   113 PWs)   bands (ev):

  -125.6782 -52.4998 -52.4998 -50.8736  12.5863  17.9242  17.9242  18.4457
    21.3049  25.0266  39.5403  40.5690  40.5690

          k =-0.2000 0.6000-0.2000 (   113 PWs)   bands (ev):

  -125.8978 -55.4902 -53.0958 -49.3658  12.4290  15.3809  18.9301  19.4027
    24.9159  27.1239  29.5850  35.5837  38.2170

          k = 0.6000-0.2000 0.6000 (   109 PWs)   bands (ev):

  -125.6170 -52.5100 -49.8523 -48.7894  17.4676  18.9878  21.0005  21.4453
    26.7649  27.7448  28.2892  33.2433  40.1578

          k = 0.4000 0.0000 0.4000 (   107 PWs)   bands (ev):

  -125.2189 -51.5393 -48.7038 -45.6049  14.6930  19.1810  22.2860  24.6305
    27.2602  29.9433  33.5364  34.5494  45.5739

          k = 0.0000 0.8000 0.0000 (   112 PWs)   bands (ev):

  -125.9470 -54.2019 -54.2019 -48.8596   8.9542  14.6590  22.0655  23.0076
    28.3443  28.3443  30.1311  35.0523  35.0523

          k = 0.8000 0.0000 0.8000 (   110 PWs)   bands (ev):

  -125.8350 -56.3517 -49.2062 -48.9097   9.1533  21.0294  23.2061  24.7677
    26.2483  27.8462  29.5748  29.5893  35.0515

          k = 0.6000-0.2000 1.0000 (   111 PWs)   bands (ev):

  -125.9006 -54.0257 -51.4271 -50.1316  14.9576  17.9311  18.9830  21.9711
    27.7052  27.7423  28.4897  30.0735  32.4130

     the Fermi energy is    27.1071 ev

!    total energy              =    -394.88936949 Ry
     Harris-Foulkes estimate   =    -394.88936949 Ry
     estimated scf accuracy    <          1.6E-10 Ry

     total all-electron energy =     -3007.347714 Ry

     The total energy is the sum of the following terms:

     one-electron contribution =    -122.06338929 Ry
     hartree contribution      =      68.36770725 Ry
     xc contribution           =     -29.56885703 Ry
     ewald contribution        =    -223.38275379 Ry
     one-center paw contrib.   =     -88.24085530 Ry
     smearing contrib. (-TS)   =      -0.00122132 Ry

     convergence has been achieved in  13 iterations

     Forces acting on atoms (cartesian axes, Ry/au):

     atom    1 type  1   force =     0.00000000    0.00000000    0.00000000

     Total force =     0.000000     Total SCF correction =     0.000000


     Computing stress (Cartesian axis) and pressure

          total   stress  (Ry/bohr**3)                   (kbar)     P=********
  -1.02679733   0.00000000   0.00000000    -151047.08      0.00      0.00
   0.00000000  -1.02679733  -0.00000000          0.00-151047.08     -0.00
   0.00000000  -0.00000000  -1.02679733          0.00     -0.00-151047.08


     Writing output data file Ni.save/

     init_run     :      0.18s CPU      0.20s WALL (       1 calls)
     electrons    :      1.60s CPU      1.84s WALL (       1 calls)
     forces       :      0.01s CPU      0.01s WALL (       1 calls)
     stress       :      0.02s CPU      0.02s WALL (       1 calls)

     Called by init_run:
     wfcinit      :      0.01s CPU      0.01s WALL (       1 calls)
     potinit      :      0.09s CPU      0.10s WALL (       1 calls)
     hinit0       :      0.07s CPU      0.07s WALL (       1 calls)

     Called by electrons:
     c_bands      :      0.35s CPU      0.41s WALL (      13 calls)
     sum_band     :      0.07s CPU      0.08s WALL (      13 calls)
     v_of_rho     :      0.01s CPU      0.01s WALL (      14 calls)
     newd         :      0.01s CPU      0.01s WALL (      14 calls)
     PAW_pot      :      1.23s CPU      1.40s WALL (      14 calls)
     mix_rho      :      0.00s CPU      0.00s WALL (      13 calls)

     Called by c_bands:
     init_us_2    :      0.01s CPU      0.01s WALL (     290 calls)
     cegterg      :      0.34s CPU      0.39s WALL (     130 calls)

     Called by sum_band:
     sum_band:bec :      0.00s CPU      0.00s WALL (     130 calls)
     addusdens    :      0.01s CPU      0.01s WALL (      13 calls)

     Called by *egterg:
     h_psi        :      0.20s CPU      0.24s WALL (     366 calls)
     s_psi        :      0.01s CPU      0.01s WALL (     366 calls)
     g_psi        :      0.00s CPU      0.00s WALL (     226 calls)
     cdiaghg      :      0.09s CPU      0.11s WALL (     356 calls)

     Called by h_psi:
     h_psi:pot    :      0.20s CPU      0.24s WALL (     366 calls)
     h_psi:calbec :      0.01s CPU      0.01s WALL (     366 calls)
     vloc_psi     :      0.18s CPU      0.22s WALL (     366 calls)
     add_vuspsi   :      0.01s CPU      0.01s WALL (     366 calls)

     General routines
     calbec       :      0.02s CPU      0.02s WALL (     546 calls)
     fft          :      0.01s CPU      0.01s WALL (     180 calls)
     ffts         :      0.00s CPU      0.00s WALL (      13 calls)
     fftw         :      0.21s CPU      0.24s WALL (    9726 calls)

     Parallel routines
     fft_scatt_xy :      0.02s CPU      0.03s WALL (    9919 calls)
     fft_scatt_yz :      0.09s CPU      0.10s WALL (    9919 calls)

     PWSCF        :     2.54s CPU         2.83s WALL


   This run was terminated on:  22:26:46  26Mar2024            

=------------------------------------------------------------------------------=
   JOB DONE.
=------------------------------------------------------------------------------=
