
     Program PWSCF v.6.3MaX starts on 26Mar2024 at 22:30:34 

     This program is part of the open-source Quantum ESPRESSO suite
     for quantum simulation of materials; please cite
         "P. Giannozzi et al., J. Phys.:Condens. Matter 21 395502 (2009);
         "P. Giannozzi et al., J. Phys.:Condens. Matter 29 465901 (2017);
          URL http://www.quantum-espresso.org", 
     in publications or presentations arising from this work. More details at
     http://www.quantum-espresso.org/quote

     Parallel version (MPI), running on     5 processors

     MPI processes distributed on     1 nodes
     R & G space division:  proc/nbgrp/npool/nimage =       5
     Waiting for input...
     Reading input from standard input

     Current dimensions of program PWSCF are:
     Max number of different atomic species (ntypx) = 10
     Max number of k-points (npk) =  40000
     Max angular momentum in pseudopotentials (lmaxx) =  3

     Subspace diagonalization in iterative solution of the eigenvalue problem:
     a serial algorithm will be used


     Parallelization info
     --------------------
     sticks:   dense  smooth     PW     G-vecs:    dense   smooth      PW
     Min          37      37     12                  327      327      66
     Max          38      38     13                  329      329      67
     Sum         187     187     61                 1639     1639     331



     bravais-lattice index     =            2
     lattice parameter (alat)  =       6.6500  a.u.
     unit-cell volume          =      73.5199 (a.u.)^3
     number of atoms/cell      =            1
     number of atomic types    =            1
     number of electrons       =        18.00
     number of Kohn-Sham states=           13
     kinetic-energy cutoff     =      30.0000  Ry
     charge density cutoff     =     120.0000  Ry
     convergence threshold     =      1.0E-08
     mixing beta               =       0.7000
     number of iterations used =            8  plain     mixing
     Exchange-correlation      = PBE ( 1  4  3  4 0 0)

     celldm(1)=   6.650000  celldm(2)=   0.000000  celldm(3)=   0.000000
     celldm(4)=   0.000000  celldm(5)=   0.000000  celldm(6)=   0.000000

     crystal axes: (cart. coord. in units of alat)
               a(1) = (  -0.500000   0.000000   0.500000 )  
               a(2) = (   0.000000   0.500000   0.500000 )  
               a(3) = (  -0.500000   0.500000   0.000000 )  

     reciprocal axes: (cart. coord. in units 2 pi/alat)
               b(1) = ( -1.000000 -1.000000  1.000000 )  
               b(2) = (  1.000000  1.000000  1.000000 )  
               b(3) = ( -1.000000  1.000000 -1.000000 )  


     PseudoPot. # 1 for Ni read from file:
     /home/lorenzo/pseudos/Ni/Ni.pbe-spn-rrkjus_psl.1.0.0.UPF
     MD5 check sum: 8b3fc9aac6dafe35f580d41bb18c3945
     Pseudo is Ultrasoft + core correction, Zval = 18.0
     Generated using "atomic" code by A. Dal Corso v.6.3
     Using radial grid of 1195 points,  6 beta functions with: 
                l(1) =   0
                l(2) =   0
                l(3) =   1
                l(4) =   1
                l(5) =   2
                l(6) =   2
     Q(r) pseudized with 0 coefficients 


     atomic species   valence    mass     pseudopotential
        Ni            18.00    58.69340     Ni( 1.00)

     48 Sym. Ops., with inversion, found



   Cartesian axes

     site n.     atom                  positions (alat units)
         1           Ni  tau(   1) = (   0.0000000   0.0000000   0.0000000  )

     number of k points=     4  gaussian smearing, width (Ry)=  0.0100
                       cart. coord. in units 2pi/alat
        k(    1) = (   0.0000000   0.0000000   0.0000000), wk =   0.0740741
        k(    2) = (  -0.3333333   0.3333333  -0.3333333), wk =   0.5925926
        k(    3) = (   0.0000000   0.6666667   0.0000000), wk =   0.4444444
        k(    4) = (   0.6666667  -0.0000000   0.6666667), wk =   0.8888889

     Dense  grid:     1639 G-vectors     FFT dimensions: (  18,  18,  18)

     Estimated max dynamical RAM per process >       2.21 MB

     Estimated total dynamical RAM >      11.07 MB

     Check: negative/imaginary core charge=   -0.000069    0.000000

     Initial potential from superposition of free atoms

     starting charge   17.99975, renormalised to   18.00000
     Starting wfcs are   10 randomized atomic wfcs +    3 random wfcs

     total cpu time spent up to now is        0.8 secs

     Self-consistent Calculation

     iteration #  1     ecut=    30.00 Ry     beta= 0.70
     Davidson diagonalization with overlap
     ethr =  1.00E-02,  avg # of iterations =  4.5

     total cpu time spent up to now is        0.9 secs

     total energy              =    -334.95410297 Ry
     Harris-Foulkes estimate   =    -335.77504296 Ry
     estimated scf accuracy    <       1.09301036 Ry

     iteration #  2     ecut=    30.00 Ry     beta= 0.70
     Davidson diagonalization with overlap
     ethr =  6.07E-03,  avg # of iterations =  2.0

     total cpu time spent up to now is        0.9 secs

     total energy              =    -334.83197981 Ry
     Harris-Foulkes estimate   =    -336.16721462 Ry
     estimated scf accuracy    <       3.56985606 Ry

     iteration #  3     ecut=    30.00 Ry     beta= 0.70
     Davidson diagonalization with overlap
     ethr =  6.07E-03,  avg # of iterations =  2.0

     total cpu time spent up to now is        0.9 secs

     total energy              =    -335.46071368 Ry
     Harris-Foulkes estimate   =    -335.46594390 Ry
     estimated scf accuracy    <       0.01998177 Ry

     iteration #  4     ecut=    30.00 Ry     beta= 0.70
     Davidson diagonalization with overlap
     ethr =  1.11E-04,  avg # of iterations =  2.0

     total cpu time spent up to now is        1.0 secs

     total energy              =    -335.46362084 Ry
     Harris-Foulkes estimate   =    -335.46351514 Ry
     estimated scf accuracy    <       0.00026919 Ry

     iteration #  5     ecut=    30.00 Ry     beta= 0.70
     Davidson diagonalization with overlap
     ethr =  1.50E-06,  avg # of iterations =  1.8

     total cpu time spent up to now is        1.0 secs

     total energy              =    -335.46363272 Ry
     Harris-Foulkes estimate   =    -335.46363205 Ry
     estimated scf accuracy    <       0.00000854 Ry

     iteration #  6     ecut=    30.00 Ry     beta= 0.70
     Davidson diagonalization with overlap
     ethr =  4.74E-08,  avg # of iterations =  1.5

     total cpu time spent up to now is        1.0 secs

     End of self-consistent calculation

          k = 0.0000 0.0000 0.0000 (   181 PWs)   bands (ev):

   -88.8092 -41.6449 -41.6449 -41.6449   9.6506  19.1110  19.1110  19.1110
    19.8117  19.8117  41.9573  46.0453  46.0453

          k =-0.3333 0.3333-0.3333 (   205 PWs)   bands (ev):

   -88.9096 -44.7953 -43.6514 -43.6514  13.2505  16.3759  17.4616  17.4616
    17.6772  17.6772  28.8053  41.3300  42.8878

          k = 0.0000 0.6667 0.0000 (   202 PWs)   bands (ev):

   -88.8901 -44.4856 -43.5502 -43.5502  14.0906  16.7630  17.4223  17.4223
    18.3010  18.3674  33.7015  35.0173  35.0173

          k = 0.6667-0.0000 0.6667 (   212 PWs)   bands (ev):

   -88.9348 -44.7783 -44.7107 -44.5752  15.1158  15.3560  15.9851  17.1807
    17.8849  22.9077  25.3264  29.0064  36.7415

     the Fermi energy is    18.2356 ev

!    total energy              =    -335.46363357 Ry
     Harris-Foulkes estimate   =    -335.46363355 Ry
     estimated scf accuracy    <          8.0E-09 Ry

     The total energy is the sum of the following terms:

     one-electron contribution =    -179.26428218 Ry
     hartree contribution      =     101.25314160 Ry
     xc contribution           =     -34.06825057 Ry
     ewald contribution        =    -223.38275371 Ry
     smearing contrib. (-TS)   =      -0.00148871 Ry

     convergence has been achieved in   6 iterations

     Forces acting on atoms (cartesian axes, Ry/au):

     atom    1 type  1   force =     0.00000000    0.00000000    0.00000000

     Total force =     0.000000     Total SCF correction =     0.000000


     Computing stress (Cartesian axis) and pressure

          total   stress  (Ry/bohr**3)                   (kbar)     P=********
  -0.22516507   0.00000000   0.00000000     -33122.92      0.00      0.00
  -0.00000000  -0.22516507  -0.00000000         -0.00 -33122.92     -0.00
   0.00000000   0.00000000  -0.22516507          0.00      0.00 -33122.92


     Writing output data file Ni.save/

     init_run     :      0.10s CPU      0.10s WALL (       1 calls)
     electrons    :      0.17s CPU      0.19s WALL (       1 calls)
     forces       :      0.01s CPU      0.01s WALL (       1 calls)
     stress       :      0.04s CPU      0.04s WALL (       1 calls)

     Called by init_run:
     wfcinit      :      0.00s CPU      0.01s WALL (       1 calls)
     potinit      :      0.00s CPU      0.00s WALL (       1 calls)
     hinit0       :      0.09s CPU      0.09s WALL (       1 calls)

     Called by electrons:
     c_bands      :      0.11s CPU      0.13s WALL (       6 calls)
     sum_band     :      0.03s CPU      0.04s WALL (       6 calls)
     v_of_rho     :      0.01s CPU      0.01s WALL (       7 calls)
     newd         :      0.01s CPU      0.01s WALL (       7 calls)
     mix_rho      :      0.00s CPU      0.00s WALL (       6 calls)

     Called by c_bands:
     init_us_2    :      0.00s CPU      0.00s WALL (      60 calls)
     cegterg      :      0.11s CPU      0.13s WALL (      24 calls)

     Called by sum_band:
     sum_band:bec :      0.00s CPU      0.00s WALL (      24 calls)
     addusdens    :      0.01s CPU      0.01s WALL (       6 calls)

     Called by *egterg:
     h_psi        :      0.07s CPU      0.08s WALL (      83 calls)
     s_psi        :      0.00s CPU      0.00s WALL (      83 calls)
     g_psi        :      0.00s CPU      0.00s WALL (      55 calls)
     cdiaghg      :      0.03s CPU      0.03s WALL (      79 calls)

     Called by h_psi:
     h_psi:pot    :      0.07s CPU      0.08s WALL (      83 calls)
     h_psi:calbec :      0.00s CPU      0.00s WALL (      83 calls)
     vloc_psi     :      0.06s CPU      0.07s WALL (      83 calls)
     add_vuspsi   :      0.00s CPU      0.00s WALL (      83 calls)

     General routines
     calbec       :      0.01s CPU      0.01s WALL (     127 calls)
     fft          :      0.02s CPU      0.02s WALL (     103 calls)
     ffts         :      0.00s CPU      0.00s WALL (       6 calls)
     fftw         :      0.07s CPU      0.08s WALL (    1930 calls)

     Parallel routines
     fft_scatt_xy :      0.01s CPU      0.01s WALL (    2039 calls)
     fft_scatt_yz :      0.03s CPU      0.04s WALL (    2039 calls)

     PWSCF        :     1.04s CPU         1.10s WALL


   This run was terminated on:  22:30:35  26Mar2024            

=------------------------------------------------------------------------------=
   JOB DONE.
=------------------------------------------------------------------------------=
