
     Program PWSCF v.6.3MaX starts on 26Mar2024 at 22:32:52 

     This program is part of the open-source Quantum ESPRESSO suite
     for quantum simulation of materials; please cite
         "P. Giannozzi et al., J. Phys.:Condens. Matter 21 395502 (2009);
         "P. Giannozzi et al., J. Phys.:Condens. Matter 29 465901 (2017);
          URL http://www.quantum-espresso.org", 
     in publications or presentations arising from this work. More details at
     http://www.quantum-espresso.org/quote

     Parallel version (MPI), running on     5 processors

     MPI processes distributed on     1 nodes
     R & G space division:  proc/nbgrp/npool/nimage =       5
     Waiting for input...
     Reading input from standard input

     Current dimensions of program PWSCF are:
     Max number of different atomic species (ntypx) = 10
     Max number of k-points (npk) =  40000
     Max angular momentum in pseudopotentials (lmaxx) =  3
               file Ni.pbesol-spn-kjpaw_psl.1.0.0.UPF: wavefunction(s)  3P 3D renormalized

     Subspace diagonalization in iterative solution of the eigenvalue problem:
     a serial algorithm will be used


     Parallelization info
     --------------------
     sticks:   dense  smooth     PW     G-vecs:    dense   smooth      PW
     Min          42      42     16                  416      416      91
     Max          43      43     18                  418      418      92
     Sum         211     211     85                 2085     2085     459



     bravais-lattice index     =            2
     lattice parameter (alat)  =       6.6500  a.u.
     unit-cell volume          =      73.5199 (a.u.)^3
     number of atoms/cell      =            1
     number of atomic types    =            1
     number of electrons       =        18.00
     number of Kohn-Sham states=           13
     kinetic-energy cutoff     =      35.0000  Ry
     charge density cutoff     =     140.0000  Ry
     convergence threshold     =      1.0E-08
     mixing beta               =       0.7000
     number of iterations used =            8  plain     mixing
     Exchange-correlation      = SLA PW PSX PSC ( 1  4 10  8 0 0)

     celldm(1)=   6.650000  celldm(2)=   0.000000  celldm(3)=   0.000000
     celldm(4)=   0.000000  celldm(5)=   0.000000  celldm(6)=   0.000000

     crystal axes: (cart. coord. in units of alat)
               a(1) = (  -0.500000   0.000000   0.500000 )  
               a(2) = (   0.000000   0.500000   0.500000 )  
               a(3) = (  -0.500000   0.500000   0.000000 )  

     reciprocal axes: (cart. coord. in units 2 pi/alat)
               b(1) = ( -1.000000 -1.000000  1.000000 )  
               b(2) = (  1.000000  1.000000  1.000000 )  
               b(3) = ( -1.000000  1.000000 -1.000000 )  


     PseudoPot. # 1 for Ni read from file:
     /home/lorenzo/pseudos/Ni/Ni.pbesol-spn-kjpaw_psl.1.0.0.UPF
     MD5 check sum: ef06ee83099c2673f0516457bd731f51
     Pseudo is Projector augmented-wave + core cor, Zval = 18.0
     Generated using "atomic" code by A. Dal Corso v.6.3
     Shape of augmentation charge: PSQ
     Using radial grid of 1195 points,  6 beta functions with: 
                l(1) =   0
                l(2) =   0
                l(3) =   1
                l(4) =   1
                l(5) =   2
                l(6) =   2
     Q(r) pseudized with 0 coefficients 


     atomic species   valence    mass     pseudopotential
        Ni            18.00    58.69340     Ni( 1.00)

     48 Sym. Ops., with inversion, found



   Cartesian axes

     site n.     atom                  positions (alat units)
         1           Ni  tau(   1) = (   0.0000000   0.0000000   0.0000000  )

     number of k points=    16  gaussian smearing, width (Ry)=  0.0100
                       cart. coord. in units 2pi/alat
        k(    1) = (   0.0000000   0.0000000   0.0000000), wk =   0.0092593
        k(    2) = (  -0.1666667   0.1666667  -0.1666667), wk =   0.0740741
        k(    3) = (  -0.3333333   0.3333333  -0.3333333), wk =   0.0740741
        k(    4) = (   0.5000000  -0.5000000   0.5000000), wk =   0.0370370
        k(    5) = (   0.0000000   0.3333333   0.0000000), wk =   0.0555556
        k(    6) = (  -0.1666667   0.5000000  -0.1666667), wk =   0.2222222
        k(    7) = (   0.6666667  -0.3333333   0.6666667), wk =   0.2222222
        k(    8) = (   0.5000000  -0.1666667   0.5000000), wk =   0.2222222
        k(    9) = (   0.3333333   0.0000000   0.3333333), wk =   0.1111111
        k(   10) = (   0.0000000   0.6666667   0.0000000), wk =   0.0555556
        k(   11) = (   0.8333333  -0.1666667   0.8333333), wk =   0.2222222
        k(   12) = (   0.6666667  -0.0000000   0.6666667), wk =   0.1111111
        k(   13) = (   0.0000000  -1.0000000   0.0000000), wk =   0.0277778
        k(   14) = (   0.6666667  -0.3333333   1.0000000), wk =   0.2222222
        k(   15) = (   0.5000000  -0.1666667   0.8333333), wk =   0.2222222
        k(   16) = (  -0.3333333  -1.0000000   0.0000000), wk =   0.1111111

     Dense  grid:     2085 G-vectors     FFT dimensions: (  18,  18,  18)

     Estimated max dynamical RAM per process >       2.73 MB

     Estimated total dynamical RAM >      13.67 MB

     Check: negative/imaginary core charge=   -0.000037    0.000000

     Initial potential from superposition of free atoms

     starting charge   17.99977, renormalised to   18.00000
     Starting wfcs are   10 randomized atomic wfcs +    3 random wfcs
     Checking if some PAW data can be deallocated... 

     total cpu time spent up to now is        1.0 secs

     Self-consistent Calculation

     iteration #  1     ecut=    35.00 Ry     beta= 0.70
     Davidson diagonalization with overlap
     ethr =  1.00E-02,  avg # of iterations =  4.5

     total cpu time spent up to now is        1.2 secs

     total energy              =    -424.92733173 Ry
     Harris-Foulkes estimate   =    -425.09458440 Ry
     estimated scf accuracy    <       0.23799527 Ry

     iteration #  2     ecut=    35.00 Ry     beta= 0.70
     Davidson diagonalization with overlap
     ethr =  1.32E-03,  avg # of iterations =  2.1

     total cpu time spent up to now is        1.4 secs

     total energy              =    -424.87743649 Ry
     Harris-Foulkes estimate   =    -425.19593381 Ry
     estimated scf accuracy    <       0.86217913 Ry

     iteration #  3     ecut=    35.00 Ry     beta= 0.70
     Davidson diagonalization with overlap
     ethr =  1.32E-03,  avg # of iterations =  2.0

     total cpu time spent up to now is        1.6 secs

     total energy              =    -425.03143946 Ry
     Harris-Foulkes estimate   =    -425.03429466 Ry
     estimated scf accuracy    <       0.01046175 Ry

     iteration #  4     ecut=    35.00 Ry     beta= 0.70
     Davidson diagonalization with overlap
     ethr =  5.81E-05,  avg # of iterations =  2.1

     total cpu time spent up to now is        1.8 secs

     total energy              =    -425.03281307 Ry
     Harris-Foulkes estimate   =    -425.03282057 Ry
     estimated scf accuracy    <       0.00010827 Ry

     iteration #  5     ecut=    35.00 Ry     beta= 0.70
     Davidson diagonalization with overlap
     ethr =  6.01E-07,  avg # of iterations =  2.6

     total cpu time spent up to now is        2.0 secs

     total energy              =    -425.03283627 Ry
     Harris-Foulkes estimate   =    -425.03283690 Ry
     estimated scf accuracy    <       0.00000163 Ry

     iteration #  6     ecut=    35.00 Ry     beta= 0.70
     Davidson diagonalization with overlap
     ethr =  9.05E-09,  avg # of iterations =  2.0

     total cpu time spent up to now is        2.2 secs

     End of self-consistent calculation

          k = 0.0000 0.0000 0.0000 (   259 PWs)   bands (ev):

   -86.6024 -45.1473 -45.1473 -45.1473   8.9203  15.6720  15.6720  15.6720
    17.2313  17.2313  41.3079  45.2442  45.2442

          k =-0.1667 0.1667-0.1667 (   268 PWs)   bands (ev):

   -86.6066 -45.5288 -45.5288 -45.2369   9.9286  15.6481  15.7396  15.7396
    16.6647  16.6647  36.2687  42.1130  43.5152

          k =-0.3333 0.3333-0.3333 (   256 PWs)   bands (ev):

   -86.5773 -45.2338 -45.2338 -44.9727  12.3354  15.7537  15.8095  15.8095
    17.6072  17.6072  28.2843  40.6425  42.4700

          k = 0.5000-0.5000 0.5000 (   266 PWs)   bands (ev):

   -86.5891 -45.6921 -45.6921 -45.2146  13.1318  15.3809  15.3809  17.3207
    17.6359  17.6359  23.8355  39.8322  42.3120

          k = 0.0000 0.3333 0.0000 (   266 PWs)   bands (ev):

   -86.5991 -45.4592 -45.3013 -45.3013  10.2694  15.2559  15.9934  15.9934
    16.4785  17.0757  39.1741  39.6360  39.6360

          k =-0.1667 0.5000-0.1667 (   259 PWs)   bands (ev):

   -86.5786 -45.3499 -45.1732 -45.0936  12.2799  14.8806  15.8210  16.4188
    17.3751  17.6750  31.3840  37.6276  37.9782

          k = 0.6667-0.3333 0.6667 (   251 PWs)   bands (ev):

   -86.5633 -45.1100 -45.0475 -44.9935  13.8154  15.3945  15.9544  16.2796
    18.0149  19.6951  24.8081  35.3256  37.9411

          k = 0.5000-0.1667 0.5000 (   258 PWs)   bands (ev):

   -86.5763 -45.3048 -45.3044 -45.1949  13.5764  15.3509  15.5557  16.0480
    17.3420  19.1142  26.5957  33.8563  40.6958

          k = 0.3333 0.0000 0.3333 (   263 PWs)   bands (ev):

   -86.5887 -45.4616 -45.3777 -45.0943  11.5075  15.3438  15.8167  16.1418
    16.4494  17.5981  33.6721  34.7236  44.2659

          k = 0.0000 0.6667 0.0000 (   250 PWs)   bands (ev):

   -86.5594 -45.0056 -44.9243 -44.9243  13.1001  14.5051  16.9236  17.5332
    17.5332  17.8096  33.1935  34.5486  34.5486

          k = 0.8333-0.1667 0.8333 (   251 PWs)   bands (ev):

   -86.5563 -45.2238 -44.9511 -44.9492  13.9458  14.3576  16.5697  17.3882
    18.0182  20.4259  28.2409  29.9271  34.0400

          k = 0.6667-0.0000 0.6667 (   256 PWs)   bands (ev):

   -86.5650 -45.2930 -45.2444 -45.1147  14.4473  14.6453  15.6335  16.9256
    17.5744  22.5166  25.0799  28.5159  36.3873

          k = 0.0000-1.0000 0.0000 (   254 PWs)   bands (ev):

   -86.5609 -45.2572 -45.1315 -45.1315  13.3041  13.9099  17.8534  18.1458
    18.1458  20.0530  27.0775  32.4640  32.4640

          k = 0.6667-0.3333 1.0000 (   255 PWs)   bands (ev):

   -86.5677 -45.2090 -45.2078 -45.0643  13.9371  14.7107  15.6136  17.0093
    17.2652  19.4233  29.6089  31.0222  34.6436

          k = 0.5000-0.1667 0.8333 (   258 PWs)   bands (ev):

   -86.5697 -45.4262 -45.2401 -45.2375  14.5403  14.6144  15.3166  16.7149
    17.8045  22.5505  24.4358  31.0074  32.2826

          k =-0.3333-1.0000 0.0000 (   258 PWs)   bands (ev):

   -86.5669 -45.4718 -45.3959 -45.0548  13.9372  14.4358  15.8822  17.2003
    18.1093  22.9989  27.2588  27.9032  30.1606

     the Fermi energy is    17.8873 ev

!    total energy              =    -425.03283661 Ry
     Harris-Foulkes estimate   =    -425.03283662 Ry
     estimated scf accuracy    <          8.0E-09 Ry

     total all-electron energy =     -3037.491181 Ry

     The total energy is the sum of the following terms:

     one-electron contribution =    -182.33324212 Ry
     hartree contribution      =     103.07619805 Ry
     xc contribution           =     -33.81486641 Ry
     ewald contribution        =    -223.38275373 Ry
     one-center paw contrib.   =     -88.57694500 Ry
     smearing contrib. (-TS)   =      -0.00122741 Ry

     convergence has been achieved in   6 iterations

     Forces acting on atoms (cartesian axes, Ry/au):

     atom    1 type  1   force =     0.00000000    0.00000000    0.00000000

     Total force =     0.000000     Total SCF correction =     0.000000


     Computing stress (Cartesian axis) and pressure

          total   stress  (Ry/bohr**3)                   (kbar)     P=********
  -0.10377001   0.00000000   0.00000000     -15265.09      0.00      0.00
   0.00000000  -0.10377001  -0.00000000          0.00 -15265.09     -0.00
   0.00000000  -0.00000000  -0.10377001          0.00     -0.00 -15265.09


     Writing output data file Ni.save/

     init_run     :      0.23s CPU      0.25s WALL (       1 calls)
     electrons    :      1.10s CPU      1.27s WALL (       1 calls)
     forces       :      0.01s CPU      0.01s WALL (       1 calls)
     stress       :      0.04s CPU      0.04s WALL (       1 calls)

     Called by init_run:
     wfcinit      :      0.02s CPU      0.03s WALL (       1 calls)
     potinit      :      0.09s CPU      0.11s WALL (       1 calls)
     hinit0       :      0.10s CPU      0.10s WALL (       1 calls)

     Called by electrons:
     c_bands      :      0.47s CPU      0.52s WALL (       6 calls)
     sum_band     :      0.08s CPU      0.09s WALL (       6 calls)
     v_of_rho     :      0.01s CPU      0.01s WALL (       7 calls)
     newd         :      0.02s CPU      0.02s WALL (       7 calls)
     PAW_pot      :      0.61s CPU      0.72s WALL (       7 calls)
     mix_rho      :      0.00s CPU      0.00s WALL (       6 calls)

     Called by c_bands:
     init_us_2    :      0.01s CPU      0.01s WALL (     240 calls)
     cegterg      :      0.46s CPU      0.50s WALL (      96 calls)

     Called by sum_band:
     sum_band:bec :      0.00s CPU      0.00s WALL (      96 calls)
     addusdens    :      0.01s CPU      0.01s WALL (       6 calls)

     Called by *egterg:
     h_psi        :      0.29s CPU      0.32s WALL (     358 calls)
     s_psi        :      0.01s CPU      0.01s WALL (     358 calls)
     g_psi        :      0.00s CPU      0.00s WALL (     246 calls)
     cdiaghg      :      0.12s CPU      0.12s WALL (     342 calls)

     Called by h_psi:
     h_psi:pot    :      0.29s CPU      0.32s WALL (     358 calls)
     h_psi:calbec :      0.01s CPU      0.02s WALL (     358 calls)
     vloc_psi     :      0.27s CPU      0.29s WALL (     358 calls)
     add_vuspsi   :      0.01s CPU      0.01s WALL (     358 calls)

     General routines
     calbec       :      0.02s CPU      0.03s WALL (     534 calls)
     fft          :      0.01s CPU      0.01s WALL (     103 calls)
     ffts         :      0.00s CPU      0.00s WALL (       6 calls)
     fftw         :      0.29s CPU      0.32s WALL (    7902 calls)

     Parallel routines
     fft_scatt_xy :      0.03s CPU      0.03s WALL (    8011 calls)
     fft_scatt_yz :      0.10s CPU      0.11s WALL (    8011 calls)

     PWSCF        :     2.12s CPU         2.38s WALL


   This run was terminated on:  22:32:55  26Mar2024            

=------------------------------------------------------------------------------=
   JOB DONE.
=------------------------------------------------------------------------------=
