
     Program PWSCF v.6.3MaX starts on 26Mar2024 at 22:37:51 

     This program is part of the open-source Quantum ESPRESSO suite
     for quantum simulation of materials; please cite
         "P. Giannozzi et al., J. Phys.:Condens. Matter 21 395502 (2009);
         "P. Giannozzi et al., J. Phys.:Condens. Matter 29 465901 (2017);
          URL http://www.quantum-espresso.org", 
     in publications or presentations arising from this work. More details at
     http://www.quantum-espresso.org/quote

     Parallel version (MPI), running on     5 processors

     MPI processes distributed on     1 nodes
     R & G space division:  proc/nbgrp/npool/nimage =       5
     Waiting for input...
     Reading input from standard input

     Current dimensions of program PWSCF are:
     Max number of different atomic species (ntypx) = 10
     Max number of k-points (npk) =  40000
     Max angular momentum in pseudopotentials (lmaxx) =  3
               file Ni.pbesol-spn-kjpaw_psl.1.0.0.UPF: wavefunction(s)  3P 3D renormalized

     Subspace diagonalization in iterative solution of the eigenvalue problem:
     a serial algorithm will be used


     Parallelization info
     --------------------
     sticks:   dense  smooth     PW     G-vecs:    dense   smooth      PW
     Min          53      53     18                  595      595     121
     Max          56      56     19                  595      595     123
     Sum         271     271     91                 2975     2975     609



     bravais-lattice index     =            2
     lattice parameter (alat)  =       6.6500  a.u.
     unit-cell volume          =      73.5199 (a.u.)^3
     number of atoms/cell      =            1
     number of atomic types    =            1
     number of electrons       =        18.00
     number of Kohn-Sham states=           13
     kinetic-energy cutoff     =      45.0000  Ry
     charge density cutoff     =     180.0000  Ry
     convergence threshold     =      1.0E-08
     mixing beta               =       0.7000
     number of iterations used =            8  plain     mixing
     Exchange-correlation      = SLA PW PSX PSC ( 1  4 10  8 0 0)

     celldm(1)=   6.650000  celldm(2)=   0.000000  celldm(3)=   0.000000
     celldm(4)=   0.000000  celldm(5)=   0.000000  celldm(6)=   0.000000

     crystal axes: (cart. coord. in units of alat)
               a(1) = (  -0.500000   0.000000   0.500000 )  
               a(2) = (   0.000000   0.500000   0.500000 )  
               a(3) = (  -0.500000   0.500000   0.000000 )  

     reciprocal axes: (cart. coord. in units 2 pi/alat)
               b(1) = ( -1.000000 -1.000000  1.000000 )  
               b(2) = (  1.000000  1.000000  1.000000 )  
               b(3) = ( -1.000000  1.000000 -1.000000 )  


     PseudoPot. # 1 for Ni read from file:
     /home/lorenzo/pseudos/Ni/Ni.pbesol-spn-kjpaw_psl.1.0.0.UPF
     MD5 check sum: ef06ee83099c2673f0516457bd731f51
     Pseudo is Projector augmented-wave + core cor, Zval = 18.0
     Generated using "atomic" code by A. Dal Corso v.6.3
     Shape of augmentation charge: PSQ
     Using radial grid of 1195 points,  6 beta functions with: 
                l(1) =   0
                l(2) =   0
                l(3) =   1
                l(4) =   1
                l(5) =   2
                l(6) =   2
     Q(r) pseudized with 0 coefficients 


     atomic species   valence    mass     pseudopotential
        Ni            18.00    58.69340     Ni( 1.00)

     48 Sym. Ops., with inversion, found



   Cartesian axes

     site n.     atom                  positions (alat units)
         1           Ni  tau(   1) = (   0.0000000   0.0000000   0.0000000  )

     number of k points=    35  gaussian smearing, width (Ry)=  0.0100
                       cart. coord. in units 2pi/alat
        k(    1) = (   0.0000000   0.0000000   0.0000000), wk =   0.0027435
        k(    2) = (  -0.1111111   0.1111111  -0.1111111), wk =   0.0219479
        k(    3) = (  -0.2222222   0.2222222  -0.2222222), wk =   0.0219479
        k(    4) = (  -0.3333333   0.3333333  -0.3333333), wk =   0.0219479
        k(    5) = (  -0.4444444   0.4444444  -0.4444444), wk =   0.0219479
        k(    6) = (   0.0000000   0.2222222   0.0000000), wk =   0.0164609
        k(    7) = (  -0.1111111   0.3333333  -0.1111111), wk =   0.0658436
        k(    8) = (  -0.2222222   0.4444444  -0.2222222), wk =   0.0658436
        k(    9) = (  -0.3333333   0.5555556  -0.3333333), wk =   0.0658436
        k(   10) = (   0.5555556  -0.3333333   0.5555556), wk =   0.0658436
        k(   11) = (   0.4444444  -0.2222222   0.4444444), wk =   0.0658436
        k(   12) = (   0.3333333  -0.1111111   0.3333333), wk =   0.0658436
        k(   13) = (   0.2222222  -0.0000000   0.2222222), wk =   0.0329218
        k(   14) = (   0.0000000   0.4444444   0.0000000), wk =   0.0164609
        k(   15) = (  -0.1111111   0.5555556  -0.1111111), wk =   0.0658436
        k(   16) = (  -0.2222222   0.6666667  -0.2222222), wk =   0.0658436
        k(   17) = (   0.6666667  -0.2222222   0.6666667), wk =   0.0658436
        k(   18) = (   0.5555556  -0.1111111   0.5555556), wk =   0.0658436
        k(   19) = (   0.4444444   0.0000000   0.4444444), wk =   0.0329218
        k(   20) = (   0.0000000   0.6666667   0.0000000), wk =   0.0164609
        k(   21) = (  -0.1111111   0.7777778  -0.1111111), wk =   0.0658436
        k(   22) = (   0.7777778  -0.1111111   0.7777778), wk =   0.0658436
        k(   23) = (   0.6666667  -0.0000000   0.6666667), wk =   0.0329218
        k(   24) = (   0.0000000   0.8888889   0.0000000), wk =   0.0164609
        k(   25) = (   0.8888889   0.0000000   0.8888889), wk =   0.0329218
        k(   26) = (  -0.2222222   0.4444444   0.0000000), wk =   0.0658436
        k(   27) = (  -0.3333333   0.5555556  -0.1111111), wk =   0.1316872
        k(   28) = (   0.5555556  -0.3333333   0.7777778), wk =   0.1316872
        k(   29) = (  -0.2222222   0.6666667   0.0000000), wk =   0.0658436
        k(   30) = (   0.6666667  -0.2222222   0.8888889), wk =   0.1316872
        k(   31) = (   0.5555556  -0.1111111   0.7777778), wk =   0.1316872
        k(   32) = (   0.4444444   0.0000000   0.6666667), wk =   0.0658436
        k(   33) = (   0.7777778  -0.1111111   1.0000000), wk =   0.0658436
        k(   34) = (   0.6666667  -0.0000000   0.8888889), wk =   0.0658436
        k(   35) = (   0.5555556  -0.1111111   1.0000000), wk =   0.0658436

     Dense  grid:     2975 G-vectors     FFT dimensions: (  24,  24,  24)

     Estimated max dynamical RAM per process >       3.97 MB

     Estimated total dynamical RAM >      19.83 MB

     Check: negative/imaginary core charge=   -0.000034    0.000000

     Initial potential from superposition of free atoms

     starting charge   17.99977, renormalised to   18.00000
     Starting wfcs are   10 randomized atomic wfcs +    3 random wfcs
     Checking if some PAW data can be deallocated... 

     total cpu time spent up to now is        1.2 secs

     Self-consistent Calculation

     iteration #  1     ecut=    45.00 Ry     beta= 0.70
     Davidson diagonalization with overlap
     ethr =  1.00E-02,  avg # of iterations =  4.0

     Threshold (ethr) on eigenvalues was too large:
     Diagonalizing with lowered threshold

     Davidson diagonalization with overlap
     ethr =  3.37E-05,  avg # of iterations =  1.9

     total cpu time spent up to now is        1.8 secs

     total energy              =    -426.40965197 Ry
     Harris-Foulkes estimate   =    -426.41186766 Ry
     estimated scf accuracy    <       0.00627341 Ry

     iteration #  2     ecut=    45.00 Ry     beta= 0.70
     Davidson diagonalization with overlap
     ethr =  3.49E-05,  avg # of iterations =  2.0

     total cpu time spent up to now is        2.2 secs

     total energy              =    -426.40913296 Ry
     Harris-Foulkes estimate   =    -426.41072612 Ry
     estimated scf accuracy    <       0.00253899 Ry

     iteration #  3     ecut=    45.00 Ry     beta= 0.70
     Davidson diagonalization with overlap
     ethr =  1.41E-05,  avg # of iterations =  2.2

     total cpu time spent up to now is        2.6 secs

     total energy              =    -426.40965969 Ry
     Harris-Foulkes estimate   =    -426.41117308 Ry
     estimated scf accuracy    <       0.00465039 Ry

     iteration #  4     ecut=    45.00 Ry     beta= 0.70
     Davidson diagonalization with overlap
     ethr =  1.41E-05,  avg # of iterations =  2.0

     total cpu time spent up to now is        3.0 secs

     total energy              =    -426.41032526 Ry
     Harris-Foulkes estimate   =    -426.41032376 Ry
     estimated scf accuracy    <       0.00000464 Ry

     iteration #  5     ecut=    45.00 Ry     beta= 0.70
     Davidson diagonalization with overlap
     ethr =  2.58E-08,  avg # of iterations =  2.7

     total cpu time spent up to now is        3.3 secs

     total energy              =    -426.41032807 Ry
     Harris-Foulkes estimate   =    -426.41032812 Ry
     estimated scf accuracy    <       0.00000016 Ry

     iteration #  6     ecut=    45.00 Ry     beta= 0.70
     Davidson diagonalization with overlap
     ethr =  9.08E-10,  avg # of iterations =  2.0

     total cpu time spent up to now is        3.7 secs

     End of self-consistent calculation

          k = 0.0000 0.0000 0.0000 (   339 PWs)   bands (ev):

   -85.2901 -45.3531 -45.3531 -45.3531   8.7441  15.7911  15.7911  15.7911
    16.9529  16.9529  41.2690  45.1925  45.1925

          k =-0.1111 0.1111-0.1111 (   362 PWs)   bands (ev):

   -85.2865 -45.5120 -45.4370 -45.4370   9.1975  15.6392  15.8576  15.8576
    16.8207  16.8207  39.0430  42.4692  44.2382

          k =-0.2222 0.2222-0.2222 (   362 PWs)   bands (ev):

   -85.2763 -45.5705 -45.4501 -45.4501  10.5302  15.4054  15.9843  15.9843
    16.8680  16.8680  33.5320  41.6422  43.1598

          k =-0.3333 0.3333-0.3333 (   359 PWs)   bands (ev):

   -85.2645 -45.6250 -45.4422 -45.4422  12.2469  15.5858  15.8855  15.8855
    17.2307  17.2307  28.3363  40.6070  42.5387

          k =-0.4444 0.4444-0.4444 (   374 PWs)   bands (ev):

   -85.2571 -45.7778 -45.4835 -45.4835  13.1090  15.7412  15.7412  16.8855
    17.5042  17.5042  24.3532  39.8808  42.3186

          k = 0.0000 0.2222 0.0000 (   359 PWs)   bands (ev):

   -85.2851 -45.5279 -45.4136 -45.4136   9.3581  15.5558  15.9085  15.9085
    16.6689  16.9973  40.1615  41.7828  41.7828

          k =-0.1111 0.3333-0.1111 (   364 PWs)   bands (ev):

   -85.2771 -45.5509 -45.4959 -45.4370  10.3973  15.2780  16.0366  16.1146
    16.5916  17.0517  35.6881  40.0721  40.3920

          k =-0.2222 0.4444-0.2222 (   375 PWs)   bands (ev):

   -85.2660 -45.6618 -45.5275 -45.5004  12.0231  15.1133  15.7982  16.0830
    17.1477  17.3064  30.2495  39.1753  39.3508

          k =-0.3333 0.5556-0.3333 (   373 PWs)   bands (ev):

   -85.2570 -45.7194 -45.5289 -45.4899  13.2265  15.4564  15.8065  15.9463
    17.5635  18.2446  25.6510  38.0979  39.2131

          k = 0.5556-0.3333 0.5556 (   370 PWs)   bands (ev):

   -85.2544 -45.7429 -45.5019 -45.4734  13.4364  15.4924  15.8811  16.1965
    17.5156  19.1368  23.8278  36.9806  40.3218

          k = 0.4444-0.2222 0.4444 (   372 PWs)   bands (ev):

   -85.2595 -45.6931 -45.5248 -45.4818  12.9725  15.4962  15.6771  15.9478
    17.1242  18.1015  27.0539  36.4929  41.6072

          k = 0.3333-0.1111 0.3333 (   372 PWs)   bands (ev):

   -85.2699 -45.6420 -45.5079 -45.4806  11.4654  15.1905  15.9047  16.1027
    16.6404  17.3803  32.0151  36.7783  43.4767

          k = 0.2222-0.0000 0.2222 (   367 PWs)   bands (ev):

   -85.2806 -45.5398 -45.4887 -45.4690   9.9556  15.4132  15.9845  15.9852
    16.6024  16.9965  37.1864  38.1961  44.4701

          k = 0.0000 0.4444 0.0000 (   367 PWs)   bands (ev):

   -85.2716 -45.5635 -45.4911 -45.4911  11.0805  14.9650  16.2308  16.4383
    16.4383  17.1442  37.7773  37.7773  38.6989

          k =-0.1111 0.5556-0.1111 (   370 PWs)   bands (ev):

   -85.2625 -45.6236 -45.5172 -45.4988  12.3583  14.6835  15.9188  16.5931
    17.1923  17.3758  32.7965  36.4172  36.6140

          k =-0.2222 0.6667-0.2222 (   379 PWs)   bands (ev):

   -85.2542 -45.6991 -45.5727 -45.5446  13.5398  14.6541  15.6519  16.4659
    17.5928  18.7923  27.8104  34.2703  36.1606

          k = 0.6667-0.2222 0.6667 (   376 PWs)   bands (ev):

   -85.2503 -45.7162 -45.5868 -45.5203  14.0150  14.8015  15.6251  16.3454
    17.5301  21.1234  24.1564  32.4911  37.1151

          k = 0.5556-0.1111 0.5556 (   381 PWs)   bands (ev):

   -85.2529 -45.7270 -45.5989 -45.5347  13.9425  15.0678  15.3081  16.2945
    17.1028  19.8864  26.3699  31.5265  39.1827

          k = 0.4444 0.0000 0.4444 (   367 PWs)   bands (ev):

   -85.2603 -45.5985 -45.5460 -45.4857  12.9331  15.0277  15.5687  16.3709
    16.6178  18.3621  30.7258  31.8810  42.0997

          k = 0.0000 0.6667 0.0000 (   379 PWs)   bands (ev):

   -85.2563 -45.7089 -45.5377 -45.5377  12.9143  14.3496  16.6981  17.1022
    17.1022  17.3866  33.3041  34.5514  34.5514

          k =-0.1111 0.7778-0.1111 (   379 PWs)   bands (ev):

   -85.2499 -45.7367 -45.5667 -45.5364  13.4378  14.1980  16.5510  17.1571
    17.6134  18.9144  30.4016  31.0240  33.8607

          k = 0.7778-0.1111 0.7778 (   379 PWs)   bands (ev):

   -85.2466 -45.6974 -45.6344 -45.5506  13.9272  14.2834  16.0449  16.9817
    17.5706  21.9035  26.2830  28.8980  34.5156

          k = 0.6667-0.0000 0.6667 (   383 PWs)   bands (ev):

   -85.2478 -45.6976 -45.6789 -45.5513  14.3847  14.5053  15.4448  16.6996
    17.2818  22.5634  25.2137  28.3960  36.3988

          k = 0.0000 0.8889 0.0000 (   379 PWs)   bands (ev):

   -85.2463 -45.7099 -45.5786 -45.5786  13.3154  13.9636  17.5260  17.6528
    17.6528  19.3070  28.1663  32.6807  32.6807

          k = 0.8889 0.0000 0.8889 (   371 PWs)   bands (ev):

   -85.2448 -45.7170 -45.5476 -45.5287  13.4914  14.0336  17.0852  17.4516
    17.6878  21.0291  27.1855  29.9670  32.9202

          k =-0.2222 0.4444 0.0000 (   372 PWs)   bands (ev):

   -85.2685 -45.6129 -45.5160 -45.5037  11.6029  14.9909  15.8514  16.4327
    16.5881  17.4195  34.0972  34.8440  40.5401

          k =-0.3333 0.5556-0.1111 (   378 PWs)   bands (ev):

   -85.2588 -45.6836 -45.5631 -45.5240  13.1077  14.9082  15.4997  16.3711
    17.0635  18.2996  29.1599  34.0083  37.9517

          k = 0.5556-0.3333 0.7778 (   376 PWs)   bands (ev):

   -85.2524 -45.7228 -45.5674 -45.5198  13.8397  15.0343  15.5616  16.2246
    17.4495  20.0430  24.8836  34.2854  35.9817

          k =-0.2222 0.6667 0.0000 (   375 PWs)   bands (ev):

   -85.2548 -45.6772 -45.5419 -45.5309  13.3310  14.4996  15.7733  17.0888
    17.1105  18.3999  31.5955  32.2538  34.1084

          k = 0.6667-0.2222 0.8889 (   374 PWs)   bands (ev):

   -85.2489 -45.6830 -45.5871 -45.5275  14.0310  14.5209  15.5351  16.8380
    17.5100  20.6409  27.1838  31.4150  32.4669

          k = 0.5556-0.1111 0.7778 (   378 PWs)   bands (ev):

   -85.2477 -45.6949 -45.6202 -45.5549  14.4724  14.5183  15.3094  16.6313
    17.4571  22.6715  24.5988  30.0264  33.4361

          k = 0.4444 0.0000 0.6667 (   377 PWs)   bands (ev):

   -85.2514 -45.6898 -45.6032 -45.5224  14.1605  14.8924  15.0268  16.6408
    17.1394  20.0965  28.0924  29.8671  35.3849

          k = 0.7778-0.1111 1.0000 (   369 PWs)   bands (ev):

   -85.2459 -45.6875 -45.5452 -45.5251  13.6634  14.1879  16.4583  17.3276
    17.6603  20.9175  28.4067  30.0778  31.1018

          k = 0.6667-0.0000 0.8889 (   380 PWs)   bands (ev):

   -85.2453 -45.6934 -45.6453 -45.5759  14.0077  14.3803  15.8255  16.9693
    17.6486  23.3765  26.2131  27.8144  31.6248

          k = 0.5556-0.1111 1.0000 (   385 PWs)   bands (ev):

   -85.2458 -45.6914 -45.6574 -45.6158  14.2216  14.7615  15.1551  16.7840
    17.6393  23.4051  26.5160  28.6022  29.8562

     the Fermi energy is    17.5679 ev

!    total energy              =    -426.41032811 Ry
     Harris-Foulkes estimate   =    -426.41032811 Ry
     estimated scf accuracy    <          4.1E-09 Ry

     total all-electron energy =     -3038.868673 Ry

     The total energy is the sum of the following terms:

     one-electron contribution =    -184.72110945 Ry
     hartree contribution      =     104.40882075 Ry
     xc contribution           =     -33.92043037 Ry
     ewald contribution        =    -223.38275378 Ry
     one-center paw contrib.   =     -88.79231753 Ry
     smearing contrib. (-TS)   =      -0.00253771 Ry

     convergence has been achieved in   6 iterations

     Forces acting on atoms (cartesian axes, Ry/au):

     atom    1 type  1   force =     0.00000000    0.00000000    0.00000000

     Total force =     0.000000     Total SCF correction =     0.000000


     Computing stress (Cartesian axis) and pressure

          total   stress  (Ry/bohr**3)                   (kbar)     P=-2488.18
  -0.01691430   0.00000000   0.00000000      -2488.18      0.00      0.00
   0.00000000  -0.01691430  -0.00000000          0.00  -2488.18     -0.00
   0.00000000  -0.00000000  -0.01691430          0.00     -0.00  -2488.18


     Writing output data file Ni.save/

     init_run     :      0.41s CPU      0.43s WALL (       1 calls)
     electrons    :      2.35s CPU      2.54s WALL (       1 calls)
     forces       :      0.02s CPU      0.03s WALL (       1 calls)
     stress       :      0.07s CPU      0.07s WALL (       1 calls)

     Called by init_run:
     wfcinit      :      0.11s CPU      0.12s WALL (       1 calls)
     potinit      :      0.12s CPU      0.14s WALL (       1 calls)
     hinit0       :      0.16s CPU      0.16s WALL (       1 calls)

     Called by electrons:
     c_bands      :      1.48s CPU      1.58s WALL (       7 calls)
     sum_band     :      0.27s CPU      0.29s WALL (       7 calls)
     v_of_rho     :      0.02s CPU      0.02s WALL (       7 calls)
     newd         :      0.02s CPU      0.02s WALL (       7 calls)
     PAW_pot      :      0.65s CPU      0.75s WALL (       7 calls)
     mix_rho      :      0.00s CPU      0.00s WALL (       7 calls)

     Called by c_bands:
     init_us_2    :      0.03s CPU      0.03s WALL (     595 calls)
     cegterg      :      1.44s CPU      1.53s WALL (     245 calls)

     Called by sum_band:
     sum_band:bec :      0.00s CPU      0.00s WALL (     245 calls)
     addusdens    :      0.02s CPU      0.02s WALL (       7 calls)

     Called by *egterg:
     h_psi        :      1.06s CPU      1.14s WALL (     868 calls)
     s_psi        :      0.03s CPU      0.03s WALL (     868 calls)
     g_psi        :      0.00s CPU      0.00s WALL (     588 calls)
     cdiaghg      :      0.26s CPU      0.27s WALL (     798 calls)

     Called by h_psi:
     h_psi:pot    :      1.06s CPU      1.14s WALL (     868 calls)
     h_psi:calbec :      0.05s CPU      0.05s WALL (     868 calls)
     vloc_psi     :      0.98s CPU      1.05s WALL (     868 calls)
     add_vuspsi   :      0.03s CPU      0.03s WALL (     868 calls)

     General routines
     calbec       :      0.07s CPU      0.08s WALL (    1288 calls)
     fft          :      0.02s CPU      0.02s WALL (     104 calls)
     ffts         :      0.00s CPU      0.00s WALL (       7 calls)
     fftw         :      1.09s CPU      1.17s WALL (   19621 calls)

     Parallel routines
     fft_scatt_xy :      0.10s CPU      0.11s WALL (   19732 calls)
     fft_scatt_yz :      0.29s CPU      0.31s WALL (   19732 calls)

     PWSCF        :     3.61s CPU         3.88s WALL


   This run was terminated on:  22:37:55  26Mar2024            

=------------------------------------------------------------------------------=
   JOB DONE.
=------------------------------------------------------------------------------=
