
     Program PWSCF v.6.3MaX starts on 26Mar2024 at 22:19:15 

     This program is part of the open-source Quantum ESPRESSO suite
     for quantum simulation of materials; please cite
         "P. Giannozzi et al., J. Phys.:Condens. Matter 21 395502 (2009);
         "P. Giannozzi et al., J. Phys.:Condens. Matter 29 465901 (2017);
          URL http://www.quantum-espresso.org", 
     in publications or presentations arising from this work. More details at
     http://www.quantum-espresso.org/quote

     Parallel version (MPI), running on     5 processors

     MPI processes distributed on     1 nodes
     R & G space division:  proc/nbgrp/npool/nimage =       5
     Waiting for input...
     Reading input from standard input

     Current dimensions of program PWSCF are:
     Max number of different atomic species (ntypx) = 10
     Max number of k-points (npk) =  40000
     Max angular momentum in pseudopotentials (lmaxx) =  3
               file Ni.pbesol-spn-kjpaw_psl.1.0.0.UPF: wavefunction(s)  3P 3D renormalized

     Subspace diagonalization in iterative solution of the eigenvalue problem:
     a serial algorithm will be used


     Parallelization info
     --------------------
     sticks:   dense  smooth     PW     G-vecs:    dense   smooth      PW
     Min         119     119     37                 1967     1967     327
     Max         119     119     38                 1969     1969     329
     Sum         595     595    187                 9841     9841    1639



     bravais-lattice index     =            2
     lattice parameter (alat)  =       6.6500  a.u.
     unit-cell volume          =      73.5199 (a.u.)^3
     number of atoms/cell      =            1
     number of atomic types    =            1
     number of electrons       =        18.00
     number of Kohn-Sham states=           13
     kinetic-energy cutoff     =     100.0000  Ry
     charge density cutoff     =     400.0000  Ry
     convergence threshold     =      1.0E-08
     mixing beta               =       0.7000
     number of iterations used =            8  plain     mixing
     Exchange-correlation      = SLA PW PSX PSC ( 1  4 10  8 0 0)

     celldm(1)=   6.650000  celldm(2)=   0.000000  celldm(3)=   0.000000
     celldm(4)=   0.000000  celldm(5)=   0.000000  celldm(6)=   0.000000

     crystal axes: (cart. coord. in units of alat)
               a(1) = (  -0.500000   0.000000   0.500000 )  
               a(2) = (   0.000000   0.500000   0.500000 )  
               a(3) = (  -0.500000   0.500000   0.000000 )  

     reciprocal axes: (cart. coord. in units 2 pi/alat)
               b(1) = ( -1.000000 -1.000000  1.000000 )  
               b(2) = (  1.000000  1.000000  1.000000 )  
               b(3) = ( -1.000000  1.000000 -1.000000 )  


     PseudoPot. # 1 for Ni read from file:
     /home/lorenzo/pseudos/Ni/Ni.pbesol-spn-kjpaw_psl.1.0.0.UPF
     MD5 check sum: ef06ee83099c2673f0516457bd731f51
     Pseudo is Projector augmented-wave + core cor, Zval = 18.0
     Generated using "atomic" code by A. Dal Corso v.6.3
     Shape of augmentation charge: PSQ
     Using radial grid of 1195 points,  6 beta functions with: 
                l(1) =   0
                l(2) =   0
                l(3) =   1
                l(4) =   1
                l(5) =   2
                l(6) =   2
     Q(r) pseudized with 0 coefficients 


     atomic species   valence    mass     pseudopotential
        Ni            18.00    58.69340     Ni( 1.00)

     48 Sym. Ops., with inversion, found



   Cartesian axes

     site n.     atom                  positions (alat units)
         1           Ni  tau(   1) = (   0.0000000   0.0000000   0.0000000  )

     number of k points=     3  gaussian smearing, width (Ry)=  0.0100
                       cart. coord. in units 2pi/alat
        k(    1) = (   0.0000000   0.0000000   0.0000000), wk =   0.2500000
        k(    2) = (   0.5000000  -0.5000000   0.5000000), wk =   1.0000000
        k(    3) = (   0.0000000  -1.0000000   0.0000000), wk =   0.7500000

     Dense  grid:     9841 G-vectors     FFT dimensions: (  30,  30,  30)

     Estimated max dynamical RAM per process >       9.19 MB

     Estimated total dynamical RAM >      45.96 MB

     Check: negative/imaginary core charge=   -0.000004    0.000000

     Initial potential from superposition of free atoms

     starting charge   17.99977, renormalised to   18.00000
     Starting wfcs are   10 randomized atomic wfcs +    3 random wfcs
     Checking if some PAW data can be deallocated... 

     total cpu time spent up to now is        1.1 secs

     Self-consistent Calculation

     iteration #  1     ecut=   100.00 Ry     beta= 0.70
     Davidson diagonalization with overlap
     ethr =  1.00E-02,  avg # of iterations =  5.7

     Threshold (ethr) on eigenvalues was too large:
     Diagonalizing with lowered threshold

     Davidson diagonalization with overlap
     ethr =  6.05E-05,  avg # of iterations =  3.0

     total cpu time spent up to now is        1.3 secs

     total energy              =    -426.38510745 Ry
     Harris-Foulkes estimate   =    -426.38921013 Ry
     estimated scf accuracy    <       0.01101891 Ry

     iteration #  2     ecut=   100.00 Ry     beta= 0.70
     Davidson diagonalization with overlap
     ethr =  6.12E-05,  avg # of iterations =  2.0

     total cpu time spent up to now is        1.5 secs

     total energy              =    -426.35538939 Ry
     Harris-Foulkes estimate   =    -426.40432954 Ry
     estimated scf accuracy    <       0.49033933 Ry

     iteration #  3     ecut=   100.00 Ry     beta= 0.70
     Davidson diagonalization with overlap
     ethr =  6.12E-05,  avg # of iterations =  2.3

     total cpu time spent up to now is        1.6 secs

     total energy              =    -426.38764856 Ry
     Harris-Foulkes estimate   =    -426.38819505 Ry
     estimated scf accuracy    <       0.00620627 Ry

     iteration #  4     ecut=   100.00 Ry     beta= 0.70
     Davidson diagonalization with overlap
     ethr =  3.45E-05,  avg # of iterations =  1.0

     total cpu time spent up to now is        1.8 secs

     total energy              =    -426.38739211 Ry
     Harris-Foulkes estimate   =    -426.38769687 Ry
     estimated scf accuracy    <       0.00417622 Ry

     iteration #  5     ecut=   100.00 Ry     beta= 0.70
     Davidson diagonalization with overlap
     ethr =  2.32E-05,  avg # of iterations =  1.0

     total cpu time spent up to now is        2.0 secs

     total energy              =    -426.38679804 Ry
     Harris-Foulkes estimate   =    -426.38741444 Ry
     estimated scf accuracy    <       0.00287049 Ry

     iteration #  6     ecut=   100.00 Ry     beta= 0.70
     Davidson diagonalization with overlap
     ethr =  1.59E-05,  avg # of iterations =  1.0

     total cpu time spent up to now is        2.1 secs

     total energy              =    -426.38700904 Ry
     Harris-Foulkes estimate   =    -426.38700556 Ry
     estimated scf accuracy    <       0.00000081 Ry

     iteration #  7     ecut=   100.00 Ry     beta= 0.70
     Davidson diagonalization with overlap
     ethr =  4.48E-09,  avg # of iterations =  3.3

     total cpu time spent up to now is        2.3 secs

     total energy              =    -426.38698633 Ry
     Harris-Foulkes estimate   =    -426.38703440 Ry
     estimated scf accuracy    <       0.00030271 Ry

     iteration #  8     ecut=   100.00 Ry     beta= 0.70
     Davidson diagonalization with overlap
     ethr =  4.48E-09,  avg # of iterations =  3.0

     total cpu time spent up to now is        2.5 secs

     total energy              =    -426.38700988 Ry
     Harris-Foulkes estimate   =    -426.38701189 Ry
     estimated scf accuracy    <       0.00000855 Ry

     iteration #  9     ecut=   100.00 Ry     beta= 0.70
     Davidson diagonalization with overlap
     ethr =  4.48E-09,  avg # of iterations =  2.3

     total cpu time spent up to now is        2.7 secs

     total energy              =    -426.38701053 Ry
     Harris-Foulkes estimate   =    -426.38701186 Ry
     estimated scf accuracy    <       0.00000794 Ry

     iteration # 10     ecut=   100.00 Ry     beta= 0.70
     Davidson diagonalization with overlap
     ethr =  4.48E-09,  avg # of iterations =  2.0

     total cpu time spent up to now is        2.8 secs

     total energy              =    -426.38701127 Ry
     Harris-Foulkes estimate   =    -426.38701142 Ry
     estimated scf accuracy    <       0.00000112 Ry

     iteration # 11     ecut=   100.00 Ry     beta= 0.70
     Davidson diagonalization with overlap
     ethr =  4.48E-09,  avg # of iterations =  1.0

     total cpu time spent up to now is        3.0 secs

     End of self-consistent calculation

          k = 0.0000 0.0000 0.0000 (  1243 PWs)   bands (ev):

   -85.4076 -45.8140 -45.8140 -45.8140   8.5841  15.4890  15.4890  15.4890
    16.6674  16.6674  41.2051  45.2241  45.2241

          k = 0.5000-0.5000 0.5000 (  1224 PWs)   bands (ev):

   -85.3734 -46.0356 -45.8460 -45.8460  12.9373  15.4901  15.4901  17.3299
    17.3621  17.3621  23.4393  39.8154  42.2619

          k = 0.0000-1.0000 0.0000 (  1234 PWs)   bands (ev):

   -85.3622 -46.0240 -45.8972 -45.8972  13.1679  13.6585  17.3952  17.5115
    17.5115  20.0231  26.9788  32.4264  32.4264

     the Fermi energy is    17.4889 ev

!    total energy              =    -426.38701134 Ry
     Harris-Foulkes estimate   =    -426.38701135 Ry
     estimated scf accuracy    <          6.9E-09 Ry

     total all-electron energy =     -3038.845356 Ry

     The total energy is the sum of the following terms:

     one-electron contribution =    -184.51270765 Ry
     hartree contribution      =     104.28984867 Ry
     xc contribution           =     -33.90958398 Ry
     ewald contribution        =    -223.38275369 Ry
     one-center paw contrib.   =     -88.86329382 Ry
     smearing contrib. (-TS)   =      -0.00852088 Ry

     convergence has been achieved in  11 iterations

     Forces acting on atoms (cartesian axes, Ry/au):

     atom    1 type  1   force =     0.00000000    0.00000000    0.00000000

     Total force =     0.000000     Total SCF correction =     0.000000


     Computing stress (Cartesian axis) and pressure

          total   stress  (Ry/bohr**3)                   (kbar)     P=  227.19
   0.00154440   0.00000000   0.00000000        227.19      0.00      0.00
   0.00000000   0.00154440  -0.00000000          0.00    227.19     -0.00
   0.00000000  -0.00000000   0.00154440          0.00     -0.00    227.19


     Writing output data file Ni.save/

     init_run     :      0.31s CPU      0.34s WALL (       1 calls)
     electrons    :      1.85s CPU      1.96s WALL (       1 calls)
     forces       :      0.03s CPU      0.03s WALL (       1 calls)
     stress       :      0.10s CPU      0.10s WALL (       1 calls)

     Called by init_run:
     wfcinit      :      0.01s CPU      0.02s WALL (       1 calls)
     potinit      :      0.10s CPU      0.11s WALL (       1 calls)
     hinit0       :      0.17s CPU      0.18s WALL (       1 calls)

     Called by electrons:
     c_bands      :      0.47s CPU      0.48s WALL (      12 calls)
     sum_band     :      0.21s CPU      0.22s WALL (      12 calls)
     v_of_rho     :      0.07s CPU      0.07s WALL (      12 calls)
     newd         :      0.11s CPU      0.14s WALL (      12 calls)
     PAW_pot      :      1.07s CPU      1.15s WALL (      12 calls)
     mix_rho      :      0.01s CPU      0.01s WALL (      12 calls)

     Called by c_bands:
     init_us_2    :      0.02s CPU      0.02s WALL (      81 calls)
     cegterg      :      0.45s CPU      0.46s WALL (      36 calls)

     Called by sum_band:
     sum_band:bec :      0.00s CPU      0.00s WALL (      36 calls)
     addusdens    :      0.11s CPU      0.11s WALL (      12 calls)

     Called by *egterg:
     h_psi        :      0.33s CPU      0.34s WALL (     122 calls)
     s_psi        :      0.01s CPU      0.01s WALL (     122 calls)
     g_psi        :      0.00s CPU      0.00s WALL (      83 calls)
     cdiaghg      :      0.04s CPU      0.04s WALL (     116 calls)

     Called by h_psi:
     h_psi:pot    :      0.33s CPU      0.34s WALL (     122 calls)
     h_psi:calbec :      0.02s CPU      0.02s WALL (     122 calls)
     vloc_psi     :      0.30s CPU      0.31s WALL (     122 calls)
     add_vuspsi   :      0.01s CPU      0.01s WALL (     122 calls)

     General routines
     calbec       :      0.02s CPU      0.02s WALL (     173 calls)
     fft          :      0.04s CPU      0.04s WALL (     159 calls)
     ffts         :      0.00s CPU      0.00s WALL (      12 calls)
     fftw         :      0.34s CPU      0.35s WALL (    2814 calls)

     Parallel routines
     fft_scatt_xy :      0.03s CPU      0.03s WALL (    2985 calls)
     fft_scatt_yz :      0.11s CPU      0.11s WALL (    2985 calls)

     PWSCF        :     3.01s CPU         3.19s WALL


   This run was terminated on:  22:19:18  26Mar2024            

=------------------------------------------------------------------------------=
   JOB DONE.
=------------------------------------------------------------------------------=
