
     Program PWSCF v.6.3MaX starts on 26Mar2024 at 22:49:14 

     This program is part of the open-source Quantum ESPRESSO suite
     for quantum simulation of materials; please cite
         "P. Giannozzi et al., J. Phys.:Condens. Matter 21 395502 (2009);
         "P. Giannozzi et al., J. Phys.:Condens. Matter 29 465901 (2017);
          URL http://www.quantum-espresso.org", 
     in publications or presentations arising from this work. More details at
     http://www.quantum-espresso.org/quote

     Parallel version (MPI), running on     5 processors

     MPI processes distributed on     1 nodes
     R & G space division:  proc/nbgrp/npool/nimage =       5
     Waiting for input...
     Reading input from standard input

     Current dimensions of program PWSCF are:
     Max number of different atomic species (ntypx) = 10
     Max number of k-points (npk) =  40000
     Max angular momentum in pseudopotentials (lmaxx) =  3

     Subspace diagonalization in iterative solution of the eigenvalue problem:
     a serial algorithm will be used


     Parallelization info
     --------------------
     sticks:   dense  smooth     PW     G-vecs:    dense   smooth      PW
     Min          85      85     25                 1163     1163     192
     Max          87      87     26                 1164     1164     195
     Sum         433     433    127                 5817     5817     965



     bravais-lattice index     =            2
     lattice parameter (alat)  =       6.6500  a.u.
     unit-cell volume          =      73.5199 (a.u.)^3
     number of atoms/cell      =            1
     number of atomic types    =            1
     number of electrons       =        18.00
     number of Kohn-Sham states=           13
     kinetic-energy cutoff     =      70.0000  Ry
     charge density cutoff     =     280.0000  Ry
     convergence threshold     =      1.0E-08
     mixing beta               =       0.7000
     number of iterations used =            8  plain     mixing
     Exchange-correlation      = PBESOL ( 1  4 10  8 0 0)

     celldm(1)=   6.650000  celldm(2)=   0.000000  celldm(3)=   0.000000
     celldm(4)=   0.000000  celldm(5)=   0.000000  celldm(6)=   0.000000

     crystal axes: (cart. coord. in units of alat)
               a(1) = (  -0.500000   0.000000   0.500000 )  
               a(2) = (   0.000000   0.500000   0.500000 )  
               a(3) = (  -0.500000   0.500000   0.000000 )  

     reciprocal axes: (cart. coord. in units 2 pi/alat)
               b(1) = ( -1.000000 -1.000000  1.000000 )  
               b(2) = (  1.000000  1.000000  1.000000 )  
               b(3) = ( -1.000000  1.000000 -1.000000 )  


     PseudoPot. # 1 for Ni read from file:
     /home/lorenzo/pseudos/Ni/Ni.pbesol-spn-rrkjus_psl.1.0.0.UPF
     MD5 check sum: 6fc0a587bf949a08f2faed986b854013
     Pseudo is Ultrasoft + core correction, Zval = 18.0
     Generated using "atomic" code by A. Dal Corso v.6.3
     Using radial grid of 1195 points,  6 beta functions with: 
                l(1) =   0
                l(2) =   0
                l(3) =   1
                l(4) =   1
                l(5) =   2
                l(6) =   2
     Q(r) pseudized with 0 coefficients 


     atomic species   valence    mass     pseudopotential
        Ni            18.00    58.69340     Ni( 1.00)

     48 Sym. Ops., with inversion, found



   Cartesian axes

     site n.     atom                  positions (alat units)
         1           Ni  tau(   1) = (   0.0000000   0.0000000   0.0000000  )

     number of k points=     3  gaussian smearing, width (Ry)=  0.0100
                       cart. coord. in units 2pi/alat
        k(    1) = (   0.0000000   0.0000000   0.0000000), wk =   0.2500000
        k(    2) = (   0.5000000  -0.5000000   0.5000000), wk =   1.0000000
        k(    3) = (   0.0000000  -1.0000000   0.0000000), wk =   0.7500000

     Dense  grid:     5817 G-vectors     FFT dimensions: (  25,  25,  25)

     Estimated max dynamical RAM per process >       5.85 MB

     Estimated total dynamical RAM >      29.23 MB

     Check: negative/imaginary core charge=   -0.000011    0.000000

     Initial potential from superposition of free atoms

     starting charge   17.99977, renormalised to   18.00000
     Starting wfcs are   10 randomized atomic wfcs +    3 random wfcs

     total cpu time spent up to now is        0.9 secs

     Self-consistent Calculation

     iteration #  1     ecut=    70.00 Ry     beta= 0.70
     Davidson diagonalization with overlap
     ethr =  1.00E-02,  avg # of iterations =  4.7

     Threshold (ethr) on eigenvalues was too large:
     Diagonalizing with lowered threshold

     Davidson diagonalization with overlap
     ethr =  6.05E-05,  avg # of iterations =  3.7

     total cpu time spent up to now is        1.0 secs

     total energy              =    -339.19709606 Ry
     Harris-Foulkes estimate   =    -339.20110947 Ry
     estimated scf accuracy    <       0.01116254 Ry

     iteration #  2     ecut=    70.00 Ry     beta= 0.70
     Davidson diagonalization with overlap
     ethr =  6.20E-05,  avg # of iterations =  3.0

     total cpu time spent up to now is        1.0 secs

     total energy              =    -339.16693553 Ry
     Harris-Foulkes estimate   =    -339.21628091 Ry
     estimated scf accuracy    <       0.49059272 Ry

     iteration #  3     ecut=    70.00 Ry     beta= 0.70
     Davidson diagonalization with overlap
     ethr =  6.20E-05,  avg # of iterations =  2.3

     total cpu time spent up to now is        1.1 secs

     total energy              =    -339.19967246 Ry
     Harris-Foulkes estimate   =    -339.20023796 Ry
     estimated scf accuracy    <       0.00639587 Ry

     iteration #  4     ecut=    70.00 Ry     beta= 0.70
     Davidson diagonalization with overlap
     ethr =  3.55E-05,  avg # of iterations =  1.0

     total cpu time spent up to now is        1.1 secs

     total energy              =    -339.19942004 Ry
     Harris-Foulkes estimate   =    -339.19972696 Ry
     estimated scf accuracy    <       0.00426145 Ry

     iteration #  5     ecut=    70.00 Ry     beta= 0.70
     Davidson diagonalization with overlap
     ethr =  2.37E-05,  avg # of iterations =  1.0

     total cpu time spent up to now is        1.2 secs

     total energy              =    -339.19885588 Ry
     Harris-Foulkes estimate   =    -339.19944196 Ry
     estimated scf accuracy    <       0.00297655 Ry

     iteration #  6     ecut=    70.00 Ry     beta= 0.70
     Davidson diagonalization with overlap
     ethr =  1.65E-05,  avg # of iterations =  1.0

     total cpu time spent up to now is        1.2 secs

     total energy              =    -339.19902323 Ry
     Harris-Foulkes estimate   =    -339.19901719 Ry
     estimated scf accuracy    <       0.00010431 Ry

     iteration #  7     ecut=    70.00 Ry     beta= 0.70
     Davidson diagonalization with overlap
     ethr =  5.79E-07,  avg # of iterations =  2.0

     total cpu time spent up to now is        1.2 secs

     total energy              =    -339.19900607 Ry
     Harris-Foulkes estimate   =    -339.19902834 Ry
     estimated scf accuracy    <       0.00019186 Ry

     iteration #  8     ecut=    70.00 Ry     beta= 0.70
     Davidson diagonalization with overlap
     ethr =  5.79E-07,  avg # of iterations =  1.0

     total cpu time spent up to now is        1.3 secs

     total energy              =    -339.19901346 Ry
     Harris-Foulkes estimate   =    -339.19901502 Ry
     estimated scf accuracy    <       0.00000474 Ry

     iteration #  9     ecut=    70.00 Ry     beta= 0.70
     Davidson diagonalization with overlap
     ethr =  2.63E-08,  avg # of iterations =  2.0

     total cpu time spent up to now is        1.3 secs

     total energy              =    -339.19901324 Ry
     Harris-Foulkes estimate   =    -339.19901621 Ry
     estimated scf accuracy    <       0.00001959 Ry

     iteration # 10     ecut=    70.00 Ry     beta= 0.70
     Davidson diagonalization with overlap
     ethr =  2.63E-08,  avg # of iterations =  1.3

     total cpu time spent up to now is        1.4 secs

     total energy              =    -339.19901509 Ry
     Harris-Foulkes estimate   =    -339.19901506 Ry
     estimated scf accuracy    <       0.00000123 Ry

     iteration # 11     ecut=    70.00 Ry     beta= 0.70
     Davidson diagonalization with overlap
     ethr =  6.81E-09,  avg # of iterations =  1.0

     total cpu time spent up to now is        1.4 secs

     total energy              =    -339.19901498 Ry
     Harris-Foulkes estimate   =    -339.19901511 Ry
     estimated scf accuracy    <       0.00000176 Ry

     iteration # 12     ecut=    70.00 Ry     beta= 0.70
     Davidson diagonalization with overlap
     ethr =  6.81E-09,  avg # of iterations =  1.0

     total cpu time spent up to now is        1.5 secs

     total energy              =    -339.19901496 Ry
     Harris-Foulkes estimate   =    -339.19901501 Ry
     estimated scf accuracy    <       0.00000033 Ry

     iteration # 13     ecut=    70.00 Ry     beta= 0.70
     Davidson diagonalization with overlap
     ethr =  1.85E-09,  avg # of iterations =  1.0

     total cpu time spent up to now is        1.5 secs

     total energy              =    -339.19901498 Ry
     Harris-Foulkes estimate   =    -339.19901500 Ry
     estimated scf accuracy    <       0.00000005 Ry

     iteration # 14     ecut=    70.00 Ry     beta= 0.70
     Davidson diagonalization with overlap
     ethr =  2.53E-10,  avg # of iterations =  2.0

     total cpu time spent up to now is        1.6 secs

     total energy              =    -339.19901498 Ry
     Harris-Foulkes estimate   =    -339.19901502 Ry
     estimated scf accuracy    <       0.00000032 Ry

     iteration # 15     ecut=    70.00 Ry     beta= 0.70
     Davidson diagonalization with overlap
     ethr =  2.53E-10,  avg # of iterations =  1.3

     total cpu time spent up to now is        1.6 secs

     End of self-consistent calculation

          k = 0.0000 0.0000 0.0000 (   725 PWs)   bands (ev):

   -85.4186 -45.8116 -45.8116 -45.8116   8.5885  15.4944  15.4944  15.4944
    16.6706  16.6706  41.2073  45.2299  45.2299

          k = 0.5000-0.5000 0.5000 (   718 PWs)   bands (ev):

   -85.3843 -46.0328 -45.8438 -45.8438  12.9424  15.4939  15.4939  17.3349
    17.3674  17.3674  23.4476  39.8186  42.2687

          k = 0.0000-1.0000 0.0000 (   740 PWs)   bands (ev):

   -85.3736 -46.0214 -45.8953 -45.8953  13.1709  13.6626  17.3978  17.5175
    17.5175  20.0279  26.9856  32.4317  32.4317

     the Fermi energy is    17.4941 ev

!    total energy              =    -339.19901499 Ry
     Harris-Foulkes estimate   =    -339.19901500 Ry
     estimated scf accuracy    <          1.5E-09 Ry

     The total energy is the sum of the following terms:

     one-electron contribution =    -186.17501562 Ry
     hartree contribution      =     104.27076903 Ry
     xc contribution           =     -33.90353586 Ry
     ewald contribution        =    -223.38275369 Ry
     smearing contrib. (-TS)   =      -0.00847886 Ry

     convergence has been achieved in  15 iterations

     Forces acting on atoms (cartesian axes, Ry/au):

     atom    1 type  1   force =     0.00000000    0.00000000    0.00000000

     Total force =     0.000000     Total SCF correction =     0.000000


     Computing stress (Cartesian axis) and pressure

          total   stress  (Ry/bohr**3)                   (kbar)     P=  191.97
   0.00130495   0.00000000  -0.00000000        191.97      0.00     -0.00
   0.00000000   0.00130495  -0.00000000          0.00    191.97     -0.00
  -0.00000000   0.00000000   0.00130495         -0.00      0.00    191.97


     Writing output data file Ni.save/

     init_run     :      0.18s CPU      0.19s WALL (       1 calls)
     electrons    :      0.67s CPU      0.71s WALL (       1 calls)
     forces       :      0.03s CPU      0.03s WALL (       1 calls)
     stress       :      0.06s CPU      0.06s WALL (       1 calls)

     Called by init_run:
     wfcinit      :      0.01s CPU      0.01s WALL (       1 calls)
     potinit      :      0.01s CPU      0.01s WALL (       1 calls)
     hinit0       :      0.15s CPU      0.15s WALL (       1 calls)

     Called by electrons:
     c_bands      :      0.35s CPU      0.37s WALL (      16 calls)
     sum_band     :      0.18s CPU      0.19s WALL (      16 calls)
     v_of_rho     :      0.05s CPU      0.05s WALL (      16 calls)
     newd         :      0.09s CPU      0.10s WALL (      16 calls)
     mix_rho      :      0.01s CPU      0.01s WALL (      16 calls)

     Called by c_bands:
     init_us_2    :      0.01s CPU      0.01s WALL (     105 calls)
     cegterg      :      0.33s CPU      0.35s WALL (      48 calls)

     Called by sum_band:
     sum_band:bec :      0.00s CPU      0.00s WALL (      48 calls)
     addusdens    :      0.09s CPU      0.09s WALL (      16 calls)

     Called by *egterg:
     h_psi        :      0.25s CPU      0.27s WALL (     139 calls)
     s_psi        :      0.01s CPU      0.01s WALL (     139 calls)
     g_psi        :      0.00s CPU      0.00s WALL (      88 calls)
     cdiaghg      :      0.04s CPU      0.04s WALL (     133 calls)

     Called by h_psi:
     h_psi:pot    :      0.25s CPU      0.26s WALL (     139 calls)
     h_psi:calbec :      0.01s CPU      0.01s WALL (     139 calls)
     vloc_psi     :      0.23s CPU      0.24s WALL (     139 calls)
     add_vuspsi   :      0.01s CPU      0.01s WALL (     139 calls)

     General routines
     calbec       :      0.02s CPU      0.02s WALL (     202 calls)
     fft          :      0.04s CPU      0.04s WALL (     203 calls)
     ffts         :      0.00s CPU      0.00s WALL (      16 calls)
     fftw         :      0.26s CPU      0.28s WALL (    3422 calls)

     Parallel routines
     fft_scatt_xy :      0.02s CPU      0.03s WALL (    3641 calls)
     fft_scatt_yz :      0.09s CPU      0.10s WALL (    3641 calls)

     PWSCF        :     1.65s CPU         1.73s WALL


   This run was terminated on:  22:49:16  26Mar2024            

=------------------------------------------------------------------------------=
   JOB DONE.
=------------------------------------------------------------------------------=
