
     Program PWSCF v.6.3MaX starts on 26Mar2024 at 22:24:49 

     This program is part of the open-source Quantum ESPRESSO suite
     for quantum simulation of materials; please cite
         "P. Giannozzi et al., J. Phys.:Condens. Matter 21 395502 (2009);
         "P. Giannozzi et al., J. Phys.:Condens. Matter 29 465901 (2017);
          URL http://www.quantum-espresso.org", 
     in publications or presentations arising from this work. More details at
     http://www.quantum-espresso.org/quote

     Parallel version (MPI), running on     5 processors

     MPI processes distributed on     1 nodes
     R & G space division:  proc/nbgrp/npool/nimage =       5
     Waiting for input...
     Reading input from standard input

     Current dimensions of program PWSCF are:
     Max number of different atomic species (ntypx) = 10
     Max number of k-points (npk) =  40000
     Max angular momentum in pseudopotentials (lmaxx) =  3
               file Ni.pbesol-spn-kjpaw_psl.1.0.0.UPF: wavefunction(s)  3P 3D renormalized

     Subspace diagonalization in iterative solution of the eigenvalue problem:
     a serial algorithm will be used


     Parallelization info
     --------------------
     sticks:   dense  smooth     PW     G-vecs:    dense   smooth      PW
     Min          17      17      7                  112      112      33
     Max          19      19      8                  113      113      35
     Sum          91      91     37                  561      561     169



     bravais-lattice index     =            2
     lattice parameter (alat)  =       6.6500  a.u.
     unit-cell volume          =      73.5199 (a.u.)^3
     number of atoms/cell      =            1
     number of atomic types    =            1
     number of electrons       =        18.00
     number of Kohn-Sham states=           13
     kinetic-energy cutoff     =      15.0000  Ry
     charge density cutoff     =      60.0000  Ry
     convergence threshold     =      1.0E-08
     mixing beta               =       0.7000
     number of iterations used =            8  plain     mixing
     Exchange-correlation      = SLA PW PSX PSC ( 1  4 10  8 0 0)

     celldm(1)=   6.650000  celldm(2)=   0.000000  celldm(3)=   0.000000
     celldm(4)=   0.000000  celldm(5)=   0.000000  celldm(6)=   0.000000

     crystal axes: (cart. coord. in units of alat)
               a(1) = (  -0.500000   0.000000   0.500000 )  
               a(2) = (   0.000000   0.500000   0.500000 )  
               a(3) = (  -0.500000   0.500000   0.000000 )  

     reciprocal axes: (cart. coord. in units 2 pi/alat)
               b(1) = ( -1.000000 -1.000000  1.000000 )  
               b(2) = (  1.000000  1.000000  1.000000 )  
               b(3) = ( -1.000000  1.000000 -1.000000 )  


     PseudoPot. # 1 for Ni read from file:
     /home/lorenzo/pseudos/Ni/Ni.pbesol-spn-kjpaw_psl.1.0.0.UPF
     MD5 check sum: ef06ee83099c2673f0516457bd731f51
     Pseudo is Projector augmented-wave + core cor, Zval = 18.0
     Generated using "atomic" code by A. Dal Corso v.6.3
     Shape of augmentation charge: PSQ
     Using radial grid of 1195 points,  6 beta functions with: 
                l(1) =   0
                l(2) =   0
                l(3) =   1
                l(4) =   1
                l(5) =   2
                l(6) =   2
     Q(r) pseudized with 0 coefficients 


     atomic species   valence    mass     pseudopotential
        Ni            18.00    58.69340     Ni( 1.00)

     48 Sym. Ops., with inversion, found



   Cartesian axes

     site n.     atom                  positions (alat units)
         1           Ni  tau(   1) = (   0.0000000   0.0000000   0.0000000  )

     number of k points=    10  gaussian smearing, width (Ry)=  0.0100
                       cart. coord. in units 2pi/alat
        k(    1) = (   0.0000000   0.0000000   0.0000000), wk =   0.0160000
        k(    2) = (  -0.2000000   0.2000000  -0.2000000), wk =   0.1280000
        k(    3) = (  -0.4000000   0.4000000  -0.4000000), wk =   0.1280000
        k(    4) = (   0.0000000   0.4000000   0.0000000), wk =   0.0960000
        k(    5) = (  -0.2000000   0.6000000  -0.2000000), wk =   0.3840000
        k(    6) = (   0.6000000  -0.2000000   0.6000000), wk =   0.3840000
        k(    7) = (   0.4000000   0.0000000   0.4000000), wk =   0.1920000
        k(    8) = (   0.0000000   0.8000000   0.0000000), wk =   0.0960000
        k(    9) = (   0.8000000   0.0000000   0.8000000), wk =   0.1920000
        k(   10) = (   0.6000000  -0.2000000   1.0000000), wk =   0.3840000

     Dense  grid:      561 G-vectors     FFT dimensions: (  12,  12,  12)

     Estimated max dynamical RAM per process >       1.12 MB

     Estimated total dynamical RAM >       5.58 MB

     Check: negative/imaginary core charge=   -0.001444    0.000000

     Initial potential from superposition of free atoms
     Check: negative starting charge=   -0.123834

     starting charge   17.99977, renormalised to   18.00000

     negative rho (up, down):  1.238E-01 0.000E+00
     Starting wfcs are   10 randomized atomic wfcs +    3 random wfcs
     Checking if some PAW data can be deallocated... 

     total cpu time spent up to now is        0.9 secs

     Self-consistent Calculation

     iteration #  1     ecut=    15.00 Ry     beta= 0.70
     Davidson diagonalization with overlap
     ethr =  1.00E-02,  avg # of iterations =  3.3

     total cpu time spent up to now is        1.1 secs

     total energy              =    -358.02864367 Ry
     Harris-Foulkes estimate   =    -397.41156344 Ry
     estimated scf accuracy    <      46.23400829 Ry

     iteration #  2     ecut=    15.00 Ry     beta= 0.70
     Davidson diagonalization with overlap
     ethr =  1.00E-02,  avg # of iterations =  3.0

     total cpu time spent up to now is        1.2 secs

     total energy              =    -364.40636387 Ry
     Harris-Foulkes estimate   =    -365.62562913 Ry
     estimated scf accuracy    <       2.11863852 Ry

     iteration #  3     ecut=    15.00 Ry     beta= 0.70
     Davidson diagonalization with overlap
     ethr =  1.00E-02,  avg # of iterations =  1.2

     negative rho (up, down):  2.440E-03 0.000E+00

     total cpu time spent up to now is        1.4 secs

     total energy              =    -364.41752585 Ry
     Harris-Foulkes estimate   =    -364.49477309 Ry
     estimated scf accuracy    <       0.11995450 Ry

     iteration #  4     ecut=    15.00 Ry     beta= 0.70
     Davidson diagonalization with overlap
     ethr =  6.66E-04,  avg # of iterations =  1.0

     negative rho (up, down):  2.481E-03 0.000E+00

     total cpu time spent up to now is        1.5 secs

     total energy              =    -364.42170688 Ry
     Harris-Foulkes estimate   =    -364.42187689 Ry
     estimated scf accuracy    <       0.00046375 Ry

     iteration #  5     ecut=    15.00 Ry     beta= 0.70
     Davidson diagonalization with overlap
     ethr =  2.58E-06,  avg # of iterations =  2.3

     negative rho (up, down):  2.469E-03 0.000E+00

     total cpu time spent up to now is        1.6 secs

     total energy              =    -364.42178824 Ry
     Harris-Foulkes estimate   =    -364.42180388 Ry
     estimated scf accuracy    <       0.00003061 Ry

     iteration #  6     ecut=    15.00 Ry     beta= 0.70
     Davidson diagonalization with overlap
     ethr =  1.70E-07,  avg # of iterations =  1.7

     negative rho (up, down):  2.469E-03 0.000E+00

     total cpu time spent up to now is        1.8 secs

     total energy              =    -364.42179161 Ry
     Harris-Foulkes estimate   =    -364.42179168 Ry
     estimated scf accuracy    <       0.00000021 Ry

     iteration #  7     ecut=    15.00 Ry     beta= 0.70
     Davidson diagonalization with overlap
     ethr =  1.15E-09,  avg # of iterations =  1.9

     negative rho (up, down):  2.470E-03 0.000E+00

     total cpu time spent up to now is        1.9 secs

     End of self-consistent calculation

          k = 0.0000 0.0000 0.0000 (    65 PWs)   bands (ev):

  -168.0624 -47.3175 -47.3175 -47.3175  13.1318  34.3996  34.3996  34.7445
    34.7445  34.7445  47.9006  52.5860  52.5860

          k =-0.2000 0.2000-0.2000 (    65 PWs)   bands (ev):

  -167.5629 -51.0623 -44.7866 -44.7866  14.8229  29.8614  34.8038  34.8038
    37.1672  37.1672  46.7910  50.3756  56.8112

          k =-0.4000 0.4000-0.4000 (    73 PWs)   bands (ev):

  -169.7760 -61.6645 -52.6898 -52.6898  19.2014  25.5876  26.3515  26.3515
    32.9788  32.9788  39.1386  48.6914  48.6916

          k = 0.0000 0.4000 0.0000 (    72 PWs)   bands (ev):

  -169.2722 -54.2469 -53.6315 -53.6315  15.1032  30.2183  30.2183  30.9910
    31.2603  33.5705  48.0016  48.0016  49.7025

          k =-0.2000 0.6000-0.2000 (    75 PWs)   bands (ev):

  -170.1316 -65.0912 -55.1311 -52.5784  18.4645  25.5790  25.7622  28.8182
    31.6524  32.5308  37.8558  45.3502  45.5365

          k = 0.6000-0.2000 0.6000 (    77 PWs)   bands (ev):

  -170.4994 -61.9409 -60.9090 -55.9542  21.3810  24.5351  25.8025  27.6660
    28.4036  29.4124  34.7514  43.2644  45.8673

          k = 0.4000 0.0000 0.4000 (    71 PWs)   bands (ev):

  -169.0532 -60.5719 -53.1062 -46.0735  17.0426  26.4522  29.5776  31.2167
    33.0859  36.5671  41.1030  47.7199  50.9619

          k = 0.0000 0.8000 0.0000 (    76 PWs)   bands (ev):

  -170.2869 -65.8424 -55.4352 -55.4352  20.4765  25.2809  26.2151  26.2151
    28.6728  31.0593  38.8679  41.4366  41.4366

          k = 0.8000 0.0000 0.8000 (    71 PWs)   bands (ev):

  -168.4342 -56.5505 -51.4503 -49.5988  25.2763  26.2458  26.8200  30.1722
    33.6966  34.4224  36.8532  43.1000  45.0143

          k = 0.6000-0.2000 1.0000 (    74 PWs)   bands (ev):

  -169.3131 -58.4593 -57.0671 -51.9982  22.5689  26.0189  26.1166  29.4616
    29.8686  34.8822  38.5737  40.6065  45.9659

     the Fermi energy is    32.9364 ev

!    total energy              =    -364.42179165 Ry
     Harris-Foulkes estimate   =    -364.42179165 Ry
     estimated scf accuracy    <          5.9E-09 Ry

     total all-electron energy =     -2976.880136 Ry

     The total energy is the sum of the following terms:

     one-electron contribution =     -62.81560904 Ry
     hartree contribution      =      34.23568861 Ry
     xc contribution           =     -24.89323888 Ry
     ewald contribution        =    -223.38275371 Ry
     one-center paw contrib.   =     -87.56506099 Ry
     smearing contrib. (-TS)   =      -0.00081764 Ry

     convergence has been achieved in   7 iterations

     negative rho (up, down):  2.470E-03 0.000E+00

     Forces acting on atoms (cartesian axes, Ry/au):

     atom    1 type  1   force =     0.00000000    0.00000000    0.00000000

     Total force =     0.000000     Total SCF correction =     0.000000


     Computing stress (Cartesian axis) and pressure


     negative rho (up, down):  2.470E-03 0.000E+00
          total   stress  (Ry/bohr**3)                   (kbar)     P=********
  -0.94423623   0.00000000   0.00000000    -138901.92      0.00      0.00
   0.00000000  -0.94423623  -0.00000000          0.00-138901.92     -0.00
   0.00000000  -0.00000000  -0.94423623          0.00     -0.00-138901.92


     Writing output data file Ni.save/

     init_run     :      0.17s CPU      0.19s WALL (       1 calls)
     electrons    :      0.89s CPU      1.02s WALL (       1 calls)
     forces       :      0.01s CPU      0.01s WALL (       1 calls)
     stress       :      0.02s CPU      0.02s WALL (       1 calls)

     Called by init_run:
     wfcinit      :      0.01s CPU      0.01s WALL (       1 calls)
     potinit      :      0.09s CPU      0.11s WALL (       1 calls)
     hinit0       :      0.06s CPU      0.06s WALL (       1 calls)

     Called by electrons:
     c_bands      :      0.21s CPU      0.24s WALL (       7 calls)
     sum_band     :      0.03s CPU      0.04s WALL (       7 calls)
     v_of_rho     :      0.00s CPU      0.00s WALL (       8 calls)
     newd         :      0.01s CPU      0.01s WALL (       8 calls)
     PAW_pot      :      0.72s CPU      0.81s WALL (       8 calls)
     mix_rho      :      0.00s CPU      0.00s WALL (       7 calls)

     Called by c_bands:
     init_us_2    :      0.00s CPU      0.00s WALL (     170 calls)
     cegterg      :      0.21s CPU      0.24s WALL (      70 calls)

     Called by sum_band:
     sum_band:bec :      0.00s CPU      0.00s WALL (      70 calls)
     addusdens    :      0.00s CPU      0.00s WALL (       7 calls)

     Called by *egterg:
     h_psi        :      0.11s CPU      0.13s WALL (     224 calls)
     s_psi        :      0.00s CPU      0.00s WALL (     224 calls)
     g_psi        :      0.00s CPU      0.00s WALL (     144 calls)
     cdiaghg      :      0.08s CPU      0.08s WALL (     214 calls)

     Called by h_psi:
     h_psi:pot    :      0.11s CPU      0.13s WALL (     224 calls)
     h_psi:calbec :      0.01s CPU      0.01s WALL (     224 calls)
     vloc_psi     :      0.09s CPU      0.11s WALL (     224 calls)
     add_vuspsi   :      0.00s CPU      0.00s WALL (     224 calls)

     General routines
     calbec       :      0.01s CPU      0.01s WALL (     344 calls)
     fft          :      0.00s CPU      0.00s WALL (     114 calls)
     ffts         :      0.00s CPU      0.00s WALL (       7 calls)
     fftw         :      0.10s CPU      0.12s WALL (    5832 calls)

     Parallel routines
     fft_scatt_xy :      0.01s CPU      0.01s WALL (    5953 calls)
     fft_scatt_yz :      0.05s CPU      0.06s WALL (    5953 calls)

     PWSCF        :     1.81s CPU         2.01s WALL


   This run was terminated on:  22:24:51  26Mar2024            

=------------------------------------------------------------------------------=
   JOB DONE.
=------------------------------------------------------------------------------=
