
     Program PWSCF v.6.3MaX starts on 26Mar2024 at 23: 0:43 

     This program is part of the open-source Quantum ESPRESSO suite
     for quantum simulation of materials; please cite
         "P. Giannozzi et al., J. Phys.:Condens. Matter 21 395502 (2009);
         "P. Giannozzi et al., J. Phys.:Condens. Matter 29 465901 (2017);
          URL http://www.quantum-espresso.org", 
     in publications or presentations arising from this work. More details at
     http://www.quantum-espresso.org/quote

     Parallel version (MPI), running on     5 processors

     MPI processes distributed on     1 nodes
     R & G space division:  proc/nbgrp/npool/nimage =       5
     Waiting for input...
     Reading input from standard input

     Current dimensions of program PWSCF are:
     Max number of different atomic species (ntypx) = 10
     Max number of k-points (npk) =  40000
     Max angular momentum in pseudopotentials (lmaxx) =  3

     Subspace diagonalization in iterative solution of the eigenvalue problem:
     a serial algorithm will be used


     Parallelization info
     --------------------
     sticks:   dense  smooth     PW     G-vecs:    dense   smooth      PW
     Min         111     111     33                 1688     1688     294
     Max         112     112     35                 1689     1689     295
     Sum         559     559    169                 8441     8441    1471



     bravais-lattice index     =            2
     lattice parameter (alat)  =       6.6500  a.u.
     unit-cell volume          =      73.5199 (a.u.)^3
     number of atoms/cell      =            1
     number of atomic types    =            1
     number of electrons       =        18.00
     number of Kohn-Sham states=           13
     kinetic-energy cutoff     =      90.0000  Ry
     charge density cutoff     =     360.0000  Ry
     convergence threshold     =      1.0E-08
     mixing beta               =       0.7000
     number of iterations used =            8  plain     mixing
     Exchange-correlation      = PBE ( 1  4  3  4 0 0)

     celldm(1)=   6.650000  celldm(2)=   0.000000  celldm(3)=   0.000000
     celldm(4)=   0.000000  celldm(5)=   0.000000  celldm(6)=   0.000000

     crystal axes: (cart. coord. in units of alat)
               a(1) = (  -0.500000   0.000000   0.500000 )  
               a(2) = (   0.000000   0.500000   0.500000 )  
               a(3) = (  -0.500000   0.500000   0.000000 )  

     reciprocal axes: (cart. coord. in units 2 pi/alat)
               b(1) = ( -1.000000 -1.000000  1.000000 )  
               b(2) = (  1.000000  1.000000  1.000000 )  
               b(3) = ( -1.000000  1.000000 -1.000000 )  


     PseudoPot. # 1 for Ni read from file:
     /home/lorenzo/pseudos/Ni/Ni.pbe-spn-rrkjus_psl.1.0.0.UPF
     MD5 check sum: 8b3fc9aac6dafe35f580d41bb18c3945
     Pseudo is Ultrasoft + core correction, Zval = 18.0
     Generated using "atomic" code by A. Dal Corso v.6.3
     Using radial grid of 1195 points,  6 beta functions with: 
                l(1) =   0
                l(2) =   0
                l(3) =   1
                l(4) =   1
                l(5) =   2
                l(6) =   2
     Q(r) pseudized with 0 coefficients 


     atomic species   valence    mass     pseudopotential
        Ni            18.00    58.69340     Ni( 1.00)

     48 Sym. Ops., with inversion, found



   Cartesian axes

     site n.     atom                  positions (alat units)
         1           Ni  tau(   1) = (   0.0000000   0.0000000   0.0000000  )

     number of k points=    47  gaussian smearing, width (Ry)=  0.0100
                       cart. coord. in units 2pi/alat
        k(    1) = (   0.0000000   0.0000000   0.0000000), wk =   0.0020000
        k(    2) = (  -0.1000000   0.1000000  -0.1000000), wk =   0.0160000
        k(    3) = (  -0.2000000   0.2000000  -0.2000000), wk =   0.0160000
        k(    4) = (  -0.3000000   0.3000000  -0.3000000), wk =   0.0160000
        k(    5) = (  -0.4000000   0.4000000  -0.4000000), wk =   0.0160000
        k(    6) = (   0.5000000  -0.5000000   0.5000000), wk =   0.0080000
        k(    7) = (   0.0000000   0.2000000   0.0000000), wk =   0.0120000
        k(    8) = (  -0.1000000   0.3000000  -0.1000000), wk =   0.0480000
        k(    9) = (  -0.2000000   0.4000000  -0.2000000), wk =   0.0480000
        k(   10) = (  -0.3000000   0.5000000  -0.3000000), wk =   0.0480000
        k(   11) = (   0.6000000  -0.4000000   0.6000000), wk =   0.0480000
        k(   12) = (   0.5000000  -0.3000000   0.5000000), wk =   0.0480000
        k(   13) = (   0.4000000  -0.2000000   0.4000000), wk =   0.0480000
        k(   14) = (   0.3000000  -0.1000000   0.3000000), wk =   0.0480000
        k(   15) = (   0.2000000   0.0000000   0.2000000), wk =   0.0240000
        k(   16) = (   0.0000000   0.4000000   0.0000000), wk =   0.0120000
        k(   17) = (  -0.1000000   0.5000000  -0.1000000), wk =   0.0480000
        k(   18) = (  -0.2000000   0.6000000  -0.2000000), wk =   0.0480000
        k(   19) = (   0.7000000  -0.3000000   0.7000000), wk =   0.0480000
        k(   20) = (   0.6000000  -0.2000000   0.6000000), wk =   0.0480000
        k(   21) = (   0.5000000  -0.1000000   0.5000000), wk =   0.0480000
        k(   22) = (   0.4000000   0.0000000   0.4000000), wk =   0.0240000
        k(   23) = (   0.0000000   0.6000000   0.0000000), wk =   0.0120000
        k(   24) = (  -0.1000000   0.7000000  -0.1000000), wk =   0.0480000
        k(   25) = (   0.8000000  -0.2000000   0.8000000), wk =   0.0480000
        k(   26) = (   0.7000000  -0.1000000   0.7000000), wk =   0.0480000
        k(   27) = (   0.6000000  -0.0000000   0.6000000), wk =   0.0240000
        k(   28) = (   0.0000000   0.8000000   0.0000000), wk =   0.0120000
        k(   29) = (   0.9000000  -0.1000000   0.9000000), wk =   0.0480000
        k(   30) = (   0.8000000   0.0000000   0.8000000), wk =   0.0240000
        k(   31) = (   0.0000000  -1.0000000   0.0000000), wk =   0.0060000
        k(   32) = (  -0.2000000   0.4000000   0.0000000), wk =   0.0480000
        k(   33) = (  -0.3000000   0.5000000  -0.1000000), wk =   0.0960000
        k(   34) = (   0.6000000  -0.4000000   0.8000000), wk =   0.0960000
        k(   35) = (   0.5000000  -0.3000000   0.7000000), wk =   0.0480000
        k(   36) = (  -0.2000000   0.6000000   0.0000000), wk =   0.0480000
        k(   37) = (   0.7000000  -0.3000000   0.9000000), wk =   0.0960000
        k(   38) = (   0.6000000  -0.2000000   0.8000000), wk =   0.0960000
        k(   39) = (   0.5000000  -0.1000000   0.7000000), wk =   0.0960000
        k(   40) = (   0.4000000   0.0000000   0.6000000), wk =   0.0480000
        k(   41) = (   0.8000000  -0.2000000   1.0000000), wk =   0.0480000
        k(   42) = (   0.7000000  -0.1000000   0.9000000), wk =   0.0960000
        k(   43) = (   0.6000000   0.0000000   0.8000000), wk =   0.0480000
        k(   44) = (  -0.2000000  -1.0000000   0.0000000), wk =   0.0240000
        k(   45) = (   0.6000000  -0.2000000   1.0000000), wk =   0.0480000
        k(   46) = (   0.5000000  -0.1000000   0.9000000), wk =   0.0480000
        k(   47) = (  -0.4000000  -1.0000000   0.0000000), wk =   0.0240000

     Dense  grid:     8441 G-vectors     FFT dimensions: (  30,  30,  30)

     Estimated max dynamical RAM per process >       9.94 MB

     Estimated total dynamical RAM >      49.69 MB

     Check: negative/imaginary core charge=   -0.000002    0.000000

     Initial potential from superposition of free atoms

     starting charge   17.99975, renormalised to   18.00000
     Starting wfcs are   10 randomized atomic wfcs +    3 random wfcs

     total cpu time spent up to now is        1.1 secs

     Self-consistent Calculation

     iteration #  1     ecut=    90.00 Ry     beta= 0.70
     Davidson diagonalization with overlap
     ethr =  1.00E-02,  avg # of iterations =  3.6

     Threshold (ethr) on eigenvalues was too large:
     Diagonalizing with lowered threshold

     Davidson diagonalization with overlap
     ethr =  2.38E-05,  avg # of iterations =  2.7

     total cpu time spent up to now is        2.6 secs

     total energy              =    -339.60460398 Ry
     Harris-Foulkes estimate   =    -339.60727086 Ry
     estimated scf accuracy    <       0.00428467 Ry

     iteration #  2     ecut=    90.00 Ry     beta= 0.70
     Davidson diagonalization with overlap
     ethr =  2.38E-05,  avg # of iterations =  2.4

     total cpu time spent up to now is        3.3 secs

     total energy              =    -339.60369216 Ry
     Harris-Foulkes estimate   =    -339.60935816 Ry
     estimated scf accuracy    <       0.01576668 Ry

     iteration #  3     ecut=    90.00 Ry     beta= 0.70
     Davidson diagonalization with overlap
     ethr =  2.38E-05,  avg # of iterations =  2.1

     total cpu time spent up to now is        4.0 secs

     total energy              =    -339.60639804 Ry
     Harris-Foulkes estimate   =    -339.60643995 Ry
     estimated scf accuracy    <       0.00015818 Ry

     iteration #  4     ecut=    90.00 Ry     beta= 0.70
     Davidson diagonalization with overlap
     ethr =  8.79E-07,  avg # of iterations =  2.3

     total cpu time spent up to now is        4.6 secs

     total energy              =    -339.60642276 Ry
     Harris-Foulkes estimate   =    -339.60642263 Ry
     estimated scf accuracy    <       0.00000055 Ry

     iteration #  5     ecut=    90.00 Ry     beta= 0.70
     Davidson diagonalization with overlap
     ethr =  3.07E-09,  avg # of iterations =  2.7

     total cpu time spent up to now is        5.3 secs

     total energy              =    -339.60642309 Ry
     Harris-Foulkes estimate   =    -339.60642312 Ry
     estimated scf accuracy    <       0.00000009 Ry

     iteration #  6     ecut=    90.00 Ry     beta= 0.70
     Davidson diagonalization with overlap
     ethr =  4.73E-10,  avg # of iterations =  1.2

     total cpu time spent up to now is        5.9 secs

     End of self-consistent calculation

          k = 0.0000 0.0000 0.0000 (  1067 PWs)   bands (ev):

   -85.2667 -45.5329 -45.5329 -45.5329   8.8246  15.9210  15.9210  15.9210
    17.0297  17.0297  41.4886  45.4357  45.4357

          k =-0.1000 0.1000-0.1000 (  1040 PWs)   bands (ev):

   -85.2635 -45.5531 -45.5356 -45.5356   9.2141  15.8168  16.0048  16.0048
    16.9970  16.9970  39.7749  42.8042  44.6312

          k =-0.2000 0.2000-0.2000 (  1046 PWs)   bands (ev):

   -85.2550 -45.6094 -45.5435 -45.5435  10.3228  15.5989  16.1308  16.1308
    17.0185  17.0185  34.8600  42.0167  43.6184

          k =-0.3000 0.3000-0.3000 (  1059 PWs)   bands (ev):

   -85.2445 -45.6785 -45.5535 -45.5535  11.8743  15.5885  16.0722  16.0722
    17.2907  17.2907  29.9868  41.1174  42.9572

          k =-0.4000 0.4000-0.4000 (  1056 PWs)   bands (ev):

   -85.2360 -45.7331 -45.5615 -45.5615  13.0340  15.9347  15.9347  16.4704
    17.6290  17.6290  25.8525  40.3043  42.6460

          k = 0.5000-0.5000 0.5000 (  1068 PWs)   bands (ev):

   -85.2328 -45.7546 -45.5648 -45.5648  13.3082  15.8739  15.8739  17.5463
    17.7737  17.7737  23.7909  39.9903  42.5770

          k = 0.0000 0.2000 0.0000 (  1038 PWs)   bands (ev):

   -85.2624 -45.5527 -45.5403 -45.5403   9.3428  15.7293  16.0693  16.0693
    16.8568  17.0974  40.5631  42.4767  42.4767

          k =-0.1000 0.3000-0.1000 (  1039 PWs)   bands (ev):

   -85.2557 -45.5943 -45.5497 -45.5462  10.2105  15.5075  16.2025  16.2309
    16.7645  17.1757  36.8087  40.8908  40.9268

          k =-0.2000 0.4000-0.2000 (  1054 PWs)   bands (ev):

   -85.2459 -45.6572 -45.5602 -45.5563  11.6392  15.3422  16.0620  16.2567
    17.1283  17.3977  31.8006  39.9349  40.0774

          k =-0.3000 0.5000-0.3000 (  1059 PWs)   bands (ev):

   -85.2367 -45.7145 -45.5682 -45.5679  13.0120  15.6037  15.8825  16.1369
    17.6834  17.8935  27.3144  39.1165  39.6803

          k = 0.6000-0.4000 0.6000 (  1060 PWs)   bands (ev):

   -85.2317 -45.7455 -45.5773 -45.5694  13.5112  15.6798  16.0323  16.4209
    17.7835  19.0271  24.1497  38.1144  40.2395

          k = 0.5000-0.3000 0.5000 (  1060 PWs)   bands (ev):

   -85.2328 -45.7384 -45.5803 -45.5647  13.4387  15.7357  16.0334  16.2743
    17.5900  18.7666  24.9490  37.4084  41.2215

          k = 0.4000-0.2000 0.4000 (  1057 PWs)   bands (ev):

   -85.2396 -45.6966 -45.5752 -45.5551  12.6393  15.5244  15.9220  16.1510
    17.1828  17.9400  28.7354  37.2665  42.3489

          k = 0.3000-0.1000 0.3000 (  1052 PWs)   bands (ev):

   -85.2494 -45.6360 -45.5636 -45.5447  11.1271  15.4261  16.1037  16.2777
    16.8045  17.4173  33.4410  37.7200  44.0729

          k = 0.2000 0.0000 0.2000 (  1037 PWs)   bands (ev):

   -85.2585 -45.5808 -45.5484 -45.5370   9.8449  15.6425  16.1192  16.1359
    16.8280  17.1204  38.1152  39.1561  44.4814

          k = 0.0000 0.4000 0.0000 (  1054 PWs)   bands (ev):

   -85.2511 -45.6071 -45.5611 -45.5611  10.7964  15.2435  16.4734  16.4922
    16.4922  17.2765  38.8062  38.8062  39.2135

          k =-0.1000 0.5000-0.1000 (  1057 PWs)   bands (ev):

   -85.2431 -45.6504 -45.5734 -45.5731  11.9474  14.9905  16.1322  16.6606
    17.0882  17.4583  34.1005  37.4499  38.1684

          k =-0.2000 0.6000-0.2000 (  1060 PWs)   bands (ev):

   -85.2346 -45.6966 -45.5902 -45.5812  13.2463  14.9161  15.8346  16.5978
    17.7262  18.2016  29.3931  36.1299  36.9293

          k = 0.7000-0.3000 0.7000 (  1067 PWs)   bands (ev):

   -85.2290 -45.7250 -45.6081 -45.5824  13.9565  15.0633  15.8186  16.4693
    17.8100  20.0585  25.4187  34.3252  37.3473

          k = 0.6000-0.2000 0.6000 (  1073 PWs)   bands (ev):

   -85.2283 -45.7258 -45.6196 -45.5763  14.0888  15.2068  15.8166  16.3978
    17.5909  20.8053  24.4997  33.0847  38.7161

          k = 0.5000-0.1000 0.5000 (  1059 PWs)   bands (ev):

   -85.2328 -45.7015 -45.6166 -45.5648  13.7071  15.3304  15.5330  16.4344
    17.1498  19.1712  28.0143  32.5534  40.9073

          k = 0.4000 0.0000 0.4000 (  1057 PWs)   bands (ev):

   -85.2409 -45.6677 -45.5952 -45.5527  12.4543  15.2301  15.8677  16.5592
    16.6813  18.1023  32.2191  33.0743  43.1335

          k = 0.0000 0.6000 0.0000 (  1046 PWs)   bands (ev):

   -85.2372 -45.6715 -45.5867 -45.5867  12.6330  14.6729  16.5205  17.1042
    17.1042  17.5019  35.3289  35.6729  35.6729

          k =-0.1000 0.7000-0.1000 (  1050 PWs)   bands (ev):

   -85.2305 -45.7016 -45.6031 -45.5961  13.3794  14.4917  16.5000  17.1893
    17.7337  18.2366  31.8810  32.9469  34.7840

          k = 0.8000-0.2000 0.8000 (  1066 PWs)   bands (ev):

   -85.2255 -45.7161 -45.6292 -45.5980  13.9547  14.5154  16.2054  17.0634
    17.8466  20.5055  27.7065  30.8357  34.9350

          k = 0.7000-0.1000 0.7000 (  1060 PWs)   bands (ev):

   -85.2242 -45.7052 -45.6580 -45.5911  14.4025  14.6554  15.8377  16.9106
    17.6512  23.1337  24.5106  29.4251  36.1321

          k = 0.6000-0.0000 0.6000 (  1069 PWs)   bands (ev):

   -85.2270 -45.6933 -45.6603 -45.5785  14.4859  15.0014  15.4040  16.7315
    17.3152  21.0739  27.0127  29.2291  38.2044

          k = 0.0000 0.8000 0.0000 (  1058 PWs)   bands (ev):

   -85.2260 -45.7231 -45.6076 -45.6076  13.4292  14.2331  17.6875  17.6993
    17.6993  18.3750  30.1403  33.4930  33.4930

          k = 0.9000-0.1000 0.9000 (  1061 PWs)   bands (ev):

   -85.2227 -45.7325 -45.6222 -45.6106  13.6082  14.1940  17.2871  17.5858
    17.8956  20.4787  28.2130  30.7102  33.2887

          k = 0.8000 0.0000 0.8000 (  1059 PWs)   bands (ev):

   -85.2221 -45.7185 -45.6483 -45.6043  13.9685  14.3762  16.5374  17.3577
    17.7886  22.7627  26.8038  27.8397  34.2297

          k = 0.0000-1.0000 0.0000 (  1034 PWs)   bands (ev):

   -85.2217 -45.7417 -45.6150 -45.6150  13.4668  14.0701  17.7594  17.9590
    17.9590  20.2959  27.2471  32.6933  32.6933

          k =-0.2000 0.4000 0.0000 (  1054 PWs)   bands (ev):

   -85.2483 -45.6307 -45.5705 -45.5521  11.2458  15.2642  16.1153  16.5084
    16.7278  17.4439  35.3162  35.9914  41.9264

          k =-0.3000 0.5000-0.1000 (  1059 PWs)   bands (ev):

   -85.2392 -45.6787 -45.5896 -45.5618  12.6749  15.1382  15.8179  16.5114
    17.1064  18.0564  30.7133  35.0516  39.5968

          k = 0.6000-0.4000 0.8000 (  1059 PWs)   bands (ev):

   -85.2318 -45.7188 -45.6009 -45.5721  13.7114  15.3256  15.6877  16.3714
    17.5600  19.2148  26.4415  35.0513  37.5905

          k = 0.5000-0.3000 0.7000 (  1060 PWs)   bands (ev):

   -85.2289 -45.7346 -45.6042 -45.5765  13.9381  15.3082  15.9628  16.2952
    17.7136  20.5370  23.9982  35.4310  36.5156

          k =-0.2000 0.6000 0.0000 (  1052 PWs)   bands (ev):

   -85.2357 -45.6808 -45.5974 -45.5799  13.0004  14.7751  15.9456  17.1038
    17.1576  18.0623  32.9075  33.4546  36.0688

          k = 0.7000-0.3000 0.9000 (  1057 PWs)   bands (ev):

   -85.2290 -45.7057 -45.6195 -45.5891  13.9239  14.7550  15.6987  16.9558
    17.6088  19.5451  28.6626  32.9195  33.8876

          k = 0.6000-0.2000 0.8000 (  1060 PWs)   bands (ev):

   -85.2255 -45.7136 -45.6384 -45.5917  14.3987  14.7984  15.6325  16.7661
    17.7263  21.9140  24.9554  31.8582  33.8497

          k = 0.5000-0.1000 0.7000 (  1068 PWs)   bands (ev):

   -85.2266 -45.7057 -45.6450 -45.5848  14.4736  14.9456  15.4143  16.7225
    17.5217  21.2458  26.0210  30.8398  35.2087

          k = 0.4000 0.0000 0.6000 (  1063 PWs)   bands (ev):

   -85.2318 -45.6936 -45.6256 -45.5725  13.8613  15.0560  15.4144  16.7899
    17.1375  19.2778  29.7040  30.9472  37.1952

          k = 0.8000-0.2000 1.0000 (  1063 PWs)   bands (ev):

   -85.2255 -45.7175 -45.6195 -45.6057  13.7267  14.3895  16.5221  17.5080
    17.6970  19.7860  30.3889  31.1527  31.9699

          k = 0.7000-0.1000 0.9000 (  1064 PWs)   bands (ev):

   -85.2227 -45.7133 -45.6449 -45.6081  14.0806  14.5108  16.1517  17.2384
    17.8494  22.3119  27.4034  28.8121  32.0570

          k = 0.6000 0.0000 0.8000 (  1064 PWs)   bands (ev):

   -85.2231 -45.6879 -45.6763 -45.5992  14.4932  14.7088  15.6357  16.9777
    17.7036  23.9693  25.0495  28.3066  33.3136

          k =-0.2000-1.0000 0.0000 (  1058 PWs)   bands (ev):

   -85.2217 -45.7304 -45.6277 -45.6160  13.7311  14.2452  16.9650  17.5326
    17.9592  21.7242  27.3713  30.4864  31.2656

          k = 0.6000-0.2000 1.0000 (  1068 PWs)   bands (ev):

   -85.2244 -45.7012 -45.6502 -45.6013  14.3739  14.8627  15.4105  17.0505
    17.6934  21.6945  27.9311  29.6004  31.6182

          k = 0.5000-0.1000 0.9000 (  1066 PWs)   bands (ev):

   -85.2227 -45.6910 -45.6683 -45.6077  14.4934  14.9992  15.2891  16.9264
    17.8352  24.2737  25.1073  29.6666  30.3774

          k =-0.4000-1.0000 0.0000 (  1060 PWs)   bands (ev):

   -85.2216 -45.6987 -45.6593 -45.6171  14.2673  14.7828  15.7014  17.0515
    17.9598  24.2713  27.2598  27.7869  29.4003

     the Fermi energy is    17.8003 ev

!    total energy              =    -339.60642310 Ry
     Harris-Foulkes estimate   =    -339.60642310 Ry
     estimated scf accuracy    <          6.7E-10 Ry

     The total energy is the sum of the following terms:

     one-electron contribution =    -186.70547355 Ry
     hartree contribution      =     104.81436117 Ry
     xc contribution           =     -34.33040466 Ry
     ewald contribution        =    -223.38275369 Ry
     smearing contrib. (-TS)   =      -0.00215238 Ry

     convergence has been achieved in   6 iterations

     Forces acting on atoms (cartesian axes, Ry/au):

     atom    1 type  1   force =     0.00000000    0.00000000    0.00000000

     Total force =     0.000000     Total SCF correction =     0.000000


     Computing stress (Cartesian axis) and pressure

          total   stress  (Ry/bohr**3)                   (kbar)     P=  -33.01
  -0.00022437   0.00000000  -0.00000000        -33.01      0.00     -0.00
   0.00000000  -0.00022437  -0.00000000          0.00    -33.01     -0.00
  -0.00000000   0.00000000  -0.00022437         -0.00      0.00    -33.01


     Writing output data file Ni.save/

     init_run     :      0.37s CPU      0.39s WALL (       1 calls)
     electrons    :      4.63s CPU      4.82s WALL (       1 calls)
     forces       :      0.06s CPU      0.06s WALL (       1 calls)
     stress       :      0.20s CPU      0.20s WALL (       1 calls)

     Called by init_run:
     wfcinit      :      0.18s CPU      0.20s WALL (       1 calls)
     potinit      :      0.01s CPU      0.01s WALL (       1 calls)
     hinit0       :      0.17s CPU      0.17s WALL (       1 calls)

     Called by electrons:
     c_bands      :      3.84s CPU      3.99s WALL (       7 calls)
     sum_band     :      0.71s CPU      0.73s WALL (       7 calls)
     v_of_rho     :      0.03s CPU      0.03s WALL (       7 calls)
     newd         :      0.06s CPU      0.06s WALL (       7 calls)
     mix_rho      :      0.00s CPU      0.00s WALL (       7 calls)

     Called by c_bands:
     init_us_2    :      0.10s CPU      0.11s WALL (     799 calls)
     cegterg      :      3.71s CPU      3.85s WALL (     329 calls)

     Called by sum_band:
     sum_band:bec :      0.00s CPU      0.00s WALL (     329 calls)
     addusdens    :      0.05s CPU      0.06s WALL (       7 calls)

     Called by *egterg:
     h_psi        :      2.87s CPU      3.00s WALL (    1170 calls)
     s_psi        :      0.09s CPU      0.09s WALL (    1170 calls)
     g_psi        :      0.01s CPU      0.01s WALL (     794 calls)
     cdiaghg      :      0.38s CPU      0.39s WALL (    1076 calls)

     Called by h_psi:
     h_psi:pot    :      2.86s CPU      2.98s WALL (    1170 calls)
     h_psi:calbec :      0.13s CPU      0.13s WALL (    1170 calls)
     vloc_psi     :      2.63s CPU      2.75s WALL (    1170 calls)
     add_vuspsi   :      0.09s CPU      0.09s WALL (    1170 calls)

     General routines
     calbec       :      0.20s CPU      0.20s WALL (    1734 calls)
     fft          :      0.02s CPU      0.02s WALL (     104 calls)
     ffts         :      0.00s CPU      0.00s WALL (       7 calls)
     fftw         :      2.97s CPU      3.10s WALL (   26129 calls)

     Parallel routines
     fft_scatt_xy :      0.26s CPU      0.27s WALL (   26240 calls)
     fft_scatt_yz :      0.72s CPU      0.75s WALL (   26240 calls)

     PWSCF        :     6.05s CPU         6.33s WALL


   This run was terminated on:  23: 0:49  26Mar2024            

=------------------------------------------------------------------------------=
   JOB DONE.
=------------------------------------------------------------------------------=
