
     Program PWSCF v.6.3MaX starts on 26Mar2024 at 22:18:50 

     This program is part of the open-source Quantum ESPRESSO suite
     for quantum simulation of materials; please cite
         "P. Giannozzi et al., J. Phys.:Condens. Matter 21 395502 (2009);
         "P. Giannozzi et al., J. Phys.:Condens. Matter 29 465901 (2017);
          URL http://www.quantum-espresso.org", 
     in publications or presentations arising from this work. More details at
     http://www.quantum-espresso.org/quote

     Parallel version (MPI), running on     5 processors

     MPI processes distributed on     1 nodes
     R & G space division:  proc/nbgrp/npool/nimage =       5
     Waiting for input...
     Reading input from standard input

     Current dimensions of program PWSCF are:
     Max number of different atomic species (ntypx) = 10
     Max number of k-points (npk) =  40000
     Max angular momentum in pseudopotentials (lmaxx) =  3
               file Ni.pbe-spn-kjpaw_psl.1.0.0.UPF: wavefunction(s)  3P 3D renormalized

     Subspace diagonalization in iterative solution of the eigenvalue problem:
     a serial algorithm will be used


     Parallelization info
     --------------------
     sticks:   dense  smooth     PW     G-vecs:    dense   smooth      PW
     Min         119     119     39                 1967     1967     361
     Max         119     119     40                 1969     1969     363
     Sum         595     595    199                 9841     9841    1807



     bravais-lattice index     =            2
     lattice parameter (alat)  =       6.6500  a.u.
     unit-cell volume          =      73.5199 (a.u.)^3
     number of atoms/cell      =            1
     number of atomic types    =            1
     number of electrons       =        18.00
     number of Kohn-Sham states=           13
     kinetic-energy cutoff     =     100.0000  Ry
     charge density cutoff     =     400.0000  Ry
     convergence threshold     =      1.0E-08
     mixing beta               =       0.7000
     number of iterations used =            8  plain     mixing
     Exchange-correlation      = SLA PW PBX PBC ( 1  4  3  4 0 0)

     celldm(1)=   6.650000  celldm(2)=   0.000000  celldm(3)=   0.000000
     celldm(4)=   0.000000  celldm(5)=   0.000000  celldm(6)=   0.000000

     crystal axes: (cart. coord. in units of alat)
               a(1) = (  -0.500000   0.000000   0.500000 )  
               a(2) = (   0.000000   0.500000   0.500000 )  
               a(3) = (  -0.500000   0.500000   0.000000 )  

     reciprocal axes: (cart. coord. in units 2 pi/alat)
               b(1) = ( -1.000000 -1.000000  1.000000 )  
               b(2) = (  1.000000  1.000000  1.000000 )  
               b(3) = ( -1.000000  1.000000 -1.000000 )  


     PseudoPot. # 1 for Ni read from file:
     /home/lorenzo/pseudos/Ni/Ni.pbe-spn-kjpaw_psl.1.0.0.UPF
     MD5 check sum: 6e86b733589c3ad8389697b807d86aa7
     Pseudo is Projector augmented-wave + core cor, Zval = 18.0
     Generated using "atomic" code by A. Dal Corso v.6.3
     Shape of augmentation charge: PSQ
     Using radial grid of 1195 points,  6 beta functions with: 
                l(1) =   0
                l(2) =   0
                l(3) =   1
                l(4) =   1
                l(5) =   2
                l(6) =   2
     Q(r) pseudized with 0 coefficients 


     atomic species   valence    mass     pseudopotential
        Ni            18.00    58.69340     Ni( 1.00)

     48 Sym. Ops., with inversion, found



   Cartesian axes

     site n.     atom                  positions (alat units)
         1           Ni  tau(   1) = (   0.0000000   0.0000000   0.0000000  )

     number of k points=    56  gaussian smearing, width (Ry)=  0.0100
                       cart. coord. in units 2pi/alat
        k(    1) = (   0.0000000   0.0000000   0.0000000), wk =   0.0015026
        k(    2) = (  -0.0909091   0.0909091  -0.0909091), wk =   0.0120210
        k(    3) = (  -0.1818182   0.1818182  -0.1818182), wk =   0.0120210
        k(    4) = (  -0.2727273   0.2727273  -0.2727273), wk =   0.0120210
        k(    5) = (  -0.3636364   0.3636364  -0.3636364), wk =   0.0120210
        k(    6) = (  -0.4545455   0.4545455  -0.4545455), wk =   0.0120210
        k(    7) = (   0.0000000   0.1818182   0.0000000), wk =   0.0090158
        k(    8) = (  -0.0909091   0.2727273  -0.0909091), wk =   0.0360631
        k(    9) = (  -0.1818182   0.3636364  -0.1818182), wk =   0.0360631
        k(   10) = (  -0.2727273   0.4545455  -0.2727273), wk =   0.0360631
        k(   11) = (  -0.3636364   0.5454545  -0.3636364), wk =   0.0360631
        k(   12) = (   0.5454545  -0.3636364   0.5454545), wk =   0.0360631
        k(   13) = (   0.4545455  -0.2727273   0.4545455), wk =   0.0360631
        k(   14) = (   0.3636364  -0.1818182   0.3636364), wk =   0.0360631
        k(   15) = (   0.2727273  -0.0909091   0.2727273), wk =   0.0360631
        k(   16) = (   0.1818182  -0.0000000   0.1818182), wk =   0.0180316
        k(   17) = (   0.0000000   0.3636364   0.0000000), wk =   0.0090158
        k(   18) = (  -0.0909091   0.4545455  -0.0909091), wk =   0.0360631
        k(   19) = (  -0.1818182   0.5454545  -0.1818182), wk =   0.0360631
        k(   20) = (  -0.2727273   0.6363636  -0.2727273), wk =   0.0360631
        k(   21) = (   0.6363636  -0.2727273   0.6363636), wk =   0.0360631
        k(   22) = (   0.5454545  -0.1818182   0.5454545), wk =   0.0360631
        k(   23) = (   0.4545455  -0.0909091   0.4545455), wk =   0.0360631
        k(   24) = (   0.3636364   0.0000000   0.3636364), wk =   0.0180316
        k(   25) = (   0.0000000   0.5454545   0.0000000), wk =   0.0090158
        k(   26) = (  -0.0909091   0.6363636  -0.0909091), wk =   0.0360631
        k(   27) = (  -0.1818182   0.7272727  -0.1818182), wk =   0.0360631
        k(   28) = (   0.7272727  -0.1818182   0.7272727), wk =   0.0360631
        k(   29) = (   0.6363636  -0.0909091   0.6363636), wk =   0.0360631
        k(   30) = (   0.5454545   0.0000000   0.5454545), wk =   0.0180316
        k(   31) = (   0.0000000   0.7272727   0.0000000), wk =   0.0090158
        k(   32) = (  -0.0909091   0.8181818  -0.0909091), wk =   0.0360631
        k(   33) = (   0.8181818  -0.0909091   0.8181818), wk =   0.0360631
        k(   34) = (   0.7272727   0.0000000   0.7272727), wk =   0.0180316
        k(   35) = (   0.0000000   0.9090909   0.0000000), wk =   0.0090158
        k(   36) = (   0.9090909  -0.0000000   0.9090909), wk =   0.0180316
        k(   37) = (  -0.1818182   0.3636364   0.0000000), wk =   0.0360631
        k(   38) = (  -0.2727273   0.4545455  -0.0909091), wk =   0.0721262
        k(   39) = (  -0.3636364   0.5454545  -0.1818182), wk =   0.0721262
        k(   40) = (   0.5454545  -0.3636364   0.7272727), wk =   0.0721262
        k(   41) = (  -0.1818182   0.5454545   0.0000000), wk =   0.0360631
        k(   42) = (  -0.2727273   0.6363636  -0.0909091), wk =   0.0721262
        k(   43) = (   0.6363636  -0.2727273   0.8181818), wk =   0.0721262
        k(   44) = (   0.5454545  -0.1818182   0.7272727), wk =   0.0721262
        k(   45) = (   0.4545455  -0.0909091   0.6363636), wk =   0.0721262
        k(   46) = (   0.3636364   0.0000000   0.5454545), wk =   0.0360631
        k(   47) = (  -0.1818182   0.7272727   0.0000000), wk =   0.0360631
        k(   48) = (   0.7272727  -0.1818182   0.9090909), wk =   0.0721262
        k(   49) = (   0.6363636  -0.0909091   0.8181818), wk =   0.0721262
        k(   50) = (   0.5454545   0.0000000   0.7272727), wk =   0.0360631
        k(   51) = (   0.8181818  -0.0909091   1.0000000), wk =   0.0360631
        k(   52) = (   0.7272727   0.0000000   0.9090909), wk =   0.0360631
        k(   53) = (   0.6363636  -0.2727273   1.0000000), wk =   0.0360631
        k(   54) = (   0.5454545  -0.1818182   0.9090909), wk =   0.0721262
        k(   55) = (   0.6363636  -0.0909091   1.0000000), wk =   0.0360631
        k(   56) = (   0.5454545   0.0000000   0.9090909), wk =   0.0360631

     Dense  grid:     9841 G-vectors     FFT dimensions: (  30,  30,  30)

     Estimated max dynamical RAM per process >      11.80 MB

     Estimated total dynamical RAM >      58.99 MB

     Check: negative/imaginary core charge=   -0.000004    0.000000

     Initial potential from superposition of free atoms

     starting charge   17.99975, renormalised to   18.00000
     Starting wfcs are   10 randomized atomic wfcs +    3 random wfcs
     Checking if some PAW data can be deallocated... 

     total cpu time spent up to now is        1.4 secs

     Self-consistent Calculation

     iteration #  1     ecut=   100.00 Ry     beta= 0.70
     Davidson diagonalization with overlap
     ethr =  1.00E-02,  avg # of iterations =  3.6

     Threshold (ethr) on eigenvalues was too large:
     Diagonalizing with lowered threshold

     Davidson diagonalization with overlap
     ethr =  1.90E-05,  avg # of iterations =  2.8

     total cpu time spent up to now is        3.3 secs

     total energy              =    -429.15833938 Ry
     Harris-Foulkes estimate   =    -429.16028864 Ry
     estimated scf accuracy    <       0.00339736 Ry

     iteration #  2     ecut=   100.00 Ry     beta= 0.70
     Davidson diagonalization with overlap
     ethr =  1.89E-05,  avg # of iterations =  2.2

     total cpu time spent up to now is        4.3 secs

     total energy              =    -429.15758691 Ry
     Harris-Foulkes estimate   =    -429.16162087 Ry
     estimated scf accuracy    <       0.01089215 Ry

     iteration #  3     ecut=   100.00 Ry     beta= 0.70
     Davidson diagonalization with overlap
     ethr =  1.89E-05,  avg # of iterations =  2.1

     total cpu time spent up to now is        5.2 secs

     total energy              =    -429.15956556 Ry
     Harris-Foulkes estimate   =    -429.15962838 Ry
     estimated scf accuracy    <       0.00021861 Ry

     iteration #  4     ecut=   100.00 Ry     beta= 0.70
     Davidson diagonalization with overlap
     ethr =  1.21E-06,  avg # of iterations =  1.6

     total cpu time spent up to now is        6.0 secs

     total energy              =    -429.15959790 Ry
     Harris-Foulkes estimate   =    -429.15959769 Ry
     estimated scf accuracy    <       0.00000040 Ry

     iteration #  5     ecut=   100.00 Ry     beta= 0.70
     Davidson diagonalization with overlap
     ethr =  2.25E-09,  avg # of iterations =  3.6

     total cpu time spent up to now is        7.2 secs

     total energy              =    -429.15959882 Ry
     Harris-Foulkes estimate   =    -429.15959886 Ry
     estimated scf accuracy    <       0.00000010 Ry

     iteration #  6     ecut=   100.00 Ry     beta= 0.70
     Davidson diagonalization with overlap
     ethr =  5.53E-10,  avg # of iterations =  1.0

     total cpu time spent up to now is        8.0 secs

     End of self-consistent calculation

          k = 0.0000 0.0000 0.0000 (  1243 PWs)   bands (ev):

   -85.3160 -45.5808 -45.5808 -45.5808   8.8202  15.8876  15.8876  15.8876
    16.9928  16.9928  41.4866  45.4327  45.4327

          k =-0.0909 0.0909-0.0909 (  1249 PWs)   bands (ev):

   -85.3133 -45.5985 -45.5833 -45.5833   9.1427  15.8007  15.9581  15.9581
    16.9643  16.9643  40.1313  42.9393  44.7276

          k =-0.1818 0.1818-0.1818 (  1254 PWs)   bands (ev):

   -85.3061 -45.6457 -45.5901 -45.5901  10.0706  15.6047  16.0840  16.0840
    16.9615  16.9615  35.7756  42.1496  43.7711

          k =-0.2727 0.2727-0.2727 (  1251 PWs)   bands (ev):

   -85.2967 -45.7073 -45.5990 -45.5990  11.4353  15.5095  16.0714  16.0714
    17.1597  17.1597  31.2539  41.3773  43.0915

          k =-0.3636 0.3636-0.3636 (  1242 PWs)   bands (ev):

   -85.2880 -45.7637 -45.6071 -45.6071  12.7134  15.9476  15.9476  15.9911
    17.4806  17.4806  27.2117  40.5584  42.7144

          k =-0.4545 0.4545-0.4545 (  1236 PWs)   bands (ev):

   -85.2829 -45.7969 -45.6120 -45.6120  13.2397  15.8536  15.8536  17.2399
    17.7049  17.7049  24.2667  40.0581  42.5805

          k = 0.0000 0.1818 0.0000 (  1251 PWs)   bands (ev):

   -85.3124 -45.5979 -45.5873 -45.5873   9.2494  15.7285  16.0100  16.0100
    16.8489  17.0489  40.6863  42.8120  42.8121

          k =-0.0909 0.2727-0.0909 (  1258 PWs)   bands (ev):

   -85.3068 -45.6331 -45.5954 -45.5923   9.9744  15.5369  16.1411  16.1545
    16.7451  17.1069  37.5244  41.1907  41.3404

          k =-0.1818 0.3636-0.1818 (  1247 PWs)   bands (ev):

   -85.2981 -45.6884 -45.6049 -45.6003  11.2052  15.3589  16.0869  16.2112
    16.9583  17.2739  32.9310  40.3694  40.4391

          k =-0.2727 0.4545-0.2727 (  1245 PWs)   bands (ev):

   -85.2891 -45.7450 -45.6129 -45.6106  12.5746  15.4697  15.8970  16.1222
    17.5180  17.5462  28.6701  39.6411  39.9435

          k =-0.3636 0.5455-0.3636 (  1234 PWs)   bands (ev):

   -85.2828 -45.7845 -45.6200 -45.6167  13.3406  15.7037  16.0073  16.2099
    17.7317  18.4015  25.1693  38.8115  40.1425

          k = 0.5455-0.3636 0.5455 (  1230 PWs)   bands (ev):

   -85.2811 -45.7950 -45.6252 -45.6152  13.4713  15.6894  15.9591  16.5590
    17.6936  19.0088  23.8824  38.0797  41.0500

          k = 0.4545-0.2727 0.4545 (  1237 PWs)   bands (ev):

   -85.2845 -45.7735 -45.6244 -45.6090  13.1865  15.7867  15.9877  16.0117
    17.4247  18.2574  26.2151  37.6942  41.5860

          k = 0.3636-0.1818 0.3636 (  1247 PWs)   bands (ev):

   -85.2920 -45.7266 -45.6179 -45.5998  12.1524  15.4231  15.9658  16.1427
    17.0361  17.6697  30.0410  37.7791  42.7860

          k = 0.2727-0.0909 0.2727 (  1244 PWs)   bands (ev):

   -85.3012 -45.6695 -45.6070 -45.5907  10.7541  15.4466  16.0961  16.2160
    16.7605  17.2661  34.4468  38.3314  44.2324

          k = 0.1818-0.0000 0.1818 (  1249 PWs)   bands (ev):

   -85.3091 -45.6217 -45.5942 -45.5845   9.6676  15.6520  16.0660  16.0664
    16.8216  17.0555  38.6364  39.7869  44.3298

          k = 0.0000 0.3636 0.0000 (  1255 PWs)   bands (ev):

   -85.3029 -45.6434 -45.6050 -45.6050  10.4712  15.3132  16.3633  16.3633
    16.5067  17.2007  39.4257  39.4378  39.4378

          k =-0.0909 0.4545-0.0909 (  1253 PWs)   bands (ev):

   -85.2957 -45.6828 -45.6158 -45.6149  11.4784  15.0781  16.1616  16.5298
    16.8648  17.3447  35.0046  38.1182  39.0338

          k =-0.1818 0.5455-0.1818 (  1256 PWs)   bands (ev):

   -85.2875 -45.7296 -45.6279 -45.6243  12.7390  14.9643  15.8620  16.5073
    17.5936  17.6723  30.6013  37.4234  37.4496

          k =-0.2727 0.6364-0.2727 (  1243 PWs)   bands (ev):

   -85.2809 -45.7656 -45.6430 -45.6280  13.6608  15.0949  15.7521  16.3928
    17.7638  19.0175  26.6921  35.7394  37.5129

          k = 0.6364-0.2727 0.6364 (  1228 PWs)   bands (ev):

   -85.2780 -45.7798 -45.6552 -45.6255  13.9442  15.2140  15.9124  16.3002
    17.7043  20.6037  24.0782  34.3967  38.3577

          k = 0.5455-0.1818 0.5455 (  1242 PWs)   bands (ev):

   -85.2798 -45.7690 -45.6598 -45.6178  13.8747  15.3639  15.7092  16.2886
    17.4073  19.7946  25.6271  33.5784  39.9476

          k = 0.4545-0.0909 0.4545 (  1245 PWs)   bands (ev):

   -85.2855 -45.7387 -45.6526 -45.6072  13.2037  15.2523  15.6643  16.3762
    16.9725  18.5630  29.2784  33.3584  42.1529

          k = 0.3636 0.0000 0.3636 (  1253 PWs)   bands (ev):

   -85.2935 -45.7018 -45.6329 -45.5971  11.9179  15.2495  15.9422  16.5327
    16.5509  17.7879  33.2431  34.0260  43.8422

          k = 0.0000 0.5455 0.0000 (  1259 PWs)   bands (ev):

   -85.2903 -45.7020 -45.6281 -45.6281  12.1622  14.7934  16.3552  16.8926
    16.8926  17.4028  36.4427  36.4427  36.7614

          k =-0.0909 0.6364-0.0909 (  1251 PWs)   bands (ev):

   -85.2837 -45.7336 -45.6418 -45.6379  13.0261  14.5961  16.2760  17.0143
    17.6029  17.6678  32.8352  34.6050  35.4598

          k =-0.1818 0.7273-0.1818 (  1244 PWs)   bands (ev):

   -85.2778 -45.7573 -45.6622 -45.6422  13.7508  14.5640  16.0643  16.9251
    17.7902  19.3094  28.8297  32.5567  35.2849

          k = 0.7273-0.1818 0.7273 (  1240 PWs)   bands (ev):

   -85.2747 -45.7627 -45.6858 -45.6396  14.2080  14.6624  15.8678  16.7983
    17.7391  21.6410  25.3501  30.9739  35.9702

          k = 0.6364-0.0909 0.6364 (  1239 PWs)   bands (ev):

   -85.2752 -45.7508 -45.7023 -45.6308  14.4480  14.8466  15.5801  16.6929
    17.4583  21.8894  25.2713  29.9663  37.4512

          k = 0.5455 0.0000 0.5455 (  1240 PWs)   bands (ev):

   -85.2793 -45.7423 -45.6895 -45.6188  14.1688  15.2387  15.2396  16.5921
    17.1133  19.9235  28.3302  30.0154  39.5726

          k = 0.0000 0.7273 0.0000 (  1250 PWs)   bands (ev):

   -85.2788 -45.7546 -45.6493 -45.6493  13.2840  14.3375  17.4598  17.4677
    17.4677  17.5918  31.9260  34.1408  34.1408

          k =-0.0909 0.8182-0.0909 (  1240 PWs)   bands (ev):

   -85.2745 -45.7708 -45.6631 -45.6548  13.5463  14.2410  17.0879  17.4498
    17.8049  19.3600  29.8073  31.4071  33.6623

          k = 0.8182-0.0909 0.8182 (  1240 PWs)   bands (ev):

   -85.2721 -45.7687 -45.6873 -45.6528  13.8734  14.3305  16.5743  17.3074
    17.7999  21.7641  27.6477  28.5322  34.1170

          k = 0.7273 0.0000 0.7273 (  1238 PWs)   bands (ev):

   -85.2724 -45.7474 -45.7158 -45.6438  14.2840  14.5312  15.9840  17.0711
    17.6099  24.1699  24.5482  28.0336  35.4404

          k = 0.0000 0.9091 0.0000 (  1242 PWs)   bands (ev):

   -85.2720 -45.7855 -45.6618 -45.6618  13.4447  14.0756  17.7057  17.8647
    17.8647  19.7525  27.9611  32.8563  32.8563

          k = 0.9091-0.0000 0.9091 (  1242 PWs)   bands (ev):

   -85.2711 -45.7845 -45.6711 -45.6611  13.5568  14.1118  17.4415  17.6264
    17.8858  20.9862  27.2759  30.8173  33.0173

          k =-0.1818 0.3636 0.0000 (  1257 PWs)   bands (ev):

   -85.3003 -45.6652 -45.6126 -45.5970  10.8542  15.3184  16.1332  16.3787
    16.6746  17.2997  36.0955  36.8150  42.7766

          k =-0.2727 0.4545-0.0909 (  1247 PWs)   bands (ev):

   -85.2919 -45.7112 -45.6291 -45.6050  12.1379  15.1633  15.9030  16.4348
    16.9396  17.7435  31.8635  35.7903  40.7422

          k =-0.3636 0.5455-0.1818 (  1244 PWs)   bands (ev):

   -85.2842 -45.7551 -45.6403 -45.6147  13.3199  15.3010  15.6836  16.3112
    17.3942  18.5209  27.7618  35.5872  38.8271

          k = 0.5455-0.3636 0.7273 (  1239 PWs)   bands (ev):

   -85.2795 -45.7813 -45.6455 -45.6216  13.7787  15.3850  15.9409  16.2128
    17.6541  19.8322  24.5618  35.8695  37.4213

          k =-0.1818 0.5455 0.0000 (  1252 PWs)   bands (ev):

   -85.2888 -45.7136 -45.6366 -45.6209  12.4857  14.8620  15.9611  16.8939
    16.9952  17.7289  33.8154  34.3414  37.5675

          k =-0.2727 0.6364-0.0909 (  1242 PWs)   bands (ev):

   -85.2818 -45.7441 -45.6555 -45.6297  13.5311  14.7931  15.6972  16.8303
    17.4433  18.7013  29.8128  33.7052  35.4297

          k = 0.6364-0.2727 0.8182 (  1238 PWs)   bands (ev):

   -85.2769 -45.7630 -45.6713 -45.6354  14.1441  14.8675  15.6146  16.6740
    17.6805  20.4866  26.0919  33.3081  34.3306

          k = 0.5455-0.1818 0.7273 (  1239 PWs)   bands (ev):

   -85.2758 -45.7647 -45.6816 -45.6333  14.3437  14.9104  15.6241  16.5740
    17.6223  21.8055  24.3578  32.1876  35.1293

          k = 0.4545-0.0909 0.6364 (  1241 PWs)   bands (ev):

   -85.2786 -45.7518 -45.6794 -45.6246  14.1593  15.1010  15.3422  16.6224
    17.3334  20.0176  27.2673  31.5427  36.6197

          k = 0.3636 0.0000 0.5455 (  1235 PWs)   bands (ev):

   -85.2846 -45.7326 -45.6594 -45.6135  13.3136  15.0410  15.5731  16.7103
    16.9338  18.6183  30.8564  31.8643  38.5744

          k =-0.1818 0.7273 0.0000 (  1243 PWs)   bands (ev):

   -85.2782 -45.7539 -45.6587 -45.6460  13.5526  14.4537  16.3178  17.4247
    17.4653  18.8050  31.9773  31.9777  32.9080

          k = 0.7273-0.1818 0.9091 (  1235 PWs)   bands (ev):

   -85.2741 -45.7613 -45.6803 -45.6512  13.9750  14.4916  16.0839  17.2022
    17.7451  20.8123  28.3822  30.3837  32.5069

          k = 0.6364-0.0909 0.8182 (  1238 PWs)   bands (ev):

   -85.2726 -45.7501 -45.7071 -45.6477  14.3517  14.6238  15.7570  16.9741
    17.7132  23.4019  25.0955  29.0894  33.3063

          k = 0.5455 0.0000 0.7273 (  1237 PWs)   bands (ev):

   -85.2743 -45.7367 -45.7170 -45.6373  14.6441  14.7711  15.3527  16.8225
    17.4899  22.1101  26.3572  28.8623  34.7351

          k = 0.8182-0.0909 1.0000 (  1234 PWs)   bands (ev):

   -85.2719 -45.7766 -45.6718 -45.6617  13.6712  14.2173  16.9523  17.5385
    17.8644  20.9463  28.1214  30.9079  31.5957

          k = 0.7273 0.0000 0.9091 (  1240 PWs)   bands (ev):

   -85.2712 -45.7655 -45.6917 -45.6591  13.9506  14.3871  16.3945  17.2943
    17.8617  22.7753  27.3169  28.1185  31.9852

          k = 0.6364-0.2727 1.0000 (  1237 PWs)   bands (ev):

   -85.2765 -45.7493 -45.6840 -45.6397  14.1968  14.8008  15.4149  17.0378
    17.4642  20.3010  29.0194  30.3535  33.2722

          k = 0.5455-0.1818 0.9091 (  1225 PWs)   bands (ev):

   -85.2734 -45.7468 -45.7038 -45.6481  14.5095  14.8550  15.3161  16.8784
    17.6958  22.5880  25.8889  30.3688  31.6662

          k = 0.6364-0.0909 1.0000 (  1233 PWs)   bands (ev):

   -85.2717 -45.7529 -45.6985 -45.6612  14.1820  14.6493  15.8002  17.1033
    17.8633  22.9670  27.9660  28.6075  29.8246

          k = 0.5455 0.0000 0.9091 (  1233 PWs)   bands (ev):

   -85.2714 -45.7334 -45.7215 -45.6600  14.3799  14.9322  15.3827  16.9274
    17.8615  25.1954  25.2319  28.2403  30.1772

     the Fermi energy is    17.7400 ev

!    total energy              =    -429.15959882 Ry
     Harris-Foulkes estimate   =    -429.15959882 Ry
     estimated scf accuracy    <          5.8E-09 Ry

     total all-electron energy =     -3041.591706 Ry

     The total energy is the sum of the following terms:

     one-electron contribution =    -185.12242689 Ry
     hartree contribution      =     104.76609095 Ry
     xc contribution           =     -34.32569781 Ry
     ewald contribution        =    -223.38275369 Ry
     one-center paw contrib.   =     -91.09202825 Ry
     smearing contrib. (-TS)   =      -0.00278314 Ry

     convergence has been achieved in   6 iterations

     Forces acting on atoms (cartesian axes, Ry/au):

     atom    1 type  1   force =     0.00000000    0.00000000    0.00000000

     Total force =     0.000000     Total SCF correction =     0.000000


     Computing stress (Cartesian axis) and pressure

          total   stress  (Ry/bohr**3)                   (kbar)     P=  -13.65
  -0.00009282  -0.00000000  -0.00000000        -13.65     -0.00     -0.00
  -0.00000000  -0.00009282   0.00000000         -0.00    -13.65      0.00
  -0.00000000   0.00000000  -0.00009282         -0.00      0.00    -13.65


     Writing output data file Ni.save/

     init_run     :      0.54s CPU      0.58s WALL (       1 calls)
     electrons    :      6.41s CPU      6.65s WALL (       1 calls)
     forces       :      0.08s CPU      0.08s WALL (       1 calls)
     stress       :      0.25s CPU      0.25s WALL (       1 calls)

     Called by init_run:
     wfcinit      :      0.23s CPU      0.25s WALL (       1 calls)
     potinit      :      0.10s CPU      0.11s WALL (       1 calls)
     hinit0       :      0.18s CPU      0.18s WALL (       1 calls)

     Called by electrons:
     c_bands      :      4.88s CPU      5.05s WALL (       7 calls)
     sum_band     :      0.89s CPU      0.91s WALL (       7 calls)
     v_of_rho     :      0.03s CPU      0.04s WALL (       7 calls)
     newd         :      0.08s CPU      0.09s WALL (       7 calls)
     PAW_pot      :      0.62s CPU      0.67s WALL (       7 calls)
     mix_rho      :      0.00s CPU      0.00s WALL (       7 calls)

     Called by c_bands:
     init_us_2    :      0.14s CPU      0.15s WALL (     952 calls)
     cegterg      :      4.69s CPU      4.85s WALL (     392 calls)

     Called by sum_band:
     sum_band:bec :      0.01s CPU      0.01s WALL (     392 calls)
     addusdens    :      0.06s CPU      0.07s WALL (       7 calls)

     Called by *egterg:
     h_psi        :      3.56s CPU      3.69s WALL (    1396 calls)
     s_psi        :      0.12s CPU      0.13s WALL (    1396 calls)
     g_psi        :      0.01s CPU      0.01s WALL (     948 calls)
     cdiaghg      :      0.48s CPU      0.49s WALL (    1284 calls)

     Called by h_psi:
     h_psi:pot    :      3.54s CPU      3.68s WALL (    1396 calls)
     h_psi:calbec :      0.16s CPU      0.17s WALL (    1396 calls)
     vloc_psi     :      3.24s CPU      3.36s WALL (    1396 calls)
     add_vuspsi   :      0.13s CPU      0.13s WALL (    1396 calls)

     General routines
     calbec       :      0.28s CPU      0.29s WALL (    2068 calls)
     fft          :      0.03s CPU      0.03s WALL (     104 calls)
     ffts         :      0.00s CPU      0.00s WALL (       7 calls)
     fftw         :      3.65s CPU      3.78s WALL (   31802 calls)

     Parallel routines
     fft_scatt_xy :      0.32s CPU      0.33s WALL (   31913 calls)
     fft_scatt_yz :      0.79s CPU      0.82s WALL (   31913 calls)

     PWSCF        :     8.11s CPU         8.47s WALL


   This run was terminated on:  22:18:58  26Mar2024            

=------------------------------------------------------------------------------=
   JOB DONE.
=------------------------------------------------------------------------------=
