
     Program PWSCF v.6.3MaX starts on 26Mar2024 at 23: 6:42 

     This program is part of the open-source Quantum ESPRESSO suite
     for quantum simulation of materials; please cite
         "P. Giannozzi et al., J. Phys.:Condens. Matter 21 395502 (2009);
         "P. Giannozzi et al., J. Phys.:Condens. Matter 29 465901 (2017);
          URL http://www.quantum-espresso.org", 
     in publications or presentations arising from this work. More details at
     http://www.quantum-espresso.org/quote

     Parallel version (MPI), running on     5 processors

     MPI processes distributed on     1 nodes
     R & G space division:  proc/nbgrp/npool/nimage =       5
     Waiting for input...
     Reading input from standard input

     Current dimensions of program PWSCF are:
     Max number of different atomic species (ntypx) = 10
     Max number of k-points (npk) =  40000
     Max angular momentum in pseudopotentials (lmaxx) =  3

     Subspace diagonalization in iterative solution of the eigenvalue problem:
     a serial algorithm will be used


     Parallelization info
     --------------------
     sticks:   dense  smooth     PW     G-vecs:    dense   smooth      PW
     Min         116     116     37                 1850     1850     327
     Max         117     117     38                 1853     1853     329
     Sum         583     583    187                 9257     9257    1639



     bravais-lattice index     =            2
     lattice parameter (alat)  =       6.6500  a.u.
     unit-cell volume          =      73.5199 (a.u.)^3
     number of atoms/cell      =            1
     number of atomic types    =            1
     number of electrons       =        18.00
     number of Kohn-Sham states=           13
     kinetic-energy cutoff     =      95.0000  Ry
     charge density cutoff     =     380.0000  Ry
     convergence threshold     =      1.0E-08
     mixing beta               =       0.7000
     number of iterations used =            8  plain     mixing
     Exchange-correlation      = PBE ( 1  4  3  4 0 0)

     celldm(1)=   6.650000  celldm(2)=   0.000000  celldm(3)=   0.000000
     celldm(4)=   0.000000  celldm(5)=   0.000000  celldm(6)=   0.000000

     crystal axes: (cart. coord. in units of alat)
               a(1) = (  -0.500000   0.000000   0.500000 )  
               a(2) = (   0.000000   0.500000   0.500000 )  
               a(3) = (  -0.500000   0.500000   0.000000 )  

     reciprocal axes: (cart. coord. in units 2 pi/alat)
               b(1) = ( -1.000000 -1.000000  1.000000 )  
               b(2) = (  1.000000  1.000000  1.000000 )  
               b(3) = ( -1.000000  1.000000 -1.000000 )  


     PseudoPot. # 1 for Ni read from file:
     /home/lorenzo/pseudos/Ni/Ni.pbe-spn-rrkjus_psl.1.0.0.UPF
     MD5 check sum: 8b3fc9aac6dafe35f580d41bb18c3945
     Pseudo is Ultrasoft + core correction, Zval = 18.0
     Generated using "atomic" code by A. Dal Corso v.6.3
     Using radial grid of 1195 points,  6 beta functions with: 
                l(1) =   0
                l(2) =   0
                l(3) =   1
                l(4) =   1
                l(5) =   2
                l(6) =   2
     Q(r) pseudized with 0 coefficients 


     atomic species   valence    mass     pseudopotential
        Ni            18.00    58.69340     Ni( 1.00)

     48 Sym. Ops., with inversion, found



   Cartesian axes

     site n.     atom                  positions (alat units)
         1           Ni  tau(   1) = (   0.0000000   0.0000000   0.0000000  )

     number of k points=    29  gaussian smearing, width (Ry)=  0.0100
                       cart. coord. in units 2pi/alat
        k(    1) = (   0.0000000   0.0000000   0.0000000), wk =   0.0039062
        k(    2) = (  -0.1250000   0.1250000  -0.1250000), wk =   0.0312500
        k(    3) = (  -0.2500000   0.2500000  -0.2500000), wk =   0.0312500
        k(    4) = (  -0.3750000   0.3750000  -0.3750000), wk =   0.0312500
        k(    5) = (   0.5000000  -0.5000000   0.5000000), wk =   0.0156250
        k(    6) = (   0.0000000   0.2500000   0.0000000), wk =   0.0234375
        k(    7) = (  -0.1250000   0.3750000  -0.1250000), wk =   0.0937500
        k(    8) = (  -0.2500000   0.5000000  -0.2500000), wk =   0.0937500
        k(    9) = (   0.6250000  -0.3750000   0.6250000), wk =   0.0937500
        k(   10) = (   0.5000000  -0.2500000   0.5000000), wk =   0.0937500
        k(   11) = (   0.3750000  -0.1250000   0.3750000), wk =   0.0937500
        k(   12) = (   0.2500000   0.0000000   0.2500000), wk =   0.0468750
        k(   13) = (   0.0000000   0.5000000   0.0000000), wk =   0.0234375
        k(   14) = (  -0.1250000   0.6250000  -0.1250000), wk =   0.0937500
        k(   15) = (   0.7500000  -0.2500000   0.7500000), wk =   0.0937500
        k(   16) = (   0.6250000  -0.1250000   0.6250000), wk =   0.0937500
        k(   17) = (   0.5000000   0.0000000   0.5000000), wk =   0.0468750
        k(   18) = (   0.0000000   0.7500000   0.0000000), wk =   0.0234375
        k(   19) = (   0.8750000  -0.1250000   0.8750000), wk =   0.0937500
        k(   20) = (   0.7500000   0.0000000   0.7500000), wk =   0.0468750
        k(   21) = (   0.0000000  -1.0000000   0.0000000), wk =   0.0117188
        k(   22) = (  -0.2500000   0.5000000   0.0000000), wk =   0.0937500
        k(   23) = (   0.6250000  -0.3750000   0.8750000), wk =   0.1875000
        k(   24) = (   0.5000000  -0.2500000   0.7500000), wk =   0.0937500
        k(   25) = (   0.7500000  -0.2500000   1.0000000), wk =   0.0937500
        k(   26) = (   0.6250000  -0.1250000   0.8750000), wk =   0.1875000
        k(   27) = (   0.5000000   0.0000000   0.7500000), wk =   0.0937500
        k(   28) = (  -0.2500000  -1.0000000   0.0000000), wk =   0.0468750
        k(   29) = (  -0.5000000  -1.0000000   0.0000000), wk =   0.0234375

     Dense  grid:     9257 G-vectors     FFT dimensions: (  30,  30,  30)

     Estimated max dynamical RAM per process >       9.91 MB

     Estimated total dynamical RAM >      49.53 MB

     Check: negative/imaginary core charge=   -0.000003    0.000000

     Initial potential from superposition of free atoms

     starting charge   17.99975, renormalised to   18.00000
     Starting wfcs are   10 randomized atomic wfcs +    3 random wfcs

     total cpu time spent up to now is        1.0 secs

     Self-consistent Calculation

     iteration #  1     ecut=    95.00 Ry     beta= 0.70
     Davidson diagonalization with overlap
     ethr =  1.00E-02,  avg # of iterations =  3.6

     Threshold (ethr) on eigenvalues was too large:
     Diagonalizing with lowered threshold

     Davidson diagonalization with overlap
     ethr =  2.18E-05,  avg # of iterations =  3.0

     total cpu time spent up to now is        2.0 secs

     total energy              =    -339.60399761 Ry
     Harris-Foulkes estimate   =    -339.60639766 Ry
     estimated scf accuracy    <       0.00391019 Ry

     iteration #  2     ecut=    95.00 Ry     beta= 0.70
     Davidson diagonalization with overlap
     ethr =  2.17E-05,  avg # of iterations =  2.4

     total cpu time spent up to now is        2.5 secs

     total energy              =    -339.60304157 Ry
     Harris-Foulkes estimate   =    -339.60869659 Ry
     estimated scf accuracy    <       0.01659659 Ry

     iteration #  3     ecut=    95.00 Ry     beta= 0.70
     Davidson diagonalization with overlap
     ethr =  2.17E-05,  avg # of iterations =  2.1

     total cpu time spent up to now is        3.0 secs

     total energy              =    -339.60566524 Ry
     Harris-Foulkes estimate   =    -339.60568933 Ry
     estimated scf accuracy    <       0.00011546 Ry

     iteration #  4     ecut=    95.00 Ry     beta= 0.70
     Davidson diagonalization with overlap
     ethr =  6.41E-07,  avg # of iterations =  2.3

     total cpu time spent up to now is        3.4 secs

     total energy              =    -339.60568341 Ry
     Harris-Foulkes estimate   =    -339.60568325 Ry
     estimated scf accuracy    <       0.00000072 Ry

     iteration #  5     ecut=    95.00 Ry     beta= 0.70
     Davidson diagonalization with overlap
     ethr =  3.98E-09,  avg # of iterations =  2.3

     total cpu time spent up to now is        3.9 secs

     total energy              =    -339.60568356 Ry
     Harris-Foulkes estimate   =    -339.60568358 Ry
     estimated scf accuracy    <       0.00000006 Ry

     iteration #  6     ecut=    95.00 Ry     beta= 0.70
     Davidson diagonalization with overlap
     ethr =  3.43E-10,  avg # of iterations =  1.6

     total cpu time spent up to now is        4.3 secs

     End of self-consistent calculation

          k = 0.0000 0.0000 0.0000 (  1139 PWs)   bands (ev):

   -85.3057 -45.5720 -45.5720 -45.5720   8.8218  15.8906  15.8906  15.8906
    16.9969  16.9969  41.4885  45.4333  45.4333

          k =-0.1250 0.1250-0.1250 (  1167 PWs)   bands (ev):

   -85.3007 -45.6050 -45.5772 -45.5772   9.4262  15.7353  16.0122  16.0122
    16.9543  16.9543  38.6330  42.5453  44.3470

          k =-0.2500 0.2500-0.2500 (  1152 PWs)   bands (ev):

   -85.2888 -45.6828 -45.5885 -45.5885  11.0739  15.5072  16.0945  16.0945
    17.0934  17.0934  32.3541  41.5911  43.2329

          k =-0.3750 0.3750-0.3750 (  1155 PWs)   bands (ev):

   -85.2768 -45.7611 -45.5997 -45.5997  12.8261  15.9355  15.9355  16.1237
    17.5211  17.5211  26.7634  40.4730  42.6878

          k = 0.5000-0.5000 0.5000 (  1158 PWs)   bands (ev):

   -85.2718 -45.7934 -45.6043 -45.6043  13.2892  15.8439  15.8439  17.5442
    17.7395  17.7395  23.7712  39.9919  42.5708

          k = 0.0000 0.2500 0.0000 (  1155 PWs)   bands (ev):

   -85.2991 -45.6039 -45.5844 -45.5844   9.6249  15.5988  16.1201  16.1201
    16.7364  17.1006  40.2000  41.5271  41.5271

          k =-0.1250 0.3750-0.1250 (  1151 PWs)   bands (ev):

   -85.2895 -45.6616 -45.5978 -45.5943  10.9260  15.3048  16.1594  16.3108
    16.8095  17.2559  34.8149  39.6867  40.1752

          k =-0.2500 0.5000-0.2500 (  1151 PWs)   bands (ev):

   -85.2775 -45.7356 -45.6094 -45.6090  12.7590  15.2943  15.8439  16.2340
    17.6017  17.6982  28.8374  38.8129  38.9429

          k = 0.6250-0.3750 0.6250 (  1149 PWs)   bands (ev):

   -85.2702 -45.7798 -45.6235 -45.6117  13.5966  15.5364  16.0881  16.1681
    17.7545  19.3140  24.3520  37.1997  39.4825

          k = 0.5000-0.2500 0.5000 (  1147 PWs)   bands (ev):

   -85.2719 -45.7691 -45.6279 -45.6043  13.4872  15.6388  15.9694  16.0877
    17.4608  18.8987  25.5566  36.1779  41.4200

          k = 0.3750-0.1250 0.3750 (  1147 PWs)   bands (ev):

   -85.2815 -45.7112 -45.6184 -45.5911  12.1886  15.3233  15.9312  16.2585
    16.9003  17.8132  30.7551  36.1559  43.1098

          k = 0.2500 0.0000 0.2500 (  1159 PWs)   bands (ev):

   -85.2934 -45.6431 -45.5977 -45.5798  10.3872  15.4928  16.1099  16.2179
    16.7115  17.2111  36.6119  37.4607  45.0386

          k = 0.0000 0.5000 0.0000 (  1174 PWs)   bands (ev):

   -85.2832 -45.6789 -45.6140 -45.6140  11.7381  14.9265  16.3340  16.7521
    16.7521  17.3550  37.1396  37.1396  37.9057

          k =-0.1250 0.6250-0.1250 (  1147 PWs)   bands (ev):

   -85.2736 -45.7260 -45.6332 -45.6268  13.0770  14.6700  16.0793  16.8796
    17.6394  17.8454  31.7587  35.0310  35.8439

          k = 0.7500-0.2500 0.7500 (  1150 PWs)   bands (ev):

   -85.2663 -45.7559 -45.6615 -45.6297  14.0344  14.7232  15.8495  16.7267
    17.7930  20.3326  26.4395  32.4832  36.0568

          k = 0.6250-0.1250 0.6250 (  1146 PWs)   bands (ev):

   -85.2656 -45.7500 -45.6830 -45.6202  14.3541  14.9422  15.6175  16.5976
    17.4859  21.5572  25.0091  30.8721  37.8120

          k = 0.5000 0.0000 0.5000 (  1135 PWs)   bands (ev):

   -85.2719 -45.7304 -45.6658 -45.6042  13.7550  15.1829  15.4509  16.5420
    16.9718  19.1826  29.4937  30.8275  40.7972

          k = 0.0000 0.7500 0.0000 (  1150 PWs)   bands (ev):

   -85.2673 -45.7517 -45.6430 -45.6430  13.3401  14.2950  17.5353  17.5353
    17.6154  17.7260  31.3472  33.9192  33.9192

          k = 0.8750-0.1250 0.8750 (  1146 PWs)   bands (ev):

   -85.2624 -45.7665 -45.6645 -45.6475  13.6637  14.2340  16.9781  17.4456
    17.8462  20.5065  28.6856  29.9821  33.6071

          k = 0.7500 0.0000 0.7500 (  1144 PWs)   bands (ev):

   -85.2616 -45.7454 -45.7015 -45.6382  14.1780  14.4802  16.1378  17.1532
    17.6612  23.7111  25.2623  27.9160  35.0301

          k = 0.0000-1.0000 0.0000 (  1162 PWs)   bands (ev):

   -85.2607 -45.7815 -45.6553 -45.6553  13.4459  14.0442  17.7250  17.9242
    17.9242  20.2922  27.2309  32.6892  32.6892

          k =-0.2500 0.5000 0.0000 (  1153 PWs)   bands (ev):

   -85.2799 -45.7027 -45.6291 -45.6024  12.3635  15.0233  15.8607  16.7662
    16.8120  17.8479  33.2011  33.8957  39.2590

          k = 0.6250-0.3750 0.8750 (  1146 PWs)   bands (ev):

   -85.2702 -45.7451 -45.6536 -45.6156  13.8294  15.0493  15.5025  16.5994
    17.4179  19.2905  27.7953  33.3262  36.4208

          k = 0.5000-0.2500 0.7500 (  1154 PWs)   bands (ev):

   -85.2663 -45.7636 -45.6614 -45.6228  14.2032  15.0301  15.7126  16.4693
    17.6612  21.3864  24.1386  33.8756  34.7759

          k = 0.7500-0.2500 1.0000 (  1142 PWs)   bands (ev):

   -85.2663 -45.7475 -45.6605 -45.6381  13.8141  14.5235  16.0215  17.3266
    17.5315  19.6013  30.6735  31.2874  32.2412

          k = 0.6250-0.1250 0.8750 (  1153 PWs)   bands (ev):

   -85.2623 -45.7436 -45.6928 -45.6434  14.3162  14.6741  15.6857  17.0029
    17.7641  22.7886  26.0266  29.6759  31.9130

          k = 0.5000 0.0000 0.7500 (  1153 PWs)   bands (ev):

   -85.2640 -45.7316 -45.7030 -45.6321  14.6040  14.9091  15.1989  16.8527
    17.5390  21.9520  26.7953  29.0606  33.7022

          k =-0.2500-1.0000 0.0000 (  1152 PWs)   bands (ev):

   -85.2607 -45.7629 -45.6737 -45.6559  13.8412  14.3193  16.5992  17.3838
    17.9247  22.2949  27.4316  29.6696  30.7284

          k =-0.5000-1.0000 0.0000 (  1144 PWs)   bands (ev):

   -85.2607 -45.7183 -45.7183 -45.6565  14.3591  15.1687  15.1687  16.9142
    17.9253  25.7097  25.7097  27.9460  29.0148

     the Fermi energy is    17.7547 ev

!    total energy              =    -339.60568357 Ry
     Harris-Foulkes estimate   =    -339.60568357 Ry
     estimated scf accuracy    <          1.9E-10 Ry

     The total energy is the sum of the following terms:

     one-electron contribution =    -186.66605686 Ry
     hartree contribution      =     104.77212899 Ry
     xc contribution           =     -34.32623678 Ry
     ewald contribution        =    -223.38275369 Ry
     smearing contrib. (-TS)   =      -0.00276523 Ry

     convergence has been achieved in   6 iterations

     Forces acting on atoms (cartesian axes, Ry/au):

     atom    1 type  1   force =     0.00000000    0.00000000    0.00000000

     Total force =     0.000000     Total SCF correction =     0.000000


     Computing stress (Cartesian axis) and pressure

          total   stress  (Ry/bohr**3)                   (kbar)     P=  -13.26
  -0.00009011   0.00000000   0.00000000        -13.26      0.00      0.00
   0.00000000  -0.00009011   0.00000000          0.00    -13.26      0.00
   0.00000000   0.00000000  -0.00009011          0.00      0.00    -13.26


     Writing output data file Ni.save/

     init_run     :      0.32s CPU      0.34s WALL (       1 calls)
     electrons    :      3.15s CPU      3.28s WALL (       1 calls)
     forces       :      0.05s CPU      0.05s WALL (       1 calls)
     stress       :      0.16s CPU      0.16s WALL (       1 calls)

     Called by init_run:
     wfcinit      :      0.13s CPU      0.13s WALL (       1 calls)
     potinit      :      0.01s CPU      0.01s WALL (       1 calls)
     hinit0       :      0.17s CPU      0.17s WALL (       1 calls)

     Called by electrons:
     c_bands      :      2.56s CPU      2.67s WALL (       7 calls)
     sum_band     :      0.50s CPU      0.52s WALL (       7 calls)
     v_of_rho     :      0.03s CPU      0.04s WALL (       7 calls)
     newd         :      0.06s CPU      0.07s WALL (       7 calls)
     mix_rho      :      0.00s CPU      0.00s WALL (       7 calls)

     Called by c_bands:
     init_us_2    :      0.07s CPU      0.07s WALL (     493 calls)
     cegterg      :      2.47s CPU      2.58s WALL (     203 calls)

     Called by sum_band:
     sum_band:bec :      0.00s CPU      0.00s WALL (     203 calls)
     addusdens    :      0.06s CPU      0.06s WALL (       7 calls)

     Called by *egterg:
     h_psi        :      1.89s CPU      1.98s WALL (     734 calls)
     s_psi        :      0.06s CPU      0.06s WALL (     734 calls)
     g_psi        :      0.01s CPU      0.01s WALL (     502 calls)
     cdiaghg      :      0.24s CPU      0.25s WALL (     676 calls)

     Called by h_psi:
     h_psi:pot    :      1.88s CPU      1.97s WALL (     734 calls)
     h_psi:calbec :      0.09s CPU      0.09s WALL (     734 calls)
     vloc_psi     :      1.73s CPU      1.81s WALL (     734 calls)
     add_vuspsi   :      0.06s CPU      0.06s WALL (     734 calls)

     General routines
     calbec       :      0.14s CPU      0.15s WALL (    1082 calls)
     fft          :      0.02s CPU      0.03s WALL (     104 calls)
     ffts         :      0.00s CPU      0.00s WALL (       7 calls)
     fftw         :      1.95s CPU      2.03s WALL (   16143 calls)

     Parallel routines
     fft_scatt_xy :      0.17s CPU      0.18s WALL (   16254 calls)
     fft_scatt_yz :      0.52s CPU      0.54s WALL (   16254 calls)

     PWSCF        :     4.39s CPU         4.59s WALL


   This run was terminated on:  23: 6:47  26Mar2024            

=------------------------------------------------------------------------------=
   JOB DONE.
=------------------------------------------------------------------------------=
