
     Program PWSCF v.6.3MaX starts on 26Mar2024 at 22:35:41 

     This program is part of the open-source Quantum ESPRESSO suite
     for quantum simulation of materials; please cite
         "P. Giannozzi et al., J. Phys.:Condens. Matter 21 395502 (2009);
         "P. Giannozzi et al., J. Phys.:Condens. Matter 29 465901 (2017);
          URL http://www.quantum-espresso.org", 
     in publications or presentations arising from this work. More details at
     http://www.quantum-espresso.org/quote

     Parallel version (MPI), running on     5 processors

     MPI processes distributed on     1 nodes
     R & G space division:  proc/nbgrp/npool/nimage =       5
     Waiting for input...
     Reading input from standard input

     Current dimensions of program PWSCF are:
     Max number of different atomic species (ntypx) = 10
     Max number of k-points (npk) =  40000
     Max angular momentum in pseudopotentials (lmaxx) =  3
               file Ni.pbe-spn-kjpaw_psl.1.0.0.UPF: wavefunction(s)  3P 3D renormalized

     Subspace diagonalization in iterative solution of the eigenvalue problem:
     a serial algorithm will be used


     Parallelization info
     --------------------
     sticks:   dense  smooth     PW     G-vecs:    dense   smooth      PW
     Min          49      49     17                  513      513     106
     Max          51      51     17                  513      513     107
     Sum         253     253     85                 2565     2565     531



     bravais-lattice index     =            2
     lattice parameter (alat)  =       6.6500  a.u.
     unit-cell volume          =      73.5199 (a.u.)^3
     number of atoms/cell      =            1
     number of atomic types    =            1
     number of electrons       =        18.00
     number of Kohn-Sham states=           13
     kinetic-energy cutoff     =      40.0000  Ry
     charge density cutoff     =     160.0000  Ry
     convergence threshold     =      1.0E-08
     mixing beta               =       0.7000
     number of iterations used =            8  plain     mixing
     Exchange-correlation      = SLA PW PBX PBC ( 1  4  3  4 0 0)

     celldm(1)=   6.650000  celldm(2)=   0.000000  celldm(3)=   0.000000
     celldm(4)=   0.000000  celldm(5)=   0.000000  celldm(6)=   0.000000

     crystal axes: (cart. coord. in units of alat)
               a(1) = (  -0.500000   0.000000   0.500000 )  
               a(2) = (   0.000000   0.500000   0.500000 )  
               a(3) = (  -0.500000   0.500000   0.000000 )  

     reciprocal axes: (cart. coord. in units 2 pi/alat)
               b(1) = ( -1.000000 -1.000000  1.000000 )  
               b(2) = (  1.000000  1.000000  1.000000 )  
               b(3) = ( -1.000000  1.000000 -1.000000 )  


     PseudoPot. # 1 for Ni read from file:
     /home/lorenzo/pseudos/Ni/Ni.pbe-spn-kjpaw_psl.1.0.0.UPF
     MD5 check sum: 6e86b733589c3ad8389697b807d86aa7
     Pseudo is Projector augmented-wave + core cor, Zval = 18.0
     Generated using "atomic" code by A. Dal Corso v.6.3
     Shape of augmentation charge: PSQ
     Using radial grid of 1195 points,  6 beta functions with: 
                l(1) =   0
                l(2) =   0
                l(3) =   1
                l(4) =   1
                l(5) =   2
                l(6) =   2
     Q(r) pseudized with 0 coefficients 


     atomic species   valence    mass     pseudopotential
        Ni            18.00    58.69340     Ni( 1.00)

     48 Sym. Ops., with inversion, found



   Cartesian axes

     site n.     atom                  positions (alat units)
         1           Ni  tau(   1) = (   0.0000000   0.0000000   0.0000000  )

     number of k points=    35  gaussian smearing, width (Ry)=  0.0100
                       cart. coord. in units 2pi/alat
        k(    1) = (   0.0000000   0.0000000   0.0000000), wk =   0.0027435
        k(    2) = (  -0.1111111   0.1111111  -0.1111111), wk =   0.0219479
        k(    3) = (  -0.2222222   0.2222222  -0.2222222), wk =   0.0219479
        k(    4) = (  -0.3333333   0.3333333  -0.3333333), wk =   0.0219479
        k(    5) = (  -0.4444444   0.4444444  -0.4444444), wk =   0.0219479
        k(    6) = (   0.0000000   0.2222222   0.0000000), wk =   0.0164609
        k(    7) = (  -0.1111111   0.3333333  -0.1111111), wk =   0.0658436
        k(    8) = (  -0.2222222   0.4444444  -0.2222222), wk =   0.0658436
        k(    9) = (  -0.3333333   0.5555556  -0.3333333), wk =   0.0658436
        k(   10) = (   0.5555556  -0.3333333   0.5555556), wk =   0.0658436
        k(   11) = (   0.4444444  -0.2222222   0.4444444), wk =   0.0658436
        k(   12) = (   0.3333333  -0.1111111   0.3333333), wk =   0.0658436
        k(   13) = (   0.2222222  -0.0000000   0.2222222), wk =   0.0329218
        k(   14) = (   0.0000000   0.4444444   0.0000000), wk =   0.0164609
        k(   15) = (  -0.1111111   0.5555556  -0.1111111), wk =   0.0658436
        k(   16) = (  -0.2222222   0.6666667  -0.2222222), wk =   0.0658436
        k(   17) = (   0.6666667  -0.2222222   0.6666667), wk =   0.0658436
        k(   18) = (   0.5555556  -0.1111111   0.5555556), wk =   0.0658436
        k(   19) = (   0.4444444   0.0000000   0.4444444), wk =   0.0329218
        k(   20) = (   0.0000000   0.6666667   0.0000000), wk =   0.0164609
        k(   21) = (  -0.1111111   0.7777778  -0.1111111), wk =   0.0658436
        k(   22) = (   0.7777778  -0.1111111   0.7777778), wk =   0.0658436
        k(   23) = (   0.6666667  -0.0000000   0.6666667), wk =   0.0329218
        k(   24) = (   0.0000000   0.8888889   0.0000000), wk =   0.0164609
        k(   25) = (   0.8888889   0.0000000   0.8888889), wk =   0.0329218
        k(   26) = (  -0.2222222   0.4444444   0.0000000), wk =   0.0658436
        k(   27) = (  -0.3333333   0.5555556  -0.1111111), wk =   0.1316872
        k(   28) = (   0.5555556  -0.3333333   0.7777778), wk =   0.1316872
        k(   29) = (  -0.2222222   0.6666667   0.0000000), wk =   0.0658436
        k(   30) = (   0.6666667  -0.2222222   0.8888889), wk =   0.1316872
        k(   31) = (   0.5555556  -0.1111111   0.7777778), wk =   0.1316872
        k(   32) = (   0.4444444   0.0000000   0.6666667), wk =   0.0658436
        k(   33) = (   0.7777778  -0.1111111   1.0000000), wk =   0.0658436
        k(   34) = (   0.6666667  -0.0000000   0.8888889), wk =   0.0658436
        k(   35) = (   0.5555556  -0.1111111   1.0000000), wk =   0.0658436

     Dense  grid:     2565 G-vectors     FFT dimensions: (  20,  20,  20)

     Estimated max dynamical RAM per process >       3.43 MB

     Estimated total dynamical RAM >      17.16 MB

     Check: negative/imaginary core charge=   -0.000044    0.000000

     Initial potential from superposition of free atoms

     starting charge   17.99975, renormalised to   18.00000
     Starting wfcs are   10 randomized atomic wfcs +    3 random wfcs
     Checking if some PAW data can be deallocated... 

     total cpu time spent up to now is        1.1 secs

     Self-consistent Calculation

     iteration #  1     ecut=    40.00 Ry     beta= 0.70
     Davidson diagonalization with overlap
     ethr =  1.00E-02,  avg # of iterations =  4.6

     Threshold (ethr) on eigenvalues was too large:
     Diagonalizing with lowered threshold

     Davidson diagonalization with overlap
     ethr =  1.70E-04,  avg # of iterations =  1.3

     total cpu time spent up to now is        1.9 secs

     total energy              =    -428.63316708 Ry
     Harris-Foulkes estimate   =    -428.64787149 Ry
     estimated scf accuracy    <       0.03157751 Ry

     iteration #  2     ecut=    40.00 Ry     beta= 0.70
     Davidson diagonalization with overlap
     ethr =  1.75E-04,  avg # of iterations =  2.1

     total cpu time spent up to now is        2.3 secs

     total energy              =    -428.62597145 Ry
     Harris-Foulkes estimate   =    -428.65136046 Ry
     estimated scf accuracy    <       0.05911534 Ry

     iteration #  3     ecut=    40.00 Ry     beta= 0.70
     Davidson diagonalization with overlap
     ethr =  1.75E-04,  avg # of iterations =  2.0

     total cpu time spent up to now is        2.6 secs

     total energy              =    -428.64015169 Ry
     Harris-Foulkes estimate   =    -428.64231697 Ry
     estimated scf accuracy    <       0.00780758 Ry

     iteration #  4     ecut=    40.00 Ry     beta= 0.70
     Davidson diagonalization with overlap
     ethr =  4.34E-05,  avg # of iterations =  1.6

     total cpu time spent up to now is        2.9 secs

     total energy              =    -428.64110107 Ry
     Harris-Foulkes estimate   =    -428.64111128 Ry
     estimated scf accuracy    <       0.00006993 Ry

     iteration #  5     ecut=    40.00 Ry     beta= 0.70
     Davidson diagonalization with overlap
     ethr =  3.88E-07,  avg # of iterations =  2.2

     total cpu time spent up to now is        3.2 secs

     total energy              =    -428.64112899 Ry
     Harris-Foulkes estimate   =    -428.64113144 Ry
     estimated scf accuracy    <       0.00000852 Ry

     iteration #  6     ecut=    40.00 Ry     beta= 0.70
     Davidson diagonalization with overlap
     ethr =  4.73E-08,  avg # of iterations =  1.1

     total cpu time spent up to now is        3.5 secs

     total energy              =    -428.64112979 Ry
     Harris-Foulkes estimate   =    -428.64112987 Ry
     estimated scf accuracy    <       0.00000028 Ry

     iteration #  7     ecut=    40.00 Ry     beta= 0.70
     Davidson diagonalization with overlap
     ethr =  1.54E-09,  avg # of iterations =  2.1

     total cpu time spent up to now is        3.8 secs

     End of self-consistent calculation

          k = 0.0000 0.0000 0.0000 (   331 PWs)   bands (ev):

   -85.7516 -45.5895 -45.5895 -45.5895   8.9514  15.8150  15.8150  15.8150
    16.8505  16.8505  41.4622  45.4016  45.4016

          k =-0.1111 0.1111-0.1111 (   319 PWs)   bands (ev):

   -85.7437 -45.5032 -45.5032 -45.3796   9.4483  15.8207  15.9633  15.9633
    16.9156  16.9156  39.2113  42.6845  44.4094

          k =-0.2222 0.2222-0.2222 (   311 PWs)   bands (ev):

   -85.7315 -45.4132 -45.3769 -45.3769  10.7860  15.5634  16.1470  16.1470
    17.0795  17.0795  33.7180  41.8457  43.3262

          k =-0.3333 0.3333-0.3333 (   308 PWs)   bands (ev):

   -85.7182 -45.3881 -45.3385 -45.3385  12.4704  15.7461  16.0458  16.0458
    17.5309  17.5309  28.5668  40.8084  42.7224

          k =-0.4444 0.4444-0.4444 (   317 PWs)   bands (ev):

   -85.7125 -45.5142 -45.4268 -45.4268  13.3519  15.8948  15.8948  17.0948
    17.6870  17.6870  24.6861  40.0858  42.5299

          k = 0.0000 0.2222 0.0000 (   315 PWs)   bands (ev):

   -85.7409 -45.4281 -45.4281 -45.3849   9.6131  15.6690  16.1228  16.1228
    16.7829  17.0517  40.3105  41.9522  41.9522

          k =-0.1111 0.3333-0.1111 (   316 PWs)   bands (ev):

   -85.7337 -45.4955 -45.4506 -45.3880  10.6425  15.4179  16.2240  16.2651
    16.7338  17.1743  35.8552  40.2434  40.5565

          k =-0.2222 0.4444-0.2222 (   315 PWs)   bands (ev):

   -85.7215 -45.4854 -45.4406 -45.3826  12.2652  15.3036  15.9870  16.2361
    17.3679  17.5208  30.4675  39.3459  39.5049

          k =-0.3333 0.5556-0.3333 (   312 PWs)   bands (ev):

   -85.7113 -45.4941 -45.4117 -45.3111  13.4805  15.6797  16.0277  16.1525
    17.7483  18.4702  25.9429  38.2585  39.3910

          k = 0.5556-0.3333 0.5556 (   316 PWs)   bands (ev):

   -85.7097 -45.4967 -45.4329 -45.4221  13.6940  15.6589  16.0572  16.3727
    17.6695  19.3167  24.1590  37.1463  40.4972

          k = 0.4444-0.2222 0.4444 (   313 PWs)   bands (ev):

   -85.7144 -45.5265 -45.3635 -45.3624  13.2119  15.7179  15.8387  16.1385
    17.4101  18.2656  27.3051  36.6661  41.8267

          k = 0.3333-0.1111 0.3333 (   313 PWs)   bands (ev):

   -85.7253 -45.4409 -45.4271 -45.3809  11.7155  15.3909  16.0389  16.2825
    16.8968  17.5847  32.2122  36.9557  43.6867

          k = 0.2222-0.0000 0.2222 (   317 PWs)   bands (ev):

   -85.7376 -45.4903 -45.4647 -45.4099  10.2099  15.6140  16.1151  16.1152
    16.7556  17.0967  37.3218  38.4051  44.6754

          k = 0.0000 0.4444 0.0000 (   307 PWs)   bands (ev):

   -85.7254 -45.3988 -45.3988 -45.2485  11.3414  15.1272  16.5209  16.6974
    16.6974  17.2883  37.9555  37.9555  38.8068

          k =-0.1111 0.5556-0.1111 (   316 PWs)   bands (ev):

   -85.7191 -45.5448 -45.4410 -45.4101  12.5856  14.8543  16.0954  16.7900
    17.3673  17.5053  32.9691  36.6002  36.7446

          k =-0.2222 0.6667-0.2222 (   318 PWs)   bands (ev):

   -85.7110 -45.5963 -45.4565 -45.4245  13.7634  14.8526  15.8175  16.6843
    17.7444  18.9539  28.0366  34.4402  36.3440

          k = 0.6667-0.2222 0.6667 (   311 PWs)   bands (ev):

   -85.7043 -45.4150 -45.4073 -45.3853  14.2724  15.0366  15.8197  16.5876
    17.7463  21.3391  24.4952  32.6938  37.2910

          k = 0.5556-0.1111 0.5556 (   313 PWs)   bands (ev):

   -85.7072 -45.4849 -45.4255 -45.3445  14.2087  15.2474  15.5292  16.5535
    17.3618  20.0985  26.6209  31.7446  39.3594

          k = 0.4444 0.0000 0.4444 (   315 PWs)   bands (ev):

   -85.7165 -45.5230 -45.4792 -45.3427  13.1686  15.2301  15.6930  16.5962
    16.8506  18.4410  30.8741  32.1062  42.2553

          k = 0.0000 0.6667 0.0000 (   323 PWs)   bands (ev):

   -85.7154 -45.6364 -45.5225 -45.5225  13.1169  14.4945  16.8638  17.2564
    17.2564  17.4715  33.4439  34.7359  34.7359

          k =-0.1111 0.7778-0.1111 (   318 PWs)   bands (ev):

   -85.7069 -45.5728 -45.4803 -45.4584  13.6288  14.3572  16.7888  17.3012
    17.8072  19.1069  30.5415  31.2907  34.0554

          k = 0.7778-0.1111 0.7778 (   311 PWs)   bands (ev):

   -85.7004 -45.4355 -45.4300 -45.3578  14.1224  14.5312  16.3318  17.1783
    17.8463  22.1475  26.5145  29.1745  34.7056

          k = 0.6667-0.0000 0.6667 (   309 PWs)   bands (ev):

   -85.7005 -45.3943 -45.3766 -45.3452  14.5907  14.7509  15.7544  16.9729
    17.5907  22.8358  25.4268  28.7075  36.5840

          k = 0.0000 0.8889 0.0000 (   322 PWs)   bands (ev):

   -85.7043 -45.6105 -45.5243 -45.5243  13.4925  14.1140  17.6432  17.8320
    17.8320  19.4724  28.3685  32.8867  32.8867

          k = 0.8889 0.0000 0.8889 (   314 PWs)   bands (ev):

   -85.7001 -45.4907 -45.4889 -45.3905  13.7193  14.1755  17.3336  17.5450
    17.9482  21.2330  27.4779  30.1823  33.1206

          k =-0.2222 0.4444 0.0000 (   314 PWs)   bands (ev):

   -85.7243 -45.4741 -45.4353 -45.3826  11.8536  15.1681  16.0305  16.6684
    16.7769  17.5684  34.2343  35.0574  40.7197

          k =-0.3333 0.5556-0.1111 (   315 PWs)   bands (ev):

   -85.7147 -45.5374 -45.4351 -45.3820  13.3467  15.1184  15.6591  16.5843
    17.3198  18.4480  29.3751  34.1882  38.1489

          k = 0.5556-0.3333 0.7778 (   315 PWs)   bands (ev):

   -85.7075 -45.5139 -45.4348 -45.3915  14.0914  15.2236  15.7729  16.4269
    17.6426  20.2278  25.1769  34.4415  36.2117

          k =-0.2222 0.6667 0.0000 (   318 PWs)   bands (ev):

   -85.7118 -45.6048 -45.4609 -45.4190  13.5316  14.6633  15.9652  17.2132
    17.3454  18.5567  31.7414  32.4294  34.3384

          k = 0.6667-0.2222 0.8889 (   311 PWs)   bands (ev):

   -85.7030 -45.4421 -45.4211 -45.3528  14.2463  14.7429  15.7488  17.0549
    17.7673  20.9082  27.4182  31.5676  32.7409

          k = 0.5556-0.1111 0.7778 (   314 PWs)   bands (ev):

   -85.7025 -45.4909 -45.4387 -45.3864  14.6853  14.7539  15.5382  16.8204
    17.6862  22.8819  24.8736  30.2413  33.6550

          k = 0.4444 0.0000 0.6667 (   314 PWs)   bands (ev):

   -85.7064 -45.4545 -45.4535 -45.4025  14.4192  15.1188  15.1649  16.8238
    17.3790  20.3687  28.2649  30.1311  35.5855

          k = 0.7778-0.1111 1.0000 (   314 PWs)   bands (ev):

   -85.7012 -45.4822 -45.4472 -45.4235  13.8461  14.3449  16.7035  17.4402
    17.9213  21.1594  28.6139  30.2432  31.3784

          k = 0.6667-0.0000 0.8889 (   316 PWs)   bands (ev):

   -85.7005 -45.5129 -45.5003 -45.3714  14.1765  14.5970  16.0718  17.1925
    17.8785  23.5811  26.3965  28.0863  31.8541

          k = 0.5556-0.1111 1.0000 (   313 PWs)   bands (ev):

   -85.7001 -45.4811 -45.4340 -45.3703  14.4346  15.0204  15.4464  16.9754
    17.8945  23.6417  26.7069  28.7613  30.2280

     the Fermi energy is    17.7803 ev

!    total energy              =    -428.64112985 Ry
     Harris-Foulkes estimate   =    -428.64112986 Ry
     estimated scf accuracy    <          6.1E-09 Ry

     total all-electron energy =     -3041.073237 Ry

     The total energy is the sum of the following terms:

     one-electron contribution =    -184.29409282 Ry
     hartree contribution      =     104.30255176 Ry
     xc contribution           =     -34.30209636 Ry
     ewald contribution        =    -223.38275372 Ry
     one-center paw contrib.   =     -90.96253110 Ry
     smearing contrib. (-TS)   =      -0.00220761 Ry

     convergence has been achieved in   7 iterations

     Forces acting on atoms (cartesian axes, Ry/au):

     atom    1 type  1   force =     0.00000000    0.00000000    0.00000000

     Total force =     0.000000     Total SCF correction =     0.000000


     Computing stress (Cartesian axis) and pressure

          total   stress  (Ry/bohr**3)                   (kbar)     P=-6186.34
  -0.04205391  -0.00000000  -0.00000000      -6186.34     -0.00     -0.00
  -0.00000000  -0.04205391  -0.00000000         -0.00  -6186.34     -0.00
  -0.00000000   0.00000000  -0.04205391         -0.00      0.00  -6186.34


     Writing output data file Ni.save/

     init_run     :      0.28s CPU      0.30s WALL (       1 calls)
     electrons    :      2.40s CPU      2.66s WALL (       1 calls)
     forces       :      0.02s CPU      0.02s WALL (       1 calls)
     stress       :      0.06s CPU      0.06s WALL (       1 calls)

     Called by init_run:
     wfcinit      :      0.06s CPU      0.06s WALL (       1 calls)
     potinit      :      0.10s CPU      0.11s WALL (       1 calls)
     hinit0       :      0.11s CPU      0.12s WALL (       1 calls)

     Called by electrons:
     c_bands      :      1.52s CPU      1.63s WALL (       8 calls)
     sum_band     :      0.25s CPU      0.27s WALL (       8 calls)
     v_of_rho     :      0.01s CPU      0.01s WALL (       8 calls)
     newd         :      0.02s CPU      0.02s WALL (       8 calls)
     PAW_pot      :      0.69s CPU      0.82s WALL (       8 calls)
     mix_rho      :      0.00s CPU      0.00s WALL (       8 calls)

     Called by c_bands:
     init_us_2    :      0.03s CPU      0.03s WALL (     665 calls)
     cegterg      :      1.47s CPU      1.58s WALL (     280 calls)

     Called by sum_band:
     sum_band:bec :      0.00s CPU      0.00s WALL (     280 calls)
     addusdens    :      0.02s CPU      0.02s WALL (       8 calls)

     Called by *egterg:
     h_psi        :      1.00s CPU      1.08s WALL (     905 calls)
     s_psi        :      0.03s CPU      0.03s WALL (     905 calls)
     g_psi        :      0.00s CPU      0.00s WALL (     590 calls)
     cdiaghg      :      0.30s CPU      0.32s WALL (     835 calls)

     Called by h_psi:
     h_psi:pot    :      1.00s CPU      1.07s WALL (     905 calls)
     h_psi:calbec :      0.04s CPU      0.05s WALL (     905 calls)
     vloc_psi     :      0.92s CPU      0.98s WALL (     905 calls)
     add_vuspsi   :      0.03s CPU      0.04s WALL (     905 calls)

     General routines
     calbec       :      0.07s CPU      0.07s WALL (    1360 calls)
     fft          :      0.01s CPU      0.01s WALL (     115 calls)
     ffts         :      0.00s CPU      0.00s WALL (       8 calls)
     fftw         :      1.02s CPU      1.09s WALL (   21638 calls)

     Parallel routines
     fft_scatt_xy :      0.09s CPU      0.10s WALL (   21761 calls)
     fft_scatt_yz :      0.30s CPU      0.32s WALL (   21761 calls)

     PWSCF        :     3.62s CPU         3.94s WALL


   This run was terminated on:  22:35:45  26Mar2024            

=------------------------------------------------------------------------------=
   JOB DONE.
=------------------------------------------------------------------------------=
