
     Program PWSCF v.6.3MaX starts on 26Mar2024 at 23: 1: 8 

     This program is part of the open-source Quantum ESPRESSO suite
     for quantum simulation of materials; please cite
         "P. Giannozzi et al., J. Phys.:Condens. Matter 21 395502 (2009);
         "P. Giannozzi et al., J. Phys.:Condens. Matter 29 465901 (2017);
          URL http://www.quantum-espresso.org", 
     in publications or presentations arising from this work. More details at
     http://www.quantum-espresso.org/quote

     Parallel version (MPI), running on     5 processors

     MPI processes distributed on     1 nodes
     R & G space division:  proc/nbgrp/npool/nimage =       5
     Waiting for input...
     Reading input from standard input

     Current dimensions of program PWSCF are:
     Max number of different atomic species (ntypx) = 10
     Max number of k-points (npk) =  40000
     Max angular momentum in pseudopotentials (lmaxx) =  3
               file Ni.pbe-spn-kjpaw_psl.1.0.0.UPF: wavefunction(s)  3P 3D renormalized

     Subspace diagonalization in iterative solution of the eigenvalue problem:
     a serial algorithm will be used


     Parallelization info
     --------------------
     sticks:   dense  smooth     PW     G-vecs:    dense   smooth      PW
     Min         111     111     33                 1688     1688     294
     Max         112     112     35                 1689     1689     295
     Sum         559     559    169                 8441     8441    1471



     bravais-lattice index     =            2
     lattice parameter (alat)  =       6.6500  a.u.
     unit-cell volume          =      73.5199 (a.u.)^3
     number of atoms/cell      =            1
     number of atomic types    =            1
     number of electrons       =        18.00
     number of Kohn-Sham states=           13
     kinetic-energy cutoff     =      90.0000  Ry
     charge density cutoff     =     360.0000  Ry
     convergence threshold     =      1.0E-08
     mixing beta               =       0.7000
     number of iterations used =            8  plain     mixing
     Exchange-correlation      = SLA PW PBX PBC ( 1  4  3  4 0 0)

     celldm(1)=   6.650000  celldm(2)=   0.000000  celldm(3)=   0.000000
     celldm(4)=   0.000000  celldm(5)=   0.000000  celldm(6)=   0.000000

     crystal axes: (cart. coord. in units of alat)
               a(1) = (  -0.500000   0.000000   0.500000 )  
               a(2) = (   0.000000   0.500000   0.500000 )  
               a(3) = (  -0.500000   0.500000   0.000000 )  

     reciprocal axes: (cart. coord. in units 2 pi/alat)
               b(1) = ( -1.000000 -1.000000  1.000000 )  
               b(2) = (  1.000000  1.000000  1.000000 )  
               b(3) = ( -1.000000  1.000000 -1.000000 )  


     PseudoPot. # 1 for Ni read from file:
     /home/lorenzo/pseudos/Ni/Ni.pbe-spn-kjpaw_psl.1.0.0.UPF
     MD5 check sum: 6e86b733589c3ad8389697b807d86aa7
     Pseudo is Projector augmented-wave + core cor, Zval = 18.0
     Generated using "atomic" code by A. Dal Corso v.6.3
     Shape of augmentation charge: PSQ
     Using radial grid of 1195 points,  6 beta functions with: 
                l(1) =   0
                l(2) =   0
                l(3) =   1
                l(4) =   1
                l(5) =   2
                l(6) =   2
     Q(r) pseudized with 0 coefficients 


     atomic species   valence    mass     pseudopotential
        Ni            18.00    58.69340     Ni( 1.00)

     48 Sym. Ops., with inversion, found



   Cartesian axes

     site n.     atom                  positions (alat units)
         1           Ni  tau(   1) = (   0.0000000   0.0000000   0.0000000  )

     number of k points=    56  gaussian smearing, width (Ry)=  0.0100
                       cart. coord. in units 2pi/alat
        k(    1) = (   0.0000000   0.0000000   0.0000000), wk =   0.0015026
        k(    2) = (  -0.0909091   0.0909091  -0.0909091), wk =   0.0120210
        k(    3) = (  -0.1818182   0.1818182  -0.1818182), wk =   0.0120210
        k(    4) = (  -0.2727273   0.2727273  -0.2727273), wk =   0.0120210
        k(    5) = (  -0.3636364   0.3636364  -0.3636364), wk =   0.0120210
        k(    6) = (  -0.4545455   0.4545455  -0.4545455), wk =   0.0120210
        k(    7) = (   0.0000000   0.1818182   0.0000000), wk =   0.0090158
        k(    8) = (  -0.0909091   0.2727273  -0.0909091), wk =   0.0360631
        k(    9) = (  -0.1818182   0.3636364  -0.1818182), wk =   0.0360631
        k(   10) = (  -0.2727273   0.4545455  -0.2727273), wk =   0.0360631
        k(   11) = (  -0.3636364   0.5454545  -0.3636364), wk =   0.0360631
        k(   12) = (   0.5454545  -0.3636364   0.5454545), wk =   0.0360631
        k(   13) = (   0.4545455  -0.2727273   0.4545455), wk =   0.0360631
        k(   14) = (   0.3636364  -0.1818182   0.3636364), wk =   0.0360631
        k(   15) = (   0.2727273  -0.0909091   0.2727273), wk =   0.0360631
        k(   16) = (   0.1818182  -0.0000000   0.1818182), wk =   0.0180316
        k(   17) = (   0.0000000   0.3636364   0.0000000), wk =   0.0090158
        k(   18) = (  -0.0909091   0.4545455  -0.0909091), wk =   0.0360631
        k(   19) = (  -0.1818182   0.5454545  -0.1818182), wk =   0.0360631
        k(   20) = (  -0.2727273   0.6363636  -0.2727273), wk =   0.0360631
        k(   21) = (   0.6363636  -0.2727273   0.6363636), wk =   0.0360631
        k(   22) = (   0.5454545  -0.1818182   0.5454545), wk =   0.0360631
        k(   23) = (   0.4545455  -0.0909091   0.4545455), wk =   0.0360631
        k(   24) = (   0.3636364   0.0000000   0.3636364), wk =   0.0180316
        k(   25) = (   0.0000000   0.5454545   0.0000000), wk =   0.0090158
        k(   26) = (  -0.0909091   0.6363636  -0.0909091), wk =   0.0360631
        k(   27) = (  -0.1818182   0.7272727  -0.1818182), wk =   0.0360631
        k(   28) = (   0.7272727  -0.1818182   0.7272727), wk =   0.0360631
        k(   29) = (   0.6363636  -0.0909091   0.6363636), wk =   0.0360631
        k(   30) = (   0.5454545   0.0000000   0.5454545), wk =   0.0180316
        k(   31) = (   0.0000000   0.7272727   0.0000000), wk =   0.0090158
        k(   32) = (  -0.0909091   0.8181818  -0.0909091), wk =   0.0360631
        k(   33) = (   0.8181818  -0.0909091   0.8181818), wk =   0.0360631
        k(   34) = (   0.7272727   0.0000000   0.7272727), wk =   0.0180316
        k(   35) = (   0.0000000   0.9090909   0.0000000), wk =   0.0090158
        k(   36) = (   0.9090909  -0.0000000   0.9090909), wk =   0.0180316
        k(   37) = (  -0.1818182   0.3636364   0.0000000), wk =   0.0360631
        k(   38) = (  -0.2727273   0.4545455  -0.0909091), wk =   0.0721262
        k(   39) = (  -0.3636364   0.5454545  -0.1818182), wk =   0.0721262
        k(   40) = (   0.5454545  -0.3636364   0.7272727), wk =   0.0721262
        k(   41) = (  -0.1818182   0.5454545   0.0000000), wk =   0.0360631
        k(   42) = (  -0.2727273   0.6363636  -0.0909091), wk =   0.0721262
        k(   43) = (   0.6363636  -0.2727273   0.8181818), wk =   0.0721262
        k(   44) = (   0.5454545  -0.1818182   0.7272727), wk =   0.0721262
        k(   45) = (   0.4545455  -0.0909091   0.6363636), wk =   0.0721262
        k(   46) = (   0.3636364   0.0000000   0.5454545), wk =   0.0360631
        k(   47) = (  -0.1818182   0.7272727   0.0000000), wk =   0.0360631
        k(   48) = (   0.7272727  -0.1818182   0.9090909), wk =   0.0721262
        k(   49) = (   0.6363636  -0.0909091   0.8181818), wk =   0.0721262
        k(   50) = (   0.5454545   0.0000000   0.7272727), wk =   0.0360631
        k(   51) = (   0.8181818  -0.0909091   1.0000000), wk =   0.0360631
        k(   52) = (   0.7272727   0.0000000   0.9090909), wk =   0.0360631
        k(   53) = (   0.6363636  -0.2727273   1.0000000), wk =   0.0360631
        k(   54) = (   0.5454545  -0.1818182   0.9090909), wk =   0.0721262
        k(   55) = (   0.6363636  -0.0909091   1.0000000), wk =   0.0360631
        k(   56) = (   0.5454545   0.0000000   0.9090909), wk =   0.0360631

     Dense  grid:     8441 G-vectors     FFT dimensions: (  30,  30,  30)

     Estimated max dynamical RAM per process >      10.32 MB

     Estimated total dynamical RAM >      51.58 MB

     Check: negative/imaginary core charge=   -0.000002    0.000000

     Initial potential from superposition of free atoms

     starting charge   17.99975, renormalised to   18.00000
     Starting wfcs are   10 randomized atomic wfcs +    3 random wfcs
     Checking if some PAW data can be deallocated... 

     total cpu time spent up to now is        1.5 secs

     Self-consistent Calculation

     iteration #  1     ecut=    90.00 Ry     beta= 0.70
     Davidson diagonalization with overlap
     ethr =  1.00E-02,  avg # of iterations =  3.6

     Threshold (ethr) on eigenvalues was too large:
     Diagonalizing with lowered threshold

     Davidson diagonalization with overlap
     ethr =  1.89E-05,  avg # of iterations =  2.8

     total cpu time spent up to now is        3.4 secs

     total energy              =    -429.15698867 Ry
     Harris-Foulkes estimate   =    -429.15891792 Ry
     estimated scf accuracy    <       0.00338409 Ry

     iteration #  2     ecut=    90.00 Ry     beta= 0.70
     Davidson diagonalization with overlap
     ethr =  1.88E-05,  avg # of iterations =  2.3

     total cpu time spent up to now is        4.4 secs

     total energy              =    -429.15623969 Ry
     Harris-Foulkes estimate   =    -429.16027144 Ry
     estimated scf accuracy    <       0.01089688 Ry

     iteration #  3     ecut=    90.00 Ry     beta= 0.70
     Davidson diagonalization with overlap
     ethr =  1.88E-05,  avg # of iterations =  2.1

     total cpu time spent up to now is        5.4 secs

     total energy              =    -429.15821609 Ry
     Harris-Foulkes estimate   =    -429.15827732 Ry
     estimated scf accuracy    <       0.00021504 Ry

     iteration #  4     ecut=    90.00 Ry     beta= 0.70
     Davidson diagonalization with overlap
     ethr =  1.19E-06,  avg # of iterations =  1.5

     total cpu time spent up to now is        6.1 secs

     total energy              =    -429.15824776 Ry
     Harris-Foulkes estimate   =    -429.15824755 Ry
     estimated scf accuracy    <       0.00000039 Ry

     iteration #  5     ecut=    90.00 Ry     beta= 0.70
     Davidson diagonalization with overlap
     ethr =  2.19E-09,  avg # of iterations =  3.6

     total cpu time spent up to now is        7.3 secs

     total energy              =    -429.15824863 Ry
     Harris-Foulkes estimate   =    -429.15824866 Ry
     estimated scf accuracy    <       0.00000009 Ry

     iteration #  6     ecut=    90.00 Ry     beta= 0.70
     Davidson diagonalization with overlap
     ethr =  5.16E-10,  avg # of iterations =  1.0

     total cpu time spent up to now is        8.1 secs

     End of self-consistent calculation

          k = 0.0000 0.0000 0.0000 (  1067 PWs)   bands (ev):

   -85.3180 -45.5797 -45.5797 -45.5797   8.8212  15.8879  15.8879  15.8879
    16.9931  16.9931  41.4869  45.4331  45.4331

          k =-0.0909 0.0909-0.0909 (  1046 PWs)   bands (ev):

   -85.3153 -45.5964 -45.5820 -45.5820   9.1437  15.8012  15.9585  15.9585
    16.9648  16.9648  40.1320  42.9397  44.7284

          k =-0.1818 0.1818-0.1818 (  1043 PWs)   bands (ev):

   -85.3081 -45.6441 -45.5885 -45.5885  10.0716  15.6052  16.0845  16.0845
    16.9619  16.9619  35.7765  42.1500  43.7720

          k =-0.2727 0.2727-0.2727 (  1062 PWs)   bands (ev):

   -85.2987 -45.7067 -45.5976 -45.5976  11.4363  15.5098  16.0718  16.0718
    17.1600  17.1600  31.2548  41.3776  43.0925

          k =-0.3636 0.3636-0.3636 (  1053 PWs)   bands (ev):

   -85.2900 -45.7627 -45.6057 -45.6057  12.7143  15.9480  15.9480  15.9916
    17.4809  17.4809  27.2127  40.5586  42.7153

          k =-0.4545 0.4545-0.4545 (  1062 PWs)   bands (ev):

   -85.2848 -45.7965 -45.6107 -45.6107  13.2404  15.8540  15.8540  17.2403
    17.7052  17.7052  24.2677  40.0583  42.5812

          k = 0.0000 0.1818 0.0000 (  1038 PWs)   bands (ev):

   -85.3144 -45.5960 -45.5857 -45.5857   9.2505  15.7289  16.0106  16.0106
    16.8493  17.0493  40.6869  42.8128  42.8128

          k =-0.0909 0.2727-0.0909 (  1041 PWs)   bands (ev):

   -85.3087 -45.6314 -45.5938 -45.5905   9.9754  15.5374  16.1416  16.1550
    16.7455  17.1074  37.5252  41.1914  41.3412

          k =-0.1818 0.3636-0.1818 (  1055 PWs)   bands (ev):

   -85.3000 -45.6876 -45.6034 -45.5989  11.2062  15.3593  16.0873  16.2117
    16.9586  17.2742  32.9319  40.3703  40.4397

          k =-0.2727 0.4545-0.2727 (  1061 PWs)   bands (ev):

   -85.2911 -45.7443 -45.6116 -45.6094  12.5755  15.4700  15.8975  16.1226
    17.5183  17.5464  28.6710  39.6416  39.9443

          k =-0.3636 0.5455-0.3636 (  1060 PWs)   bands (ev):

   -85.2848 -45.7837 -45.6188 -45.6155  13.3413  15.7041  16.0077  16.2103
    17.7319  18.4018  25.1704  38.8120  40.1433

          k = 0.5455-0.3636 0.5455 (  1064 PWs)   bands (ev):

   -85.2831 -45.7947 -45.6240 -45.6140  13.4719  15.6898  15.9595  16.5594
    17.6939  19.0091  23.8834  38.0803  41.0502

          k = 0.4545-0.2727 0.4545 (  1053 PWs)   bands (ev):

   -85.2865 -45.7725 -45.6230 -45.6077  13.1873  15.7872  15.9882  16.0122
    17.4249  18.2578  26.2161  37.6949  41.5864

          k = 0.3636-0.1818 0.3636 (  1059 PWs)   bands (ev):

   -85.2940 -45.7260 -45.6164 -45.5986  12.1533  15.4235  15.9663  16.1431
    17.0363  17.6700  30.0419  37.7799  42.7863

          k = 0.2727-0.0909 0.2727 (  1053 PWs)   bands (ev):

   -85.3032 -45.6686 -45.6055 -45.5894  10.7551  15.4470  16.0966  16.2164
    16.7608  17.2664  34.4477  38.3322  44.2328

          k = 0.1818-0.0000 0.1818 (  1043 PWs)   bands (ev):

   -85.3111 -45.6201 -45.5924 -45.5831   9.6687  15.6526  16.0664  16.0668
    16.8221  17.0560  38.6372  39.7877  44.3302

          k = 0.0000 0.3636 0.0000 (  1050 PWs)   bands (ev):

   -85.3048 -45.6422 -45.6034 -45.6034  10.4723  15.3137  16.3637  16.3637
    16.5071  17.2012  39.4266  39.4386  39.4387

          k =-0.0909 0.4545-0.0909 (  1057 PWs)   bands (ev):

   -85.2977 -45.6820 -45.6143 -45.6135  11.4794  15.0786  16.1619  16.5301
    16.8651  17.3451  35.0055  38.1189  39.0344

          k =-0.1818 0.5455-0.1818 (  1058 PWs)   bands (ev):

   -85.2895 -45.7286 -45.6267 -45.6229  12.7399  14.9647  15.8624  16.5076
    17.5939  17.6727  30.6022  37.4241  37.4503

          k =-0.2727 0.6364-0.2727 (  1056 PWs)   bands (ev):

   -85.2829 -45.7647 -45.6418 -45.6265  13.6615  15.0953  15.7526  16.3932
    17.7641  19.0180  26.6931  35.7402  37.5137

          k = 0.6364-0.2727 0.6364 (  1071 PWs)   bands (ev):

   -85.2800 -45.7794 -45.6543 -45.6245  13.9448  15.2144  15.9128  16.3005
    17.7046  20.6041  24.0792  34.3974  38.3584

          k = 0.5455-0.1818 0.5455 (  1068 PWs)   bands (ev):

   -85.2817 -45.7683 -45.6587 -45.6168  13.8753  15.3643  15.7096  16.2889
    17.4076  19.7951  25.6281  33.5793  39.9485

          k = 0.4545-0.0909 0.4545 (  1064 PWs)   bands (ev):

   -85.2875 -45.7379 -45.6515 -45.6062  13.2045  15.2526  15.6647  16.3765
    16.9728  18.5634  29.2793  33.3592  42.1540

          k = 0.3636 0.0000 0.3636 (  1065 PWs)   bands (ev):

   -85.2955 -45.7011 -45.6316 -45.5961  11.9188  15.2498  15.9427  16.5330
    16.5511  17.7882  33.2439  34.0269  43.8428

          k = 0.0000 0.5455 0.0000 (  1054 PWs)   bands (ev):

   -85.2923 -45.7008 -45.6267 -45.6267  12.1631  14.7938  16.3557  16.8929
    16.8929  17.4032  36.4434  36.4434  36.7620

          k =-0.0909 0.6364-0.0909 (  1056 PWs)   bands (ev):

   -85.2856 -45.7326 -45.6405 -45.6367  13.0269  14.5966  16.2765  17.0146
    17.6032  17.6682  32.8359  34.6059  35.4604

          k =-0.1818 0.7273-0.1818 (  1054 PWs)   bands (ev):

   -85.2798 -45.7565 -45.6609 -45.6407  13.7515  14.5645  16.0648  16.9255
    17.7905  19.3099  28.8306  32.5577  35.2856

          k = 0.7273-0.1818 0.7273 (  1061 PWs)   bands (ev):

   -85.2767 -45.7619 -45.6847 -45.6382  14.2086  14.6627  15.8682  16.7987
    17.7394  21.6416  25.3511  30.9749  35.9709

          k = 0.6364-0.0909 0.6364 (  1064 PWs)   bands (ev):

   -85.2772 -45.7502 -45.7012 -45.6295  14.4485  14.8469  15.5804  16.6932
    17.4587  21.8900  25.2722  29.9674  37.4520

          k = 0.5455 0.0000 0.5455 (  1063 PWs)   bands (ev):

   -85.2812 -45.7415 -45.6884 -45.6177  14.1694  15.2391  15.2399  16.5924
    17.1136  19.9240  28.3309  30.0166  39.5734

          k = 0.0000 0.7273 0.0000 (  1054 PWs)   bands (ev):

   -85.2808 -45.7537 -45.6479 -45.6479  13.2847  14.3380  17.4604  17.4680
    17.4680  17.5921  31.9269  34.1414  34.1414

          k =-0.0909 0.8182-0.0909 (  1055 PWs)   bands (ev):

   -85.2765 -45.7701 -45.6617 -45.6533  13.5469  14.2415  17.0883  17.4501
    17.8051  19.3605  29.8082  31.4079  33.6630

          k = 0.8182-0.0909 0.8182 (  1061 PWs)   bands (ev):

   -85.2741 -45.7681 -45.6861 -45.6514  13.8739  14.3310  16.5747  17.3077
    17.8002  21.7647  27.6483  28.5335  34.1177

          k = 0.7273 0.0000 0.7273 (  1067 PWs)   bands (ev):

   -85.2743 -45.7465 -45.7151 -45.6427  14.2845  14.5316  15.9843  17.0713
    17.6101  24.1705  24.5489  28.0349  35.4411

          k = 0.0000 0.9091 0.0000 (  1054 PWs)   bands (ev):

   -85.2740 -45.7850 -45.6602 -45.6602  13.4454  14.0763  17.7061  17.8648
    17.8648  19.7530  27.9621  32.8569  32.8569

          k = 0.9091-0.0000 0.9091 (  1064 PWs)   bands (ev):

   -85.2731 -45.7838 -45.6700 -45.6599  13.5574  14.1123  17.4417  17.6267
    17.8860  20.9868  27.2770  30.8181  33.0179

          k =-0.1818 0.3636 0.0000 (  1054 PWs)   bands (ev):

   -85.3023 -45.6642 -45.6111 -45.5956  10.8552  15.3189  16.1336  16.3791
    16.6749  17.3000  36.0964  36.8159  42.7773

          k =-0.2727 0.4545-0.0909 (  1060 PWs)   bands (ev):

   -85.2939 -45.7105 -45.6278 -45.6037  12.1388  15.1637  15.9034  16.4352
    16.9399  17.7439  31.8643  35.7912  40.7430

          k =-0.3636 0.5455-0.1818 (  1054 PWs)   bands (ev):

   -85.2861 -45.7541 -45.6389 -45.6133  13.3207  15.3014  15.6841  16.3116
    17.3945  18.5213  27.7628  35.5880  38.8280

          k = 0.5455-0.3636 0.7273 (  1057 PWs)   bands (ev):

   -85.2815 -45.7806 -45.6442 -45.6201  13.7794  15.3854  15.9413  16.2132
    17.6544  19.8326  24.5629  35.8702  37.4223

          k =-0.1818 0.5455 0.0000 (  1058 PWs)   bands (ev):

   -85.2907 -45.7127 -45.6352 -45.6198  12.4866  14.8624  15.9614  16.8942
    16.9955  17.7292  33.8162  34.3422  37.5684

          k =-0.2727 0.6364-0.0909 (  1055 PWs)   bands (ev):

   -85.2838 -45.7432 -45.6542 -45.6284  13.5318  14.7935  15.6977  16.8306
    17.4436  18.7017  29.8137  33.7059  35.4307

          k = 0.6364-0.2727 0.8182 (  1069 PWs)   bands (ev):

   -85.2789 -45.7624 -45.6704 -45.6343  14.1447  14.8678  15.6150  16.6743
    17.6807  20.4871  26.0928  33.3088  34.3316

          k = 0.5455-0.1818 0.7273 (  1064 PWs)   bands (ev):

   -85.2777 -45.7641 -45.6805 -45.6320  14.3443  14.9107  15.6245  16.5743
    17.6225  21.8059  24.3588  32.1885  35.1303

          k = 0.4545-0.0909 0.6364 (  1065 PWs)   bands (ev):

   -85.2806 -45.7511 -45.6783 -45.6235  14.1599  15.1014  15.3426  16.6228
    17.3336  20.0181  27.2682  31.5436  36.6206

          k = 0.3636 0.0000 0.5455 (  1059 PWs)   bands (ev):

   -85.2866 -45.7318 -45.6583 -45.6124  13.3143  15.0414  15.5735  16.7106
    16.9341  18.6187  30.8571  31.8653  38.5753

          k =-0.1818 0.7273 0.0000 (  1061 PWs)   bands (ev):

   -85.2802 -45.7532 -45.6575 -45.6448  13.5532  14.4541  16.3181  17.4251
    17.4655  18.8054  31.9779  31.9784  32.9092

          k = 0.7273-0.1818 0.9091 (  1065 PWs)   bands (ev):

   -85.2760 -45.7606 -45.6792 -45.6501  13.9754  14.4920  16.0842  17.2025
    17.7454  20.8129  28.3829  30.3847  32.5078

          k = 0.6364-0.0909 0.8182 (  1069 PWs)   bands (ev):

   -85.2746 -45.7494 -45.7062 -45.6467  14.3521  14.6242  15.7574  16.9744
    17.7134  23.4024  25.0963  29.0904  33.3072

          k = 0.5455 0.0000 0.7273 (  1058 PWs)   bands (ev):

   -85.2763 -45.7359 -45.7157 -45.6361  14.6446  14.7717  15.3531  16.8228
    17.4902  22.1107  26.3578  28.8635  34.7360

          k = 0.8182-0.0909 1.0000 (  1060 PWs)   bands (ev):

   -85.2739 -45.7759 -45.6705 -45.6605  13.6717  14.2177  16.9526  17.5388
    17.8646  20.9469  28.1224  30.9086  31.5966

          k = 0.7273 0.0000 0.9091 (  1066 PWs)   bands (ev):

   -85.2732 -45.7646 -45.6907 -45.6581  13.9511  14.3875  16.3948  17.2946
    17.8619  22.7759  27.3176  28.1197  31.9860

          k = 0.6364-0.2727 1.0000 (  1060 PWs)   bands (ev):

   -85.2785 -45.7486 -45.6828 -45.6385  14.1973  14.8011  15.4154  17.0381
    17.4644  20.3015  29.0201  30.3544  33.2732

          k = 0.5455-0.1818 0.9091 (  1065 PWs)   bands (ev):

   -85.2753 -45.7461 -45.7029 -45.6471  14.5098  14.8555  15.3164  16.8787
    17.6961  22.5886  25.8897  30.3695  31.6673

          k = 0.6364-0.0909 1.0000 (  1063 PWs)   bands (ev):

   -85.2737 -45.7520 -45.6973 -45.6604  14.1824  14.6497  15.8005  17.1036
    17.8635  22.9676  27.9667  28.6081  29.8260

          k = 0.5455 0.0000 0.9091 (  1059 PWs)   bands (ev):

   -85.2734 -45.7323 -45.7204 -45.6590  14.3803  14.9327  15.3830  16.9277
    17.8617  25.1961  25.2326  28.2413  30.1784

     the Fermi energy is    17.7403 ev

!    total energy              =    -429.15824863 Ry
     Harris-Foulkes estimate   =    -429.15824863 Ry
     estimated scf accuracy    <          5.3E-09 Ry

     total all-electron energy =     -3041.590356 Ry

     The total energy is the sum of the following terms:

     one-electron contribution =    -185.12178859 Ry
     hartree contribution      =     104.76508923 Ry
     xc contribution           =     -34.32481390 Ry
     ewald contribution        =    -223.38275369 Ry
     one-center paw contrib.   =     -91.09119825 Ry
     smearing contrib. (-TS)   =      -0.00278344 Ry

     convergence has been achieved in   6 iterations

     Forces acting on atoms (cartesian axes, Ry/au):

     atom    1 type  1   force =     0.00000000    0.00000000    0.00000000

     Total force =     0.000000     Total SCF correction =     0.000000


     Computing stress (Cartesian axis) and pressure

          total   stress  (Ry/bohr**3)                   (kbar)     P=  -36.69
  -0.00024941  -0.00000000   0.00000000        -36.69     -0.00      0.00
  -0.00000000  -0.00024941   0.00000000         -0.00    -36.69      0.00
   0.00000000  -0.00000000  -0.00024941          0.00     -0.00    -36.69


     Writing output data file Ni.save/

     init_run     :      0.74s CPU      0.78s WALL (       1 calls)
     electrons    :      6.24s CPU      6.58s WALL (       1 calls)
     forces       :      0.07s CPU      0.07s WALL (       1 calls)
     stress       :      0.21s CPU      0.21s WALL (       1 calls)

     Called by init_run:
     wfcinit      :      0.41s CPU      0.43s WALL (       1 calls)
     potinit      :      0.11s CPU      0.12s WALL (       1 calls)
     hinit0       :      0.19s CPU      0.19s WALL (       1 calls)

     Called by electrons:
     c_bands      :      4.78s CPU      4.98s WALL (       7 calls)
     sum_band     :      0.85s CPU      0.89s WALL (       7 calls)
     v_of_rho     :      0.03s CPU      0.04s WALL (       7 calls)
     newd         :      0.06s CPU      0.08s WALL (       7 calls)
     PAW_pot      :      0.61s CPU      0.71s WALL (       7 calls)
     mix_rho      :      0.00s CPU      0.00s WALL (       7 calls)

     Called by c_bands:
     init_us_2    :      0.13s CPU      0.13s WALL (     952 calls)
     cegterg      :      4.61s CPU      4.80s WALL (     392 calls)

     Called by sum_band:
     sum_band:bec :      0.00s CPU      0.00s WALL (     392 calls)
     addusdens    :      0.06s CPU      0.06s WALL (       7 calls)

     Called by *egterg:
     h_psi        :      3.67s CPU      3.84s WALL (    1394 calls)
     s_psi        :      0.12s CPU      0.13s WALL (    1394 calls)
     g_psi        :      0.01s CPU      0.01s WALL (     946 calls)
     cdiaghg      :      0.51s CPU      0.53s WALL (    1282 calls)

     Called by h_psi:
     h_psi:pot    :      3.65s CPU      3.82s WALL (    1394 calls)
     h_psi:calbec :      0.16s CPU      0.17s WALL (    1394 calls)
     vloc_psi     :      3.36s CPU      3.51s WALL (    1394 calls)
     add_vuspsi   :      0.12s CPU      0.12s WALL (    1394 calls)

     General routines
     calbec       :      0.26s CPU      0.27s WALL (    2066 calls)
     fft          :      0.02s CPU      0.02s WALL (     104 calls)
     ffts         :      0.01s CPU      0.01s WALL (       7 calls)
     fftw         :      3.75s CPU      3.92s WALL (   31782 calls)

     Parallel routines
     fft_scatt_xy :      0.34s CPU      0.36s WALL (   31893 calls)
     fft_scatt_yz :      0.85s CPU      0.88s WALL (   31893 calls)

     PWSCF        :     8.06s CPU         8.51s WALL


   This run was terminated on:  23: 1:16  26Mar2024            

=------------------------------------------------------------------------------=
   JOB DONE.
=------------------------------------------------------------------------------=
