
     Program PWSCF v.6.3MaX starts on 26Mar2024 at 22:58:24 

     This program is part of the open-source Quantum ESPRESSO suite
     for quantum simulation of materials; please cite
         "P. Giannozzi et al., J. Phys.:Condens. Matter 21 395502 (2009);
         "P. Giannozzi et al., J. Phys.:Condens. Matter 29 465901 (2017);
          URL http://www.quantum-espresso.org", 
     in publications or presentations arising from this work. More details at
     http://www.quantum-espresso.org/quote

     Parallel version (MPI), running on     5 processors

     MPI processes distributed on     1 nodes
     R & G space division:  proc/nbgrp/npool/nimage =       5
     Waiting for input...
     Reading input from standard input

     Current dimensions of program PWSCF are:
     Max number of different atomic species (ntypx) = 10
     Max number of k-points (npk) =  40000
     Max angular momentum in pseudopotentials (lmaxx) =  3

     Subspace diagonalization in iterative solution of the eigenvalue problem:
     a serial algorithm will be used


     Parallelization info
     --------------------
     sticks:   dense  smooth     PW     G-vecs:    dense   smooth      PW
     Min         102     102     32                 1559     1559     258
     Max         103     103     33                 1562     1562     259
     Sum         511     511    163                 7799     7799    1291



     bravais-lattice index     =            2
     lattice parameter (alat)  =       6.6500  a.u.
     unit-cell volume          =      73.5199 (a.u.)^3
     number of atoms/cell      =            1
     number of atomic types    =            1
     number of electrons       =        18.00
     number of Kohn-Sham states=           13
     kinetic-energy cutoff     =      85.0000  Ry
     charge density cutoff     =     340.0000  Ry
     convergence threshold     =      1.0E-08
     mixing beta               =       0.7000
     number of iterations used =            8  plain     mixing
     Exchange-correlation      = PBE ( 1  4  3  4 0 0)

     celldm(1)=   6.650000  celldm(2)=   0.000000  celldm(3)=   0.000000
     celldm(4)=   0.000000  celldm(5)=   0.000000  celldm(6)=   0.000000

     crystal axes: (cart. coord. in units of alat)
               a(1) = (  -0.500000   0.000000   0.500000 )  
               a(2) = (   0.000000   0.500000   0.500000 )  
               a(3) = (  -0.500000   0.500000   0.000000 )  

     reciprocal axes: (cart. coord. in units 2 pi/alat)
               b(1) = ( -1.000000 -1.000000  1.000000 )  
               b(2) = (  1.000000  1.000000  1.000000 )  
               b(3) = ( -1.000000  1.000000 -1.000000 )  


     PseudoPot. # 1 for Ni read from file:
     /home/lorenzo/pseudos/Ni/Ni.pbe-spn-rrkjus_psl.1.0.0.UPF
     MD5 check sum: 8b3fc9aac6dafe35f580d41bb18c3945
     Pseudo is Ultrasoft + core correction, Zval = 18.0
     Generated using "atomic" code by A. Dal Corso v.6.3
     Using radial grid of 1195 points,  6 beta functions with: 
                l(1) =   0
                l(2) =   0
                l(3) =   1
                l(4) =   1
                l(5) =   2
                l(6) =   2
     Q(r) pseudized with 0 coefficients 


     atomic species   valence    mass     pseudopotential
        Ni            18.00    58.69340     Ni( 1.00)

     48 Sym. Ops., with inversion, found



   Cartesian axes

     site n.     atom                  positions (alat units)
         1           Ni  tau(   1) = (   0.0000000   0.0000000   0.0000000  )

     number of k points=     3  gaussian smearing, width (Ry)=  0.0100
                       cart. coord. in units 2pi/alat
        k(    1) = (   0.0000000   0.0000000   0.0000000), wk =   0.2500000
        k(    2) = (   0.5000000  -0.5000000   0.5000000), wk =   1.0000000
        k(    3) = (   0.0000000  -1.0000000   0.0000000), wk =   0.7500000

     Dense  grid:     7799 G-vectors     FFT dimensions: (  27,  27,  27)

     Estimated max dynamical RAM per process >       7.51 MB

     Estimated total dynamical RAM >      37.53 MB

     Check: negative/imaginary core charge=   -0.000003    0.000000

     Initial potential from superposition of free atoms

     starting charge   17.99975, renormalised to   18.00000
     Starting wfcs are   10 randomized atomic wfcs +    3 random wfcs

     total cpu time spent up to now is        1.1 secs

     Self-consistent Calculation

     iteration #  1     ecut=    85.00 Ry     beta= 0.70
     Davidson diagonalization with overlap
     ethr =  1.00E-02,  avg # of iterations =  6.0

     Threshold (ethr) on eigenvalues was too large:
     Diagonalizing with lowered threshold

     Davidson diagonalization with overlap
     ethr =  4.69E-05,  avg # of iterations =  2.3

     total cpu time spent up to now is        1.2 secs

     total energy              =    -339.41409543 Ry
     Harris-Foulkes estimate   =    -339.41556240 Ry
     estimated scf accuracy    <       0.00840072 Ry

     iteration #  2     ecut=    85.00 Ry     beta= 0.70
     Davidson diagonalization with overlap
     ethr =  4.67E-05,  avg # of iterations =  1.0

     total cpu time spent up to now is        1.2 secs

     total energy              =    -339.41419845 Ry
     Harris-Foulkes estimate   =    -339.41429468 Ry
     estimated scf accuracy    <       0.00029905 Ry

     iteration #  3     ecut=    85.00 Ry     beta= 0.70
     Davidson diagonalization with overlap
     ethr =  1.66E-06,  avg # of iterations =  2.3

     total cpu time spent up to now is        1.3 secs

     total energy              =    -339.41406119 Ry
     Harris-Foulkes estimate   =    -339.41469516 Ry
     estimated scf accuracy    <       0.00349681 Ry

     iteration #  4     ecut=    85.00 Ry     beta= 0.70
     Davidson diagonalization with overlap
     ethr =  1.66E-06,  avg # of iterations =  2.3

     total cpu time spent up to now is        1.4 secs

     total energy              =    -339.41427525 Ry
     Harris-Foulkes estimate   =    -339.41427832 Ry
     estimated scf accuracy    <       0.00002363 Ry

     iteration #  5     ecut=    85.00 Ry     beta= 0.70
     Davidson diagonalization with overlap
     ethr =  1.31E-07,  avg # of iterations =  1.0

     total cpu time spent up to now is        1.4 secs

     total energy              =    -339.41427703 Ry
     Harris-Foulkes estimate   =    -339.41427843 Ry
     estimated scf accuracy    <       0.00000808 Ry

     iteration #  6     ecut=    85.00 Ry     beta= 0.70
     Davidson diagonalization with overlap
     ethr =  4.49E-08,  avg # of iterations =  1.0

     total cpu time spent up to now is        1.5 secs

     total energy              =    -339.41427763 Ry
     Harris-Foulkes estimate   =    -339.41427830 Ry
     estimated scf accuracy    <       0.00000313 Ry

     iteration #  7     ecut=    85.00 Ry     beta= 0.70
     Davidson diagonalization with overlap
     ethr =  1.74E-08,  avg # of iterations =  1.0

     total cpu time spent up to now is        1.5 secs

     total energy              =    -339.41427807 Ry
     Harris-Foulkes estimate   =    -339.41427829 Ry
     estimated scf accuracy    <       0.00000272 Ry

     iteration #  8     ecut=    85.00 Ry     beta= 0.70
     Davidson diagonalization with overlap
     ethr =  1.51E-08,  avg # of iterations =  1.0

     total cpu time spent up to now is        1.6 secs

     total energy              =    -339.41427810 Ry
     Harris-Foulkes estimate   =    -339.41427815 Ry
     estimated scf accuracy    <       0.00000026 Ry

     iteration #  9     ecut=    85.00 Ry     beta= 0.70
     Davidson diagonalization with overlap
     ethr =  1.44E-09,  avg # of iterations =  1.3

     total cpu time spent up to now is        1.6 secs

     total energy              =    -339.41427813 Ry
     Harris-Foulkes estimate   =    -339.41427815 Ry
     estimated scf accuracy    <       0.00000013 Ry

     iteration # 10     ecut=    85.00 Ry     beta= 0.70
     Davidson diagonalization with overlap
     ethr =  7.31E-10,  avg # of iterations =  1.0

     total cpu time spent up to now is        1.7 secs

     total energy              =    -339.41427814 Ry
     Harris-Foulkes estimate   =    -339.41427815 Ry
     estimated scf accuracy    <       0.00000003 Ry

     iteration # 11     ecut=    85.00 Ry     beta= 0.70
     Davidson diagonalization with overlap
     ethr =  1.90E-10,  avg # of iterations =  1.0

     total cpu time spent up to now is        1.7 secs

     End of self-consistent calculation

          k = 0.0000 0.0000 0.0000 (   941 PWs)   bands (ev):

   -85.5171 -45.7740 -45.7740 -45.7740   8.8009  15.7026  15.7026  15.7026
    16.8521  16.8521  41.4267  45.4455  45.4455

          k = 0.5000-0.5000 0.5000 (   978 PWs)   bands (ev):

   -85.4834 -45.9950 -45.8064 -45.8064  13.1593  15.6894  15.6894  17.5378
    17.5574  17.5574  23.6571  40.0032  42.5217

          k = 0.0000-1.0000 0.0000 (   982 PWs)   bands (ev):

   -85.4724 -45.9827 -45.8575 -45.8575  13.3607  13.8764  17.5760  17.7171
    17.7171  20.2516  27.1760  32.6645  32.6645

     the Fermi energy is    17.6883 ev

!    total energy              =    -339.41427814 Ry
     Harris-Foulkes estimate   =    -339.41427814 Ry
     estimated scf accuracy    <          1.4E-09 Ry

     The total energy is the sum of the following terms:

     one-electron contribution =    -186.24855380 Ry
     hartree contribution      =     104.53843420 Ry
     xc contribution           =     -34.31322409 Ry
     ewald contribution        =    -223.38275369 Ry
     smearing contrib. (-TS)   =      -0.00818077 Ry

     convergence has been achieved in  11 iterations

     Forces acting on atoms (cartesian axes, Ry/au):

     atom    1 type  1   force =     0.00000000    0.00000000    0.00000000

     Total force =     0.000000     Total SCF correction =     0.000000


     Computing stress (Cartesian axis) and pressure

          total   stress  (Ry/bohr**3)                   (kbar)     P=  290.82
   0.00197698  -0.00000000  -0.00000000        290.82     -0.00     -0.00
  -0.00000000   0.00197698   0.00000000         -0.00    290.82      0.00
  -0.00000000   0.00000000   0.00197698         -0.00      0.00    290.82


     Writing output data file Ni.save/

     init_run     :      0.20s CPU      0.21s WALL (       1 calls)
     electrons    :      0.61s CPU      0.64s WALL (       1 calls)
     forces       :      0.03s CPU      0.03s WALL (       1 calls)
     stress       :      0.12s CPU      0.12s WALL (       1 calls)

     Called by init_run:
     wfcinit      :      0.02s CPU      0.02s WALL (       1 calls)
     potinit      :      0.01s CPU      0.01s WALL (       1 calls)
     hinit0       :      0.17s CPU      0.17s WALL (       1 calls)

     Called by electrons:
     c_bands      :      0.32s CPU      0.33s WALL (      12 calls)
     sum_band     :      0.16s CPU      0.17s WALL (      12 calls)
     v_of_rho     :      0.05s CPU      0.05s WALL (      12 calls)
     newd         :      0.08s CPU      0.09s WALL (      12 calls)
     mix_rho      :      0.01s CPU      0.01s WALL (      12 calls)

     Called by c_bands:
     init_us_2    :      0.01s CPU      0.01s WALL (      81 calls)
     cegterg      :      0.30s CPU      0.32s WALL (      36 calls)

     Called by sum_band:
     sum_band:bec :      0.00s CPU      0.00s WALL (      36 calls)
     addusdens    :      0.09s CPU      0.09s WALL (      12 calls)

     Called by *egterg:
     h_psi        :      0.24s CPU      0.25s WALL (     103 calls)
     s_psi        :      0.01s CPU      0.01s WALL (     103 calls)
     g_psi        :      0.00s CPU      0.00s WALL (      64 calls)
     cdiaghg      :      0.03s CPU      0.03s WALL (      97 calls)

     Called by h_psi:
     h_psi:pot    :      0.23s CPU      0.25s WALL (     103 calls)
     h_psi:calbec :      0.01s CPU      0.01s WALL (     103 calls)
     vloc_psi     :      0.21s CPU      0.23s WALL (     103 calls)
     add_vuspsi   :      0.01s CPU      0.01s WALL (     103 calls)

     General routines
     calbec       :      0.02s CPU      0.02s WALL (     154 calls)
     fft          :      0.03s CPU      0.03s WALL (     159 calls)
     ffts         :      0.00s CPU      0.00s WALL (      12 calls)
     fftw         :      0.24s CPU      0.26s WALL (    2564 calls)

     Parallel routines
     fft_scatt_xy :      0.02s CPU      0.03s WALL (    2735 calls)
     fft_scatt_yz :      0.06s CPU      0.07s WALL (    2735 calls)

     PWSCF        :     1.84s CPU         1.91s WALL


   This run was terminated on:  22:58:26  26Mar2024            

=------------------------------------------------------------------------------=
   JOB DONE.
=------------------------------------------------------------------------------=
