
     Program PWSCF v.6.3MaX starts on 26Mar2024 at 22:33:44 

     This program is part of the open-source Quantum ESPRESSO suite
     for quantum simulation of materials; please cite
         "P. Giannozzi et al., J. Phys.:Condens. Matter 21 395502 (2009);
         "P. Giannozzi et al., J. Phys.:Condens. Matter 29 465901 (2017);
          URL http://www.quantum-espresso.org", 
     in publications or presentations arising from this work. More details at
     http://www.quantum-espresso.org/quote

     Parallel version (MPI), running on     5 processors

     MPI processes distributed on     1 nodes
     R & G space division:  proc/nbgrp/npool/nimage =       5
     Waiting for input...
     Reading input from standard input

     Current dimensions of program PWSCF are:
     Max number of different atomic species (ntypx) = 10
     Max number of k-points (npk) =  40000
     Max angular momentum in pseudopotentials (lmaxx) =  3
               file Ni.pbe-spn-kjpaw_psl.1.0.0.UPF: wavefunction(s)  3P 3D renormalized

     Subspace diagonalization in iterative solution of the eigenvalue problem:
     a serial algorithm will be used


     Parallelization info
     --------------------
     sticks:   dense  smooth     PW     G-vecs:    dense   smooth      PW
     Min          49      49     17                  513      513     106
     Max          51      51     17                  513      513     107
     Sum         253     253     85                 2565     2565     531



     bravais-lattice index     =            2
     lattice parameter (alat)  =       6.6500  a.u.
     unit-cell volume          =      73.5199 (a.u.)^3
     number of atoms/cell      =            1
     number of atomic types    =            1
     number of electrons       =        18.00
     number of Kohn-Sham states=           13
     kinetic-energy cutoff     =      40.0000  Ry
     charge density cutoff     =     160.0000  Ry
     convergence threshold     =      1.0E-08
     mixing beta               =       0.7000
     number of iterations used =            8  plain     mixing
     Exchange-correlation      = SLA PW PBX PBC ( 1  4  3  4 0 0)

     celldm(1)=   6.650000  celldm(2)=   0.000000  celldm(3)=   0.000000
     celldm(4)=   0.000000  celldm(5)=   0.000000  celldm(6)=   0.000000

     crystal axes: (cart. coord. in units of alat)
               a(1) = (  -0.500000   0.000000   0.500000 )  
               a(2) = (   0.000000   0.500000   0.500000 )  
               a(3) = (  -0.500000   0.500000   0.000000 )  

     reciprocal axes: (cart. coord. in units 2 pi/alat)
               b(1) = ( -1.000000 -1.000000  1.000000 )  
               b(2) = (  1.000000  1.000000  1.000000 )  
               b(3) = ( -1.000000  1.000000 -1.000000 )  


     PseudoPot. # 1 for Ni read from file:
     /home/lorenzo/pseudos/Ni/Ni.pbe-spn-kjpaw_psl.1.0.0.UPF
     MD5 check sum: 6e86b733589c3ad8389697b807d86aa7
     Pseudo is Projector augmented-wave + core cor, Zval = 18.0
     Generated using "atomic" code by A. Dal Corso v.6.3
     Shape of augmentation charge: PSQ
     Using radial grid of 1195 points,  6 beta functions with: 
                l(1) =   0
                l(2) =   0
                l(3) =   1
                l(4) =   1
                l(5) =   2
                l(6) =   2
     Q(r) pseudized with 0 coefficients 


     atomic species   valence    mass     pseudopotential
        Ni            18.00    58.69340     Ni( 1.00)

     48 Sym. Ops., with inversion, found



   Cartesian axes

     site n.     atom                  positions (alat units)
         1           Ni  tau(   1) = (   0.0000000   0.0000000   0.0000000  )

     number of k points=    47  gaussian smearing, width (Ry)=  0.0100
                       cart. coord. in units 2pi/alat
        k(    1) = (   0.0000000   0.0000000   0.0000000), wk =   0.0020000
        k(    2) = (  -0.1000000   0.1000000  -0.1000000), wk =   0.0160000
        k(    3) = (  -0.2000000   0.2000000  -0.2000000), wk =   0.0160000
        k(    4) = (  -0.3000000   0.3000000  -0.3000000), wk =   0.0160000
        k(    5) = (  -0.4000000   0.4000000  -0.4000000), wk =   0.0160000
        k(    6) = (   0.5000000  -0.5000000   0.5000000), wk =   0.0080000
        k(    7) = (   0.0000000   0.2000000   0.0000000), wk =   0.0120000
        k(    8) = (  -0.1000000   0.3000000  -0.1000000), wk =   0.0480000
        k(    9) = (  -0.2000000   0.4000000  -0.2000000), wk =   0.0480000
        k(   10) = (  -0.3000000   0.5000000  -0.3000000), wk =   0.0480000
        k(   11) = (   0.6000000  -0.4000000   0.6000000), wk =   0.0480000
        k(   12) = (   0.5000000  -0.3000000   0.5000000), wk =   0.0480000
        k(   13) = (   0.4000000  -0.2000000   0.4000000), wk =   0.0480000
        k(   14) = (   0.3000000  -0.1000000   0.3000000), wk =   0.0480000
        k(   15) = (   0.2000000   0.0000000   0.2000000), wk =   0.0240000
        k(   16) = (   0.0000000   0.4000000   0.0000000), wk =   0.0120000
        k(   17) = (  -0.1000000   0.5000000  -0.1000000), wk =   0.0480000
        k(   18) = (  -0.2000000   0.6000000  -0.2000000), wk =   0.0480000
        k(   19) = (   0.7000000  -0.3000000   0.7000000), wk =   0.0480000
        k(   20) = (   0.6000000  -0.2000000   0.6000000), wk =   0.0480000
        k(   21) = (   0.5000000  -0.1000000   0.5000000), wk =   0.0480000
        k(   22) = (   0.4000000   0.0000000   0.4000000), wk =   0.0240000
        k(   23) = (   0.0000000   0.6000000   0.0000000), wk =   0.0120000
        k(   24) = (  -0.1000000   0.7000000  -0.1000000), wk =   0.0480000
        k(   25) = (   0.8000000  -0.2000000   0.8000000), wk =   0.0480000
        k(   26) = (   0.7000000  -0.1000000   0.7000000), wk =   0.0480000
        k(   27) = (   0.6000000  -0.0000000   0.6000000), wk =   0.0240000
        k(   28) = (   0.0000000   0.8000000   0.0000000), wk =   0.0120000
        k(   29) = (   0.9000000  -0.1000000   0.9000000), wk =   0.0480000
        k(   30) = (   0.8000000   0.0000000   0.8000000), wk =   0.0240000
        k(   31) = (   0.0000000  -1.0000000   0.0000000), wk =   0.0060000
        k(   32) = (  -0.2000000   0.4000000   0.0000000), wk =   0.0480000
        k(   33) = (  -0.3000000   0.5000000  -0.1000000), wk =   0.0960000
        k(   34) = (   0.6000000  -0.4000000   0.8000000), wk =   0.0960000
        k(   35) = (   0.5000000  -0.3000000   0.7000000), wk =   0.0480000
        k(   36) = (  -0.2000000   0.6000000   0.0000000), wk =   0.0480000
        k(   37) = (   0.7000000  -0.3000000   0.9000000), wk =   0.0960000
        k(   38) = (   0.6000000  -0.2000000   0.8000000), wk =   0.0960000
        k(   39) = (   0.5000000  -0.1000000   0.7000000), wk =   0.0960000
        k(   40) = (   0.4000000   0.0000000   0.6000000), wk =   0.0480000
        k(   41) = (   0.8000000  -0.2000000   1.0000000), wk =   0.0480000
        k(   42) = (   0.7000000  -0.1000000   0.9000000), wk =   0.0960000
        k(   43) = (   0.6000000   0.0000000   0.8000000), wk =   0.0480000
        k(   44) = (  -0.2000000  -1.0000000   0.0000000), wk =   0.0240000
        k(   45) = (   0.6000000  -0.2000000   1.0000000), wk =   0.0480000
        k(   46) = (   0.5000000  -0.1000000   0.9000000), wk =   0.0480000
        k(   47) = (  -0.4000000  -1.0000000   0.0000000), wk =   0.0240000

     Dense  grid:     2565 G-vectors     FFT dimensions: (  20,  20,  20)

     Estimated max dynamical RAM per process >       3.58 MB

     Estimated total dynamical RAM >      17.89 MB

     Check: negative/imaginary core charge=   -0.000044    0.000000

     Initial potential from superposition of free atoms

     starting charge   17.99975, renormalised to   18.00000
     Starting wfcs are   10 randomized atomic wfcs +    3 random wfcs
     Checking if some PAW data can be deallocated... 

     total cpu time spent up to now is        1.1 secs

     Self-consistent Calculation

     iteration #  1     ecut=    40.00 Ry     beta= 0.70
     Davidson diagonalization with overlap
     ethr =  1.00E-02,  avg # of iterations =  4.5

     Threshold (ethr) on eigenvalues was too large:
     Diagonalizing with lowered threshold

     Davidson diagonalization with overlap
     ethr =  1.65E-04,  avg # of iterations =  1.5

     total cpu time spent up to now is        1.8 secs

     total energy              =    -428.62784720 Ry
     Harris-Foulkes estimate   =    -428.64184706 Ry
     estimated scf accuracy    <       0.03066300 Ry

     iteration #  2     ecut=    40.00 Ry     beta= 0.70
     Davidson diagonalization with overlap
     ethr =  1.70E-04,  avg # of iterations =  2.0

     total cpu time spent up to now is        2.2 secs

     total energy              =    -428.62126013 Ry
     Harris-Foulkes estimate   =    -428.64441613 Ry
     estimated scf accuracy    <       0.05269717 Ry

     iteration #  3     ecut=    40.00 Ry     beta= 0.70
     Davidson diagonalization with overlap
     ethr =  1.70E-04,  avg # of iterations =  2.0

     total cpu time spent up to now is        2.6 secs

     total energy              =    -428.63393595 Ry
     Harris-Foulkes estimate   =    -428.63644274 Ry
     estimated scf accuracy    <       0.00888632 Ry

     iteration #  4     ecut=    40.00 Ry     beta= 0.70
     Davidson diagonalization with overlap
     ethr =  4.94E-05,  avg # of iterations =  1.6

     total cpu time spent up to now is        3.0 secs

     total energy              =    -428.63503701 Ry
     Harris-Foulkes estimate   =    -428.63504423 Ry
     estimated scf accuracy    <       0.00006451 Ry

     iteration #  5     ecut=    40.00 Ry     beta= 0.70
     Davidson diagonalization with overlap
     ethr =  3.58E-07,  avg # of iterations =  2.2

     total cpu time spent up to now is        3.4 secs

     total energy              =    -428.63506652 Ry
     Harris-Foulkes estimate   =    -428.63506900 Ry
     estimated scf accuracy    <       0.00000870 Ry

     iteration #  6     ecut=    40.00 Ry     beta= 0.70
     Davidson diagonalization with overlap
     ethr =  4.83E-08,  avg # of iterations =  1.1

     total cpu time spent up to now is        3.7 secs

     total energy              =    -428.63506736 Ry
     Harris-Foulkes estimate   =    -428.63506741 Ry
     estimated scf accuracy    <       0.00000026 Ry

     iteration #  7     ecut=    40.00 Ry     beta= 0.70
     Davidson diagonalization with overlap
     ethr =  1.46E-09,  avg # of iterations =  2.0

     total cpu time spent up to now is        4.1 secs

     End of self-consistent calculation

          k = 0.0000 0.0000 0.0000 (   331 PWs)   bands (ev):

   -85.7227 -45.5615 -45.5615 -45.5615   8.9522  15.8373  15.8373  15.8373
    16.8747  16.8747  41.4627  45.4016  45.4016

          k =-0.1000 0.1000-0.1000 (   319 PWs)   bands (ev):

   -85.7154 -45.4743 -45.4743 -45.3455   9.3611  15.8664  15.9704  15.9704
    16.9433  16.9433  39.6986  42.8113  44.5418

          k =-0.2000 0.2000-0.2000 (   311 PWs)   bands (ev):

   -85.7048 -45.3778 -45.3478 -45.3478  10.4690  15.6241  16.1725  16.1725
    17.0524  17.0524  34.8252  42.0265  43.5110

          k =-0.3000 0.3000-0.3000 (   308 PWs)   bands (ev):

   -85.6927 -45.3511 -45.3134 -45.3134  11.9981  15.6099  16.1118  16.1118
    17.4289  17.4289  30.0269  41.1145  42.8578

          k =-0.4000 0.4000-0.4000 (   320 PWs)   bands (ev):

   -85.6871 -45.5796 -45.4057 -45.4057  13.1346  15.9521  15.9521  16.4438
    17.6046  17.6046  25.9328  40.2972  42.5680

          k = 0.5000-0.5000 0.5000 (   332 PWs)   bands (ev):

   -85.6868 -45.6912 -45.5391 -45.5391  13.3661  15.8070  15.8070  17.4918
    17.6595  17.6595  23.8962  39.9825  42.5178

          k = 0.0000 0.2000 0.0000 (   315 PWs)   bands (ev):

   -85.7128 -45.3974 -45.3974 -45.3533   9.4968  15.7335  16.1117  16.1117
    16.8432  17.0617  40.4806  42.3756  42.3756

          k =-0.1000 0.3000-0.1000 (   316 PWs)   bands (ev):

   -85.7070 -45.4648 -45.4213 -45.3565  10.3445  15.5174  16.2334  16.2456
    16.7408  17.1406  36.7362  40.7889  40.8939

          k =-0.2000 0.4000-0.2000 (   310 PWs)   bands (ev):

   -85.6947 -45.4189 -45.3509 -45.2782  11.7600  15.3820  16.1074  16.2887
    17.2172  17.4651  31.8169  39.8415  40.0213

          k =-0.3000 0.5000-0.3000 (   312 PWs)   bands (ev):

   -85.6854 -45.4849 -45.3555 -45.2789  13.1261  15.6551  15.9481  16.1866
    17.7412  17.9152  27.3977  39.0424  39.5852

          k = 0.6000-0.4000 0.6000 (   315 PWs)   bands (ev):

   -85.6809 -45.4693 -45.4103 -45.3480  13.6444  15.7267  16.0591  16.4304
    17.7615  19.0206  24.3472  38.0465  40.1439

          k = 0.5000-0.3000 0.5000 (   314 PWs)   bands (ev):

   -85.6817 -45.4495 -45.3859 -45.3566  13.5678  15.7784  16.0628  16.2973
    17.6108  18.7590  25.1329  37.3481  41.2337

          k = 0.4000-0.2000 0.4000 (   315 PWs)   bands (ev):

   -85.6898 -45.5083 -45.3902 -45.3391  12.7471  15.5331  15.9379  16.1760
    17.2811  17.9145  28.7706  37.2105  42.3374

          k = 0.3000-0.1000 0.3000 (   311 PWs)   bands (ev):

   -85.6990 -45.4041 -45.3563 -45.3294  11.2566  15.4652  16.1239  16.2862
    16.8742  17.4893  33.4188  37.6821  44.0439

          k = 0.2000 0.0000 0.2000 (   315 PWs)   bands (ev):

   -85.7096 -45.4373 -45.4326 -45.3282   9.9870  15.7407  16.0893  16.1470
    16.8134  17.0700  38.0009  39.1682  44.4519

          k = 0.0000 0.4000 0.0000 (   303 PWs)   bands (ev):

   -85.6981 -45.3127 -45.3127 -45.1718  10.9435  15.3331  16.6102  16.6408
    16.6408  17.2637  38.7208  38.7208  39.0822

          k =-0.1000 0.5000-0.1000 (   314 PWs)   bands (ev):

   -85.6936 -45.4514 -45.3887 -45.3871  12.0514  15.0078  16.1511  16.7082
    17.1224  17.4667  34.0493  37.3644  38.0523

          k =-0.2000 0.6000-0.2000 (   316 PWs)   bands (ev):

   -85.6854 -45.5311 -45.3975 -45.3900  13.3309  14.9495  15.8548  16.6342
    17.7423  18.1737  29.4126  36.0495  36.8416

          k = 0.7000-0.3000 0.7000 (   314 PWs)   bands (ev):

   -85.6784 -45.4596 -45.4004 -45.3761  14.0476  15.1150  15.8307  16.5315
    17.8080  20.0774  25.5419  34.2950  37.2563

          k = 0.6000-0.2000 0.6000 (   307 PWs)   bands (ev):

   -85.6752 -45.3403 -45.3137 -45.3134  14.2218  15.2608  15.8961  16.4898
    17.6724  20.8607  24.6851  33.0972  38.6246

          k = 0.5000-0.1000 0.5000 (   314 PWs)   bands (ev):

   -85.6824 -45.4839 -45.4231 -45.3139  13.8025  15.3528  15.5609  16.5013
    17.2144  19.1610  28.0368  32.5757  40.8039

          k = 0.4000 0.0000 0.4000 (   311 PWs)   bands (ev):

   -85.6900 -45.4466 -45.4064 -45.2528  12.5617  15.2875  15.8817  16.7314
    16.7384  18.0674  32.1037  33.1635  43.1560

          k = 0.0000 0.6000 0.0000 (   311 PWs)   bands (ev):

   -85.6871 -45.4010 -45.3884 -45.3884  12.7187  14.6953  16.5226  17.2102
    17.2102  17.4978  35.2396  35.6081  35.6081

          k =-0.1000 0.7000-0.1000 (   316 PWs)   bands (ev):

   -85.6815 -45.5510 -45.4410 -45.3664  13.4376  14.5084  16.5618  17.2490
    17.6800  18.2309  31.8071  32.9686  34.7169

          k = 0.8000-0.2000 0.8000 (   317 PWs)   bands (ev):

   -85.6759 -45.4929 -45.4513 -45.4134  14.0030  14.5467  16.2502  17.0713
    17.8227  20.5368  27.7181  30.8962  34.8600

          k = 0.7000-0.1000 0.7000 (   309 PWs)   bands (ev):

   -85.6714 -45.4200 -45.3567 -45.2716  14.4701  14.7505  15.8901  16.9783
    17.7775  23.0996  24.6539  29.5557  36.0513

          k = 0.6000-0.0000 0.6000 (   319 PWs)   bands (ev):

   -85.6774 -45.5283 -45.4478 -45.3987  14.5455  14.9732  15.4108  16.7510
    17.3395  21.1380  26.9254  29.3740  38.1013

          k = 0.0000 0.8000 0.0000 (   322 PWs)   bands (ev):

   -85.6791 -45.5926 -45.5026 -45.5026  13.4708  14.2433  17.6133  17.6655
    17.6655  18.3517  30.1484  33.4305  33.4305

          k = 0.9000-0.1000 0.9000 (   316 PWs)   bands (ev):

   -85.6729 -45.5092 -45.4763 -45.3718  13.6782  14.2174  17.3268  17.5326
    17.9241  20.4966  28.3031  30.7267  33.2274

          k = 0.8000 0.0000 0.8000 (   318 PWs)   bands (ev):

   -85.6725 -45.4710 -45.4632 -45.4559  14.0142  14.4059  16.5525  17.3269
    17.8321  22.6998  26.7363  28.1038  34.1534

          k = 0.0000-1.0000 0.0000 (   302 PWs)   bands (ev):

   -85.6669 -45.3412 -45.3412 -45.1635  13.5898  14.1111  17.8009  18.2057
    18.2057  20.2545  27.5032  32.6455  32.6455

          k =-0.2000 0.4000 0.0000 (   310 PWs)   bands (ev):

   -85.6975 -45.3994 -45.3869 -45.2711  11.3722  15.2946  16.1607  16.5687
    16.8068  17.4840  35.1889  36.0261  41.8678

          k =-0.3000 0.5000-0.1000 (   316 PWs)   bands (ev):

   -85.6900 -45.5096 -45.4341 -45.3518  12.7720  15.1571  15.8496  16.5409
    17.1513  18.0052  30.7012  35.0100  39.5620

          k = 0.6000-0.4000 0.8000 (   316 PWs)   bands (ev):

   -85.6819 -45.5131 -45.4084 -45.3728  13.8058  15.3399  15.7172  16.4002
    17.5864  19.1970  26.5289  34.9921  37.5922

          k = 0.5000-0.3000 0.7000 (   310 PWs)   bands (ev):

   -85.6769 -45.3959 -45.3499 -45.3333  14.0683  15.3509  16.0250  16.3551
    17.7423  20.5605  24.2183  35.3183  36.5855

          k =-0.2000 0.6000 0.0000 (   313 PWs)   bands (ev):

   -85.6857 -45.4950 -45.3666 -45.3587  13.0811  14.8059  15.9799  17.1479
    17.2447  18.0597  32.8040  33.4510  36.0866

          k = 0.7000-0.3000 0.9000 (   315 PWs)   bands (ev):

   -85.6788 -45.5077 -45.4206 -45.3505  13.9912  14.7883  15.7356  17.0303
    17.6062  19.5511  28.6759  32.8167  34.0183

          k = 0.6000-0.2000 0.8000 (   310 PWs)   bands (ev):

   -85.6733 -45.4240 -45.3759 -45.2906  14.4936  14.8825  15.6777  16.8511
    17.7675  21.9289  25.0928  31.8520  33.9201

          k = 0.5000-0.1000 0.7000 (   315 PWs)   bands (ev):

   -85.6759 -45.4591 -45.4194 -45.3762  14.5466  14.9638  15.4586  16.7494
    17.5566  21.2991  26.0541  30.8848  35.2245

          k = 0.4000 0.0000 0.6000 (   318 PWs)   bands (ev):

   -85.6827 -45.5305 -45.4470 -45.3937  13.9273  15.0857  15.4152  16.8042
    17.1765  19.2386  29.6037  31.0640  37.1922

          k = 0.8000-0.2000 1.0000 (   318 PWs)   bands (ev):

   -85.6766 -45.5035 -45.4937 -45.4224  13.7805  14.4078  16.5669  17.4658
    17.6789  19.8133  30.3431  31.0577  32.1245

          k = 0.7000-0.1000 0.9000 (   313 PWs)   bands (ev):

   -85.6715 -45.4561 -45.4147 -45.3398  14.1469  14.5732  16.2132  17.2681
    17.9003  22.3164  27.3624  28.9620  32.1083

          k = 0.6000 0.0000 0.8000 (   308 PWs)   bands (ev):

   -85.6700 -45.4006 -45.3251 -45.2853  14.5256  14.8192  15.7275  17.0823
    17.8414  24.0107  25.0056  28.4917  33.3497

          k =-0.2000-1.0000 0.0000 (   312 PWs)   bands (ev):

   -85.6703 -45.4487 -45.4088 -45.3467  13.8359  14.2690  17.0241  17.5276
    18.0684  21.6791  27.5390  30.3968  31.3801

          k = 0.6000-0.2000 1.0000 (   317 PWs)   bands (ev):

   -85.6745 -45.4859 -45.4729 -45.3820  14.4212  14.9109  15.4470  17.0541
    17.6946  21.7112  27.8491  29.6501  31.7672

          k = 0.5000-0.1000 0.9000 (   314 PWs)   bands (ev):

   -85.6718 -45.4531 -45.4140 -45.3683  14.5064  15.0869  15.3310  16.9571
    17.9131  24.2123  25.1678  29.5508  30.6783

          k =-0.4000-1.0000 0.0000 (   314 PWs)   bands (ev):

   -85.6707 -45.4320 -45.4101 -45.3970  14.3138  14.8243  15.7342  17.0944
    18.0549  24.2113  27.1829  27.7643  29.7453

     the Fermi energy is    17.8273 ev

!    total energy              =    -428.63506741 Ry
     Harris-Foulkes estimate   =    -428.63506741 Ry
     estimated scf accuracy    <          4.2E-09 Ry

     total all-electron energy =     -3041.067175 Ry

     The total energy is the sum of the following terms:

     one-electron contribution =    -184.31794641 Ry
     hartree contribution      =     104.33453107 Ry
     xc contribution           =     -34.30570938 Ry
     ewald contribution        =    -223.38275372 Ry
     one-center paw contrib.   =     -90.96110088 Ry
     smearing contrib. (-TS)   =      -0.00208808 Ry

     convergence has been achieved in   7 iterations

     Forces acting on atoms (cartesian axes, Ry/au):

     atom    1 type  1   force =     0.00000000    0.00000000    0.00000000

     Total force =     0.000000     Total SCF correction =     0.000000


     Computing stress (Cartesian axis) and pressure

          total   stress  (Ry/bohr**3)                   (kbar)     P=-6230.04
  -0.04235098  -0.00000000  -0.00000000      -6230.04     -0.00     -0.00
  -0.00000000  -0.04235098   0.00000000         -0.00  -6230.04      0.00
  -0.00000000   0.00000000  -0.04235098         -0.00      0.00  -6230.04


     Writing output data file Ni.save/

     init_run     :      0.31s CPU      0.34s WALL (       1 calls)
     electrons    :      2.77s CPU      3.05s WALL (       1 calls)
     forces       :      0.03s CPU      0.03s WALL (       1 calls)
     stress       :      0.07s CPU      0.07s WALL (       1 calls)

     Called by init_run:
     wfcinit      :      0.08s CPU      0.09s WALL (       1 calls)
     potinit      :      0.11s CPU      0.12s WALL (       1 calls)
     hinit0       :      0.11s CPU      0.11s WALL (       1 calls)

     Called by electrons:
     c_bands      :      1.80s CPU      1.94s WALL (       8 calls)
     sum_band     :      0.30s CPU      0.33s WALL (       8 calls)
     v_of_rho     :      0.01s CPU      0.01s WALL (       8 calls)
     newd         :      0.02s CPU      0.02s WALL (       8 calls)
     PAW_pot      :      0.75s CPU      0.85s WALL (       8 calls)
     mix_rho      :      0.00s CPU      0.00s WALL (       8 calls)

     Called by c_bands:
     init_us_2    :      0.04s CPU      0.05s WALL (     893 calls)
     cegterg      :      1.74s CPU      1.87s WALL (     376 calls)

     Called by sum_band:
     sum_band:bec :      0.00s CPU      0.00s WALL (     376 calls)
     addusdens    :      0.02s CPU      0.02s WALL (       8 calls)

     Called by *egterg:
     h_psi        :      1.19s CPU      1.29s WALL (    1214 calls)
     s_psi        :      0.04s CPU      0.04s WALL (    1214 calls)
     g_psi        :      0.00s CPU      0.00s WALL (     791 calls)
     cdiaghg      :      0.36s CPU      0.38s WALL (    1120 calls)

     Called by h_psi:
     h_psi:pot    :      1.18s CPU      1.28s WALL (    1214 calls)
     h_psi:calbec :      0.05s CPU      0.06s WALL (    1214 calls)
     vloc_psi     :      1.08s CPU      1.18s WALL (    1214 calls)
     add_vuspsi   :      0.03s CPU      0.04s WALL (    1214 calls)

     General routines
     calbec       :      0.09s CPU      0.10s WALL (    1825 calls)
     fft          :      0.01s CPU      0.01s WALL (     115 calls)
     ffts         :      0.00s CPU      0.00s WALL (       8 calls)
     fftw         :      1.20s CPU      1.32s WALL (   29098 calls)

     Parallel routines
     fft_scatt_xy :      0.11s CPU      0.12s WALL (   29221 calls)
     fft_scatt_yz :      0.39s CPU      0.42s WALL (   29221 calls)

     PWSCF        :     3.94s CPU         4.31s WALL


   This run was terminated on:  22:33:49  26Mar2024            

=------------------------------------------------------------------------------=
   JOB DONE.
=------------------------------------------------------------------------------=
