
     Program PWSCF v.6.3MaX starts on 26Mar2024 at 22:41:37 

     This program is part of the open-source Quantum ESPRESSO suite
     for quantum simulation of materials; please cite
         "P. Giannozzi et al., J. Phys.:Condens. Matter 21 395502 (2009);
         "P. Giannozzi et al., J. Phys.:Condens. Matter 29 465901 (2017);
          URL http://www.quantum-espresso.org", 
     in publications or presentations arising from this work. More details at
     http://www.quantum-espresso.org/quote

     Parallel version (MPI), running on     5 processors

     MPI processes distributed on     1 nodes
     R & G space division:  proc/nbgrp/npool/nimage =       5
     Waiting for input...
     Reading input from standard input

     Current dimensions of program PWSCF are:
     Max number of different atomic species (ntypx) = 10
     Max number of k-points (npk) =  40000
     Max angular momentum in pseudopotentials (lmaxx) =  3
               file Ni.pbesol-spn-kjpaw_psl.1.0.0.UPF: wavefunction(s)  3P 3D renormalized

     Subspace diagonalization in iterative solution of the eigenvalue problem:
     a serial algorithm will be used


     Parallelization info
     --------------------
     sticks:   dense  smooth     PW     G-vecs:    dense   smooth      PW
     Min          67      67     21                  802      802     148
     Max          68      68     22                  804      804     151
     Sum         337     337    109                 4015     4015     749



     bravais-lattice index     =            2
     lattice parameter (alat)  =       6.6500  a.u.
     unit-cell volume          =      73.5199 (a.u.)^3
     number of atoms/cell      =            1
     number of atomic types    =            1
     number of electrons       =        18.00
     number of Kohn-Sham states=           13
     kinetic-energy cutoff     =      55.0000  Ry
     charge density cutoff     =     220.0000  Ry
     convergence threshold     =      1.0E-08
     mixing beta               =       0.7000
     number of iterations used =            8  plain     mixing
     Exchange-correlation      = SLA PW PSX PSC ( 1  4 10  8 0 0)

     celldm(1)=   6.650000  celldm(2)=   0.000000  celldm(3)=   0.000000
     celldm(4)=   0.000000  celldm(5)=   0.000000  celldm(6)=   0.000000

     crystal axes: (cart. coord. in units of alat)
               a(1) = (  -0.500000   0.000000   0.500000 )  
               a(2) = (   0.000000   0.500000   0.500000 )  
               a(3) = (  -0.500000   0.500000   0.000000 )  

     reciprocal axes: (cart. coord. in units 2 pi/alat)
               b(1) = ( -1.000000 -1.000000  1.000000 )  
               b(2) = (  1.000000  1.000000  1.000000 )  
               b(3) = ( -1.000000  1.000000 -1.000000 )  


     PseudoPot. # 1 for Ni read from file:
     /home/lorenzo/pseudos/Ni/Ni.pbesol-spn-kjpaw_psl.1.0.0.UPF
     MD5 check sum: ef06ee83099c2673f0516457bd731f51
     Pseudo is Projector augmented-wave + core cor, Zval = 18.0
     Generated using "atomic" code by A. Dal Corso v.6.3
     Shape of augmentation charge: PSQ
     Using radial grid of 1195 points,  6 beta functions with: 
                l(1) =   0
                l(2) =   0
                l(3) =   1
                l(4) =   1
                l(5) =   2
                l(6) =   2
     Q(r) pseudized with 0 coefficients 


     atomic species   valence    mass     pseudopotential
        Ni            18.00    58.69340     Ni( 1.00)

     48 Sym. Ops., with inversion, found



   Cartesian axes

     site n.     atom                  positions (alat units)
         1           Ni  tau(   1) = (   0.0000000   0.0000000   0.0000000  )

     number of k points=     8  gaussian smearing, width (Ry)=  0.0100
                       cart. coord. in units 2pi/alat
        k(    1) = (   0.0000000   0.0000000   0.0000000), wk =   0.0312500
        k(    2) = (  -0.2500000   0.2500000  -0.2500000), wk =   0.2500000
        k(    3) = (   0.5000000  -0.5000000   0.5000000), wk =   0.1250000
        k(    4) = (   0.0000000   0.5000000   0.0000000), wk =   0.1875000
        k(    5) = (   0.7500000  -0.2500000   0.7500000), wk =   0.7500000
        k(    6) = (   0.5000000   0.0000000   0.5000000), wk =   0.3750000
        k(    7) = (   0.0000000  -1.0000000   0.0000000), wk =   0.0937500
        k(    8) = (  -0.5000000  -1.0000000   0.0000000), wk =   0.1875000

     Dense  grid:     4015 G-vectors     FFT dimensions: (  24,  24,  24)

     Estimated max dynamical RAM per process >       4.47 MB

     Estimated total dynamical RAM >      22.33 MB

     Check: negative/imaginary core charge=   -0.000009    0.000000

     Initial potential from superposition of free atoms

     starting charge   17.99977, renormalised to   18.00000
     Starting wfcs are   10 randomized atomic wfcs +    3 random wfcs
     Checking if some PAW data can be deallocated... 

     total cpu time spent up to now is        1.1 secs

     Self-consistent Calculation

     iteration #  1     ecut=    55.00 Ry     beta= 0.70
     Davidson diagonalization with overlap
     ethr =  1.00E-02,  avg # of iterations =  4.0

     Threshold (ethr) on eigenvalues was too large:
     Diagonalizing with lowered threshold

     Davidson diagonalization with overlap
     ethr =  9.73E-06,  avg # of iterations =  3.1

     total cpu time spent up to now is        1.4 secs

     total energy              =    -426.56229368 Ry
     Harris-Foulkes estimate   =    -426.56269136 Ry
     estimated scf accuracy    <       0.00165621 Ry

     iteration #  2     ecut=    55.00 Ry     beta= 0.70
     Davidson diagonalization with overlap
     ethr =  9.20E-06,  avg # of iterations =  1.0

     total cpu time spent up to now is        1.6 secs

     total energy              =    -426.56227316 Ry
     Harris-Foulkes estimate   =    -426.56237873 Ry
     estimated scf accuracy    <       0.00019771 Ry

     iteration #  3     ecut=    55.00 Ry     beta= 0.70
     Davidson diagonalization with overlap
     ethr =  1.10E-06,  avg # of iterations =  2.6

     total cpu time spent up to now is        1.8 secs

     total energy              =    -426.56222185 Ry
     Harris-Foulkes estimate   =    -426.56249357 Ry
     estimated scf accuracy    <       0.00078255 Ry

     iteration #  4     ecut=    55.00 Ry     beta= 0.70
     Davidson diagonalization with overlap
     ethr =  1.10E-06,  avg # of iterations =  2.2

     total cpu time spent up to now is        2.0 secs

     total energy              =    -426.56235099 Ry
     Harris-Foulkes estimate   =    -426.56235135 Ry
     estimated scf accuracy    <       0.00000150 Ry

     iteration #  5     ecut=    55.00 Ry     beta= 0.70
     Davidson diagonalization with overlap
     ethr =  8.32E-09,  avg # of iterations =  3.0

     total cpu time spent up to now is        2.2 secs

     total energy              =    -426.56235172 Ry
     Harris-Foulkes estimate   =    -426.56235173 Ry
     estimated scf accuracy    <       0.00000003 Ry

     iteration #  6     ecut=    55.00 Ry     beta= 0.70
     Davidson diagonalization with overlap
     ethr =  1.65E-10,  avg # of iterations =  1.9

     total cpu time spent up to now is        2.4 secs

     End of self-consistent calculation

          k = 0.0000 0.0000 0.0000 (   531 PWs)   bands (ev):

   -85.2615 -45.6563 -45.6563 -45.6563   8.6177  15.6489  15.6489  15.6489
    16.7809  16.7809  41.2756  45.2044  45.2044

          k =-0.2500 0.2500-0.2500 (   510 PWs)   bands (ev):

   -85.2438 -45.7598 -45.6675 -45.6675  10.8736  15.2707  15.8614  15.8614
    16.8726  16.8726  32.1419  41.3927  42.9929

          k = 0.5000-0.5000 0.5000 (   502 PWs)   bands (ev):

   -85.2264 -45.8697 -45.6809 -45.6809  13.0610  15.6184  15.6184  17.3295
    17.5129  17.5129  23.5775  39.7932  42.3149

          k = 0.0000 0.5000 0.0000 (   504 PWs)   bands (ev):

   -85.2379 -45.7552 -45.6914 -45.6914  11.5394  14.6872  16.1200  16.5142
    16.5142  17.1413  36.9012  36.9012  37.7019

          k = 0.7500-0.2500 0.7500 (   504 PWs)   bands (ev):

   -85.2207 -45.8318 -45.7416 -45.7082  13.8117  14.4964  15.6166  16.5023
    17.5655  20.1163  26.2320  32.2805  35.8169

          k = 0.5000 0.0000 0.5000 (   512 PWs)   bands (ev):

   -85.2267 -45.8089 -45.7472 -45.6846  13.5388  14.9449  15.2291  16.3269
    16.7317  18.9648  29.2651  30.6348  40.5573

          k = 0.0000-1.0000 0.0000 (   492 PWs)   bands (ev):

   -85.2147 -45.8569 -45.7305 -45.7305  13.2334  13.8058  17.5134  17.6877
    17.6877  20.0653  27.0590  32.4493  32.4493

          k =-0.5000-1.0000 0.0000 (   516 PWs)   bands (ev):

   -85.2154 -45.7996 -45.7996 -45.7406  14.1438  14.9303  14.9303  16.6986
    17.6872  25.4801  25.4801  27.7430  28.8373

     the Fermi energy is    17.6095 ev

!    total energy              =    -426.56235172 Ry
     Harris-Foulkes estimate   =    -426.56235172 Ry
     estimated scf accuracy    <          2.7E-09 Ry

     total all-electron energy =     -3039.020696 Ry

     The total energy is the sum of the following terms:

     one-electron contribution =    -184.87192079 Ry
     hartree contribution      =     104.45048758 Ry
     xc contribution           =     -33.91170876 Ry
     ewald contribution        =    -223.38275374 Ry
     one-center paw contrib.   =     -88.84319739 Ry
     smearing contrib. (-TS)   =      -0.00325861 Ry

     convergence has been achieved in   6 iterations

     Forces acting on atoms (cartesian axes, Ry/au):

     atom    1 type  1   force =     0.00000000    0.00000000    0.00000000

     Total force =     0.000000     Total SCF correction =     0.000000


     Computing stress (Cartesian axis) and pressure

          total   stress  (Ry/bohr**3)                   (kbar)     P= -304.02
  -0.00206666   0.00000000   0.00000000       -304.02      0.00      0.00
   0.00000000  -0.00206666  -0.00000000          0.00   -304.02     -0.00
   0.00000000  -0.00000000  -0.00206666          0.00     -0.00   -304.02


     Writing output data file Ni.save/

     init_run     :      0.28s CPU      0.30s WALL (       1 calls)
     electrons    :      1.24s CPU      1.35s WALL (       1 calls)
     forces       :      0.02s CPU      0.02s WALL (       1 calls)
     stress       :      0.06s CPU      0.06s WALL (       1 calls)

     Called by init_run:
     wfcinit      :      0.03s CPU      0.03s WALL (       1 calls)
     potinit      :      0.10s CPU      0.11s WALL (       1 calls)
     hinit0       :      0.13s CPU      0.14s WALL (       1 calls)

     Called by electrons:
     c_bands      :      0.47s CPU      0.49s WALL (       7 calls)
     sum_band     :      0.10s CPU      0.12s WALL (       7 calls)
     v_of_rho     :      0.02s CPU      0.02s WALL (       7 calls)
     newd         :      0.03s CPU      0.03s WALL (       7 calls)
     PAW_pot      :      0.70s CPU      0.78s WALL (       7 calls)
     mix_rho      :      0.00s CPU      0.00s WALL (       7 calls)

     Called by c_bands:
     init_us_2    :      0.01s CPU      0.01s WALL (     136 calls)
     cegterg      :      0.46s CPU      0.48s WALL (      56 calls)

     Called by sum_band:
     sum_band:bec :      0.00s CPU      0.00s WALL (      56 calls)
     addusdens    :      0.03s CPU      0.03s WALL (       7 calls)

     Called by *egterg:
     h_psi        :      0.33s CPU      0.34s WALL (     207 calls)
     s_psi        :      0.01s CPU      0.01s WALL (     207 calls)
     g_psi        :      0.00s CPU      0.00s WALL (     143 calls)
     cdiaghg      :      0.07s CPU      0.08s WALL (     191 calls)

     Called by h_psi:
     h_psi:pot    :      0.33s CPU      0.34s WALL (     207 calls)
     h_psi:calbec :      0.01s CPU      0.02s WALL (     207 calls)
     vloc_psi     :      0.30s CPU      0.32s WALL (     207 calls)
     add_vuspsi   :      0.01s CPU      0.01s WALL (     207 calls)

     General routines
     calbec       :      0.02s CPU      0.03s WALL (     303 calls)
     fft          :      0.02s CPU      0.02s WALL (     104 calls)
     ffts         :      0.00s CPU      0.00s WALL (       7 calls)
     fftw         :      0.33s CPU      0.35s WALL (    4506 calls)

     Parallel routines
     fft_scatt_xy :      0.03s CPU      0.03s WALL (    4617 calls)
     fft_scatt_yz :      0.13s CPU      0.13s WALL (    4617 calls)

     PWSCF        :     2.37s CPU         2.55s WALL


   This run was terminated on:  22:41:40  26Mar2024            

=------------------------------------------------------------------------------=
   JOB DONE.
=------------------------------------------------------------------------------=
