
     Program PWSCF v.6.3MaX starts on 26Mar2024 at 22:50:17 

     This program is part of the open-source Quantum ESPRESSO suite
     for quantum simulation of materials; please cite
         "P. Giannozzi et al., J. Phys.:Condens. Matter 21 395502 (2009);
         "P. Giannozzi et al., J. Phys.:Condens. Matter 29 465901 (2017);
          URL http://www.quantum-espresso.org", 
     in publications or presentations arising from this work. More details at
     http://www.quantum-espresso.org/quote

     Parallel version (MPI), running on     5 processors

     MPI processes distributed on     1 nodes
     R & G space division:  proc/nbgrp/npool/nimage =       5
     Waiting for input...
     Reading input from standard input

     Current dimensions of program PWSCF are:
     Max number of different atomic species (ntypx) = 10
     Max number of k-points (npk) =  40000
     Max angular momentum in pseudopotentials (lmaxx) =  3

     Subspace diagonalization in iterative solution of the eigenvalue problem:
     a serial algorithm will be used


     Parallelization info
     --------------------
     sticks:   dense  smooth     PW     G-vecs:    dense   smooth      PW
     Min          85      85     27                 1163     1163     213
     Max          87      87     28                 1164     1164     214
     Sum         433     433    139                 5817     5817    1067



     bravais-lattice index     =            2
     lattice parameter (alat)  =       6.6500  a.u.
     unit-cell volume          =      73.5199 (a.u.)^3
     number of atoms/cell      =            1
     number of atomic types    =            1
     number of electrons       =        18.00
     number of Kohn-Sham states=           13
     kinetic-energy cutoff     =      70.0000  Ry
     charge density cutoff     =     280.0000  Ry
     convergence threshold     =      1.0E-08
     mixing beta               =       0.7000
     number of iterations used =            8  plain     mixing
     Exchange-correlation      = PBE ( 1  4  3  4 0 0)

     celldm(1)=   6.650000  celldm(2)=   0.000000  celldm(3)=   0.000000
     celldm(4)=   0.000000  celldm(5)=   0.000000  celldm(6)=   0.000000

     crystal axes: (cart. coord. in units of alat)
               a(1) = (  -0.500000   0.000000   0.500000 )  
               a(2) = (   0.000000   0.500000   0.500000 )  
               a(3) = (  -0.500000   0.500000   0.000000 )  

     reciprocal axes: (cart. coord. in units 2 pi/alat)
               b(1) = ( -1.000000 -1.000000  1.000000 )  
               b(2) = (  1.000000  1.000000  1.000000 )  
               b(3) = ( -1.000000  1.000000 -1.000000 )  


     PseudoPot. # 1 for Ni read from file:
     /home/lorenzo/pseudos/Ni/Ni.pbe-spn-rrkjus_psl.1.0.0.UPF
     MD5 check sum: 8b3fc9aac6dafe35f580d41bb18c3945
     Pseudo is Ultrasoft + core correction, Zval = 18.0
     Generated using "atomic" code by A. Dal Corso v.6.3
     Using radial grid of 1195 points,  6 beta functions with: 
                l(1) =   0
                l(2) =   0
                l(3) =   1
                l(4) =   1
                l(5) =   2
                l(6) =   2
     Q(r) pseudized with 0 coefficients 


     atomic species   valence    mass     pseudopotential
        Ni            18.00    58.69340     Ni( 1.00)

     48 Sym. Ops., with inversion, found



   Cartesian axes

     site n.     atom                  positions (alat units)
         1           Ni  tau(   1) = (   0.0000000   0.0000000   0.0000000  )

     number of k points=    20  gaussian smearing, width (Ry)=  0.0100
                       cart. coord. in units 2pi/alat
        k(    1) = (   0.0000000   0.0000000   0.0000000), wk =   0.0058309
        k(    2) = (  -0.1428571   0.1428571  -0.1428571), wk =   0.0466472
        k(    3) = (  -0.2857143   0.2857143  -0.2857143), wk =   0.0466472
        k(    4) = (  -0.4285714   0.4285714  -0.4285714), wk =   0.0466472
        k(    5) = (   0.0000000   0.2857143   0.0000000), wk =   0.0349854
        k(    6) = (  -0.1428571   0.4285714  -0.1428571), wk =   0.1399417
        k(    7) = (  -0.2857143   0.5714286  -0.2857143), wk =   0.1399417
        k(    8) = (   0.5714286  -0.2857143   0.5714286), wk =   0.1399417
        k(    9) = (   0.4285714  -0.1428571   0.4285714), wk =   0.1399417
        k(   10) = (   0.2857143  -0.0000000   0.2857143), wk =   0.0699708
        k(   11) = (   0.0000000   0.5714286   0.0000000), wk =   0.0349854
        k(   12) = (  -0.1428571   0.7142857  -0.1428571), wk =   0.1399417
        k(   13) = (   0.7142857  -0.1428571   0.7142857), wk =   0.1399417
        k(   14) = (   0.5714286   0.0000000   0.5714286), wk =   0.0699708
        k(   15) = (   0.0000000   0.8571429   0.0000000), wk =   0.0349854
        k(   16) = (   0.8571429  -0.0000000   0.8571429), wk =   0.0699708
        k(   17) = (  -0.2857143   0.5714286   0.0000000), wk =   0.1399417
        k(   18) = (   0.5714286  -0.2857143   0.8571429), wk =   0.2798834
        k(   19) = (   0.7142857  -0.1428571   1.0000000), wk =   0.1399417
        k(   20) = (   0.5714286   0.0000000   0.8571429), wk =   0.1399417

     Dense  grid:     5817 G-vectors     FFT dimensions: (  25,  25,  25)

     Estimated max dynamical RAM per process >       6.33 MB

     Estimated total dynamical RAM >      31.67 MB

     Check: negative/imaginary core charge=   -0.000011    0.000000

     Initial potential from superposition of free atoms

     starting charge   17.99975, renormalised to   18.00000
     Starting wfcs are   10 randomized atomic wfcs +    3 random wfcs

     total cpu time spent up to now is        1.0 secs

     Self-consistent Calculation

     iteration #  1     ecut=    70.00 Ry     beta= 0.70
     Davidson diagonalization with overlap
     ethr =  1.00E-02,  avg # of iterations =  3.7

     Threshold (ethr) on eigenvalues was too large:
     Diagonalizing with lowered threshold

     Davidson diagonalization with overlap
     ethr =  2.16E-05,  avg # of iterations =  2.6

     total cpu time spent up to now is        1.6 secs

     total energy              =    -339.59544097 Ry
     Harris-Foulkes estimate   =    -339.59767683 Ry
     estimated scf accuracy    <       0.00392813 Ry

     iteration #  2     ecut=    70.00 Ry     beta= 0.70
     Davidson diagonalization with overlap
     ethr =  2.18E-05,  avg # of iterations =  2.4

     total cpu time spent up to now is        1.9 secs

     total energy              =    -339.59469307 Ry
     Harris-Foulkes estimate   =    -339.59944948 Ry
     estimated scf accuracy    <       0.01279029 Ry

     iteration #  3     ecut=    70.00 Ry     beta= 0.70
     Davidson diagonalization with overlap
     ethr =  2.18E-05,  avg # of iterations =  2.1

     total cpu time spent up to now is        2.2 secs

     total energy              =    -339.59699271 Ry
     Harris-Foulkes estimate   =    -339.59703947 Ry
     estimated scf accuracy    <       0.00018384 Ry

     iteration #  4     ecut=    70.00 Ry     beta= 0.70
     Davidson diagonalization with overlap
     ethr =  1.02E-06,  avg # of iterations =  1.8

     total cpu time spent up to now is        2.4 secs

     total energy              =    -339.59702071 Ry
     Harris-Foulkes estimate   =    -339.59702049 Ry
     estimated scf accuracy    <       0.00000035 Ry

     iteration #  5     ecut=    70.00 Ry     beta= 0.70
     Davidson diagonalization with overlap
     ethr =  1.95E-09,  avg # of iterations =  3.5

     total cpu time spent up to now is        2.8 secs

     total energy              =    -339.59702129 Ry
     Harris-Foulkes estimate   =    -339.59702131 Ry
     estimated scf accuracy    <       0.00000006 Ry

     iteration #  6     ecut=    70.00 Ry     beta= 0.70
     Davidson diagonalization with overlap
     ethr =  3.11E-10,  avg # of iterations =  1.1

     total cpu time spent up to now is        3.0 secs

     End of self-consistent calculation

          k = 0.0000 0.0000 0.0000 (   725 PWs)   bands (ev):

   -85.2757 -45.5309 -45.5309 -45.5309   8.8267  15.9232  15.9232  15.9232
    17.0348  17.0348  41.4892  45.4399  45.4399

          k =-0.1429 0.1429-0.1429 (   718 PWs)   bands (ev):

   -85.2692 -45.5726 -45.5369 -45.5369   9.6122  15.7276  16.0724  16.0724
    16.9887  16.9887  37.7656  42.4164  44.1671

          k =-0.2857 0.2857-0.2857 (   739 PWs)   bands (ev):

   -85.2553 -45.6666 -45.5510 -45.5510  11.6515  15.5570  16.0929  16.0929
    17.2440  17.2440  30.6547  41.2562  43.0333

          k =-0.4286 0.4286-0.4286 (   736 PWs)   bands (ev):

   -85.2438 -45.7408 -45.5618 -45.5618  13.1834  15.9084  15.9084  16.8952
    17.7016  17.7016  24.9395  40.1558  42.6119

          k = 0.0000 0.2857 0.0000 (   721 PWs)   bands (ev):

   -85.2671 -45.5716 -45.5464 -45.5464   9.8686  15.5485  16.2224  16.2224
    16.7030  17.1685  39.9554  40.8716  40.8717

          k =-0.1429 0.4286-0.1429 (   726 PWs)   bands (ev):

   -85.2556 -45.6407 -45.5623 -45.5598  11.4997  15.2146  16.1108  16.4152
    17.0202  17.3958  33.4486  38.9133  39.5595

          k =-0.2857 0.5714-0.2857 (   724 PWs)   bands (ev):

   -85.2432 -45.7150 -45.5789 -45.5725  13.3689  15.3638  15.8195  16.2734
    17.7613  18.4343  26.9613  37.5451  38.5022

          k = 0.5714-0.2857 0.5714 (   724 PWs)   bands (ev):

   -85.2394 -45.7365 -45.5927 -45.5692  13.7462  15.5076  16.1491  16.1612
    17.6767  19.8806  24.1065  35.7545  39.8978

          k = 0.4286-0.1429 0.4286 (   733 PWs)   bands (ev):

   -85.2472 -45.6919 -45.5880 -45.5555  12.9134  15.3878  15.8178  16.2803
    17.0878  18.2761  28.9934  35.2033  43.0191

          k = 0.2857-0.0000 0.2857 (   724 PWs)   bands (ev):

   -85.2603 -45.6185 -45.5635 -45.5409  10.8388  15.4392  16.1230  16.3440
    16.6899  17.3851  35.5529  36.3270  45.5118

          k = 0.0000 0.5714 0.0000 (   721 PWs)   bands (ev):

   -85.2482 -45.6606 -45.5814 -45.5814  12.4020  14.7528  16.4365  17.0144
    17.0144  17.4753  36.0759  36.0759  36.0955

          k =-0.1429 0.7143-0.1429 (   728 PWs)   bands (ev):

   -85.2386 -45.7039 -45.6071 -45.5938  13.5821  14.5335  16.2762  17.0783
    17.7992  18.7936  30.2990  32.7070  34.9952

          k = 0.7143-0.1429 0.7143 (   718 PWs)   bands (ev):

   -85.2336 -45.7090 -45.6451 -45.5898  14.3201  14.6698  15.8838  16.8785
    17.7269  22.4351  24.8557  30.2043  36.0214

          k = 0.5714 0.0000 0.5714 (   728 PWs)   bands (ev):

   -85.2376 -45.6925 -45.6484 -45.5728  14.3587  15.1456  15.3265  16.6760
    17.2329  20.4570  27.7047  29.6282  38.9176

          k = 0.0000 0.8571 0.0000 (   724 PWs)   bands (ev):

   -85.2330 -45.7297 -45.6097 -45.6097  13.4647  14.1559  17.7269  17.8250
    17.8250  19.1388  28.8999  33.1101  33.1101

          k = 0.8571-0.0000 0.8571 (   726 PWs)   bands (ev):

   -85.2310 -45.7273 -45.6317 -45.6078  13.7416  14.2390  17.0231  17.5421
    17.8744  21.7712  27.3456  29.1145  33.4991

          k =-0.2857 0.5714 0.0000 (   732 PWs)   bands (ev):

   -85.2451 -45.6802 -45.6022 -45.5699  13.1367  14.9349  15.7149  16.9491
    17.0238  18.3740  31.7986  32.6053  37.3099

          k = 0.5714-0.2857 0.8571 (   721 PWs)   bands (ev):

   -85.2363 -45.7094 -45.6291 -45.5842  14.3114  14.9606  15.4908  16.7122
    17.6174  20.8017  26.0430  32.4360  34.3534

          k = 0.7143-0.1429 1.0000 (   729 PWs)   bands (ev):

   -85.2327 -45.7126 -45.6331 -45.6080  13.9980  14.4956  16.1760  17.3410
    17.8222  21.3774  29.3724  29.4400  30.7283

          k = 0.5714 0.0000 0.8571 (   721 PWs)   bands (ev):

   -85.2316 -45.6853 -45.6718 -45.6043  14.4451  14.8295  15.5323  16.9801
    17.8197  24.6296  25.0748  28.2847  31.6040

     the Fermi energy is    17.8073 ev

!    total energy              =    -339.59702129 Ry
     Harris-Foulkes estimate   =    -339.59702129 Ry
     estimated scf accuracy    <          4.0E-09 Ry

     The total energy is the sum of the following terms:

     one-electron contribution =    -186.69044035 Ry
     hartree contribution      =     104.80419471 Ry
     xc contribution           =     -34.32537924 Ry
     ewald contribution        =    -223.38275369 Ry
     smearing contrib. (-TS)   =      -0.00264272 Ry

     convergence has been achieved in   6 iterations

     Forces acting on atoms (cartesian axes, Ry/au):

     atom    1 type  1   force =     0.00000000    0.00000000    0.00000000

     Total force =     0.000000     Total SCF correction =     0.000000


     Computing stress (Cartesian axis) and pressure

          total   stress  (Ry/bohr**3)                   (kbar)     P=  -51.54
  -0.00035033   0.00000000   0.00000000        -51.54      0.00      0.00
  -0.00000000  -0.00035033   0.00000000         -0.00    -51.54      0.00
   0.00000000   0.00000000  -0.00035033          0.00      0.00    -51.54


     Writing output data file Ni.save/

     init_run     :      0.24s CPU      0.25s WALL (       1 calls)
     electrons    :      1.89s CPU      1.98s WALL (       1 calls)
     forces       :      0.03s CPU      0.03s WALL (       1 calls)
     stress       :      0.09s CPU      0.09s WALL (       1 calls)

     Called by init_run:
     wfcinit      :      0.07s CPU      0.08s WALL (       1 calls)
     potinit      :      0.01s CPU      0.01s WALL (       1 calls)
     hinit0       :      0.15s CPU      0.15s WALL (       1 calls)

     Called by electrons:
     c_bands      :      1.52s CPU      1.60s WALL (       7 calls)
     sum_band     :      0.30s CPU      0.31s WALL (       7 calls)
     v_of_rho     :      0.02s CPU      0.03s WALL (       7 calls)
     newd         :      0.05s CPU      0.05s WALL (       7 calls)
     mix_rho      :      0.00s CPU      0.00s WALL (       7 calls)

     Called by c_bands:
     init_us_2    :      0.04s CPU      0.04s WALL (     340 calls)
     cegterg      :      1.46s CPU      1.53s WALL (     140 calls)

     Called by sum_band:
     sum_band:bec :      0.00s CPU      0.00s WALL (     140 calls)
     addusdens    :      0.04s CPU      0.04s WALL (       7 calls)

     Called by *egterg:
     h_psi        :      1.05s CPU      1.11s WALL (     505 calls)
     s_psi        :      0.03s CPU      0.03s WALL (     505 calls)
     g_psi        :      0.00s CPU      0.00s WALL (     345 calls)
     cdiaghg      :      0.21s CPU      0.21s WALL (     465 calls)

     Called by h_psi:
     h_psi:pot    :      1.05s CPU      1.11s WALL (     505 calls)
     h_psi:calbec :      0.05s CPU      0.06s WALL (     505 calls)
     vloc_psi     :      0.96s CPU      1.01s WALL (     505 calls)
     add_vuspsi   :      0.03s CPU      0.03s WALL (     505 calls)

     General routines
     calbec       :      0.08s CPU      0.09s WALL (     745 calls)
     fft          :      0.02s CPU      0.02s WALL (     104 calls)
     ffts         :      0.00s CPU      0.00s WALL (       7 calls)
     fftw         :      1.10s CPU      1.16s WALL (   11336 calls)

     Parallel routines
     fft_scatt_xy :      0.08s CPU      0.09s WALL (   11447 calls)
     fft_scatt_yz :      0.39s CPU      0.41s WALL (   11447 calls)

     PWSCF        :     3.09s CPU         3.27s WALL


   This run was terminated on:  22:50:21  26Mar2024            

=------------------------------------------------------------------------------=
   JOB DONE.
=------------------------------------------------------------------------------=
