
     Program PWSCF v.6.3MaX starts on 26Mar2024 at 23: 0:35 

     This program is part of the open-source Quantum ESPRESSO suite
     for quantum simulation of materials; please cite
         "P. Giannozzi et al., J. Phys.:Condens. Matter 21 395502 (2009);
         "P. Giannozzi et al., J. Phys.:Condens. Matter 29 465901 (2017);
          URL http://www.quantum-espresso.org", 
     in publications or presentations arising from this work. More details at
     http://www.quantum-espresso.org/quote

     Parallel version (MPI), running on     5 processors

     MPI processes distributed on     1 nodes
     R & G space division:  proc/nbgrp/npool/nimage =       5
     Waiting for input...
     Reading input from standard input

     Current dimensions of program PWSCF are:
     Max number of different atomic species (ntypx) = 10
     Max number of k-points (npk) =  40000
     Max angular momentum in pseudopotentials (lmaxx) =  3
               file Ni.pbe-spn-kjpaw_psl.1.0.0.UPF: wavefunction(s)  3P 3D renormalized

     Subspace diagonalization in iterative solution of the eigenvalue problem:
     a serial algorithm will be used


     Parallelization info
     --------------------
     sticks:   dense  smooth     PW     G-vecs:    dense   smooth      PW
     Min         111     111     33                 1688     1688     294
     Max         112     112     35                 1689     1689     295
     Sum         559     559    169                 8441     8441    1471



     bravais-lattice index     =            2
     lattice parameter (alat)  =       6.6500  a.u.
     unit-cell volume          =      73.5199 (a.u.)^3
     number of atoms/cell      =            1
     number of atomic types    =            1
     number of electrons       =        18.00
     number of Kohn-Sham states=           13
     kinetic-energy cutoff     =      90.0000  Ry
     charge density cutoff     =     360.0000  Ry
     convergence threshold     =      1.0E-08
     mixing beta               =       0.7000
     number of iterations used =            8  plain     mixing
     Exchange-correlation      = SLA PW PBX PBC ( 1  4  3  4 0 0)

     celldm(1)=   6.650000  celldm(2)=   0.000000  celldm(3)=   0.000000
     celldm(4)=   0.000000  celldm(5)=   0.000000  celldm(6)=   0.000000

     crystal axes: (cart. coord. in units of alat)
               a(1) = (  -0.500000   0.000000   0.500000 )  
               a(2) = (   0.000000   0.500000   0.500000 )  
               a(3) = (  -0.500000   0.500000   0.000000 )  

     reciprocal axes: (cart. coord. in units 2 pi/alat)
               b(1) = ( -1.000000 -1.000000  1.000000 )  
               b(2) = (  1.000000  1.000000  1.000000 )  
               b(3) = ( -1.000000  1.000000 -1.000000 )  


     PseudoPot. # 1 for Ni read from file:
     /home/lorenzo/pseudos/Ni/Ni.pbe-spn-kjpaw_psl.1.0.0.UPF
     MD5 check sum: 6e86b733589c3ad8389697b807d86aa7
     Pseudo is Projector augmented-wave + core cor, Zval = 18.0
     Generated using "atomic" code by A. Dal Corso v.6.3
     Shape of augmentation charge: PSQ
     Using radial grid of 1195 points,  6 beta functions with: 
                l(1) =   0
                l(2) =   0
                l(3) =   1
                l(4) =   1
                l(5) =   2
                l(6) =   2
     Q(r) pseudized with 0 coefficients 


     atomic species   valence    mass     pseudopotential
        Ni            18.00    58.69340     Ni( 1.00)

     48 Sym. Ops., with inversion, found



   Cartesian axes

     site n.     atom                  positions (alat units)
         1           Ni  tau(   1) = (   0.0000000   0.0000000   0.0000000  )

     number of k points=    47  gaussian smearing, width (Ry)=  0.0100
                       cart. coord. in units 2pi/alat
        k(    1) = (   0.0000000   0.0000000   0.0000000), wk =   0.0020000
        k(    2) = (  -0.1000000   0.1000000  -0.1000000), wk =   0.0160000
        k(    3) = (  -0.2000000   0.2000000  -0.2000000), wk =   0.0160000
        k(    4) = (  -0.3000000   0.3000000  -0.3000000), wk =   0.0160000
        k(    5) = (  -0.4000000   0.4000000  -0.4000000), wk =   0.0160000
        k(    6) = (   0.5000000  -0.5000000   0.5000000), wk =   0.0080000
        k(    7) = (   0.0000000   0.2000000   0.0000000), wk =   0.0120000
        k(    8) = (  -0.1000000   0.3000000  -0.1000000), wk =   0.0480000
        k(    9) = (  -0.2000000   0.4000000  -0.2000000), wk =   0.0480000
        k(   10) = (  -0.3000000   0.5000000  -0.3000000), wk =   0.0480000
        k(   11) = (   0.6000000  -0.4000000   0.6000000), wk =   0.0480000
        k(   12) = (   0.5000000  -0.3000000   0.5000000), wk =   0.0480000
        k(   13) = (   0.4000000  -0.2000000   0.4000000), wk =   0.0480000
        k(   14) = (   0.3000000  -0.1000000   0.3000000), wk =   0.0480000
        k(   15) = (   0.2000000   0.0000000   0.2000000), wk =   0.0240000
        k(   16) = (   0.0000000   0.4000000   0.0000000), wk =   0.0120000
        k(   17) = (  -0.1000000   0.5000000  -0.1000000), wk =   0.0480000
        k(   18) = (  -0.2000000   0.6000000  -0.2000000), wk =   0.0480000
        k(   19) = (   0.7000000  -0.3000000   0.7000000), wk =   0.0480000
        k(   20) = (   0.6000000  -0.2000000   0.6000000), wk =   0.0480000
        k(   21) = (   0.5000000  -0.1000000   0.5000000), wk =   0.0480000
        k(   22) = (   0.4000000   0.0000000   0.4000000), wk =   0.0240000
        k(   23) = (   0.0000000   0.6000000   0.0000000), wk =   0.0120000
        k(   24) = (  -0.1000000   0.7000000  -0.1000000), wk =   0.0480000
        k(   25) = (   0.8000000  -0.2000000   0.8000000), wk =   0.0480000
        k(   26) = (   0.7000000  -0.1000000   0.7000000), wk =   0.0480000
        k(   27) = (   0.6000000  -0.0000000   0.6000000), wk =   0.0240000
        k(   28) = (   0.0000000   0.8000000   0.0000000), wk =   0.0120000
        k(   29) = (   0.9000000  -0.1000000   0.9000000), wk =   0.0480000
        k(   30) = (   0.8000000   0.0000000   0.8000000), wk =   0.0240000
        k(   31) = (   0.0000000  -1.0000000   0.0000000), wk =   0.0060000
        k(   32) = (  -0.2000000   0.4000000   0.0000000), wk =   0.0480000
        k(   33) = (  -0.3000000   0.5000000  -0.1000000), wk =   0.0960000
        k(   34) = (   0.6000000  -0.4000000   0.8000000), wk =   0.0960000
        k(   35) = (   0.5000000  -0.3000000   0.7000000), wk =   0.0480000
        k(   36) = (  -0.2000000   0.6000000   0.0000000), wk =   0.0480000
        k(   37) = (   0.7000000  -0.3000000   0.9000000), wk =   0.0960000
        k(   38) = (   0.6000000  -0.2000000   0.8000000), wk =   0.0960000
        k(   39) = (   0.5000000  -0.1000000   0.7000000), wk =   0.0960000
        k(   40) = (   0.4000000   0.0000000   0.6000000), wk =   0.0480000
        k(   41) = (   0.8000000  -0.2000000   1.0000000), wk =   0.0480000
        k(   42) = (   0.7000000  -0.1000000   0.9000000), wk =   0.0960000
        k(   43) = (   0.6000000   0.0000000   0.8000000), wk =   0.0480000
        k(   44) = (  -0.2000000  -1.0000000   0.0000000), wk =   0.0240000
        k(   45) = (   0.6000000  -0.2000000   1.0000000), wk =   0.0480000
        k(   46) = (   0.5000000  -0.1000000   0.9000000), wk =   0.0480000
        k(   47) = (  -0.4000000  -1.0000000   0.0000000), wk =   0.0240000

     Dense  grid:     8441 G-vectors     FFT dimensions: (  30,  30,  30)

     Estimated max dynamical RAM per process >       9.94 MB

     Estimated total dynamical RAM >      49.69 MB

     Check: negative/imaginary core charge=   -0.000002    0.000000

     Initial potential from superposition of free atoms

     starting charge   17.99975, renormalised to   18.00000
     Starting wfcs are   10 randomized atomic wfcs +    3 random wfcs
     Checking if some PAW data can be deallocated... 

     total cpu time spent up to now is        1.4 secs

     Self-consistent Calculation

     iteration #  1     ecut=    90.00 Ry     beta= 0.70
     Davidson diagonalization with overlap
     ethr =  1.00E-02,  avg # of iterations =  3.5

     Threshold (ethr) on eigenvalues was too large:
     Diagonalizing with lowered threshold

     Davidson diagonalization with overlap
     ethr =  2.48E-05,  avg # of iterations =  2.8

     total cpu time spent up to now is        3.1 secs

     total energy              =    -429.15645367 Ry
     Harris-Foulkes estimate   =    -429.15933345 Ry
     estimated scf accuracy    <       0.00446921 Ry

     iteration #  2     ecut=    90.00 Ry     beta= 0.70
     Davidson diagonalization with overlap
     ethr =  2.48E-05,  avg # of iterations =  2.4

     total cpu time spent up to now is        4.0 secs

     total energy              =    -429.15547508 Ry
     Harris-Foulkes estimate   =    -429.16172259 Ry
     estimated scf accuracy    <       0.01756449 Ry

     iteration #  3     ecut=    90.00 Ry     beta= 0.70
     Davidson diagonalization with overlap
     ethr =  2.48E-05,  avg # of iterations =  2.2

     total cpu time spent up to now is        4.9 secs

     total energy              =    -429.15842918 Ry
     Harris-Foulkes estimate   =    -429.15846150 Ry
     estimated scf accuracy    <       0.00013011 Ry

     iteration #  4     ecut=    90.00 Ry     beta= 0.70
     Davidson diagonalization with overlap
     ethr =  7.23E-07,  avg # of iterations =  2.3

     total cpu time spent up to now is        5.7 secs

     total energy              =    -429.15844981 Ry
     Harris-Foulkes estimate   =    -429.15844971 Ry
     estimated scf accuracy    <       0.00000063 Ry

     iteration #  5     ecut=    90.00 Ry     beta= 0.70
     Davidson diagonalization with overlap
     ethr =  3.50E-09,  avg # of iterations =  2.4

     total cpu time spent up to now is        6.5 secs

     total energy              =    -429.15845007 Ry
     Harris-Foulkes estimate   =    -429.15845009 Ry
     estimated scf accuracy    <       0.00000008 Ry

     iteration #  6     ecut=    90.00 Ry     beta= 0.70
     Davidson diagonalization with overlap
     ethr =  4.49E-10,  avg # of iterations =  1.4

     total cpu time spent up to now is        7.2 secs

     End of self-consistent calculation

          k = 0.0000 0.0000 0.0000 (  1067 PWs)   bands (ev):

   -85.2760 -45.5393 -45.5393 -45.5393   8.8234  15.9203  15.9203  15.9203
    17.0265  17.0265  41.4874  45.4347  45.4347

          k =-0.1000 0.1000-0.1000 (  1040 PWs)   bands (ev):

   -85.2728 -45.5595 -45.5420 -45.5420   9.2130  15.8162  16.0041  16.0041
    16.9938  16.9938  39.7748  42.8032  44.6311

          k =-0.2000 0.2000-0.2000 (  1046 PWs)   bands (ev):

   -85.2643 -45.6158 -45.5499 -45.5499  10.3217  15.5981  16.1298  16.1298
    17.0157  17.0157  34.8600  42.0159  43.6186

          k =-0.3000 0.3000-0.3000 (  1059 PWs)   bands (ev):

   -85.2538 -45.6849 -45.5599 -45.5599  11.8731  15.5877  16.0705  16.0705
    17.2887  17.2887  29.9867  41.1166  42.9571

          k =-0.4000 0.4000-0.4000 (  1056 PWs)   bands (ev):

   -85.2454 -45.7395 -45.5680 -45.5680  13.0329  15.9327  15.9327  16.4695
    17.6275  17.6275  25.8523  40.3034  42.6453

          k = 0.5000-0.5000 0.5000 (  1068 PWs)   bands (ev):

   -85.2421 -45.7609 -45.5712 -45.5712  13.3071  15.8718  15.8718  17.5451
    17.7723  17.7723  23.7908  39.9893  42.5758

          k = 0.0000 0.2000 0.0000 (  1038 PWs)   bands (ev):

   -85.2717 -45.5591 -45.5467 -45.5467   9.3417  15.7287  16.0687  16.0687
    16.8536  17.0942  40.5629  42.4768  42.4768

          k =-0.1000 0.3000-0.1000 (  1039 PWs)   bands (ev):

   -85.2650 -45.6007 -45.5561 -45.5526  10.2094  15.5068  16.2016  16.2302
    16.7617  17.1726  36.8088  40.8908  40.9265

          k =-0.2000 0.4000-0.2000 (  1054 PWs)   bands (ev):

   -85.2552 -45.6636 -45.5667 -45.5627  11.6380  15.3414  16.0601  16.2553
    17.1266  17.3954  31.8005  39.9347  40.0771

          k =-0.3000 0.5000-0.3000 (  1059 PWs)   bands (ev):

   -85.2461 -45.7209 -45.5746 -45.5743  13.0108  15.6022  15.8810  16.1350
    17.6817  17.8922  27.3141  39.1159  39.6797

          k = 0.6000-0.4000 0.6000 (  1060 PWs)   bands (ev):

   -85.2411 -45.7519 -45.5838 -45.5758  13.5101  15.6774  16.0302  16.4200
    17.7821  19.0257  24.1495  38.1137  40.2386

          k = 0.5000-0.3000 0.5000 (  1060 PWs)   bands (ev):

   -85.2421 -45.7447 -45.5867 -45.5711  13.4376  15.7334  16.0312  16.2733
    17.5887  18.7652  24.9488  37.4078  41.2205

          k = 0.4000-0.2000 0.4000 (  1057 PWs)   bands (ev):

   -85.2489 -45.7030 -45.5816 -45.5615  12.6381  15.5235  15.9201  16.1490
    17.1812  17.9384  28.7352  37.2661  42.3479

          k = 0.3000-0.1000 0.3000 (  1052 PWs)   bands (ev):

   -85.2587 -45.6424 -45.5700 -45.5511  11.1259  15.4254  16.1022  16.2765
    16.8020  17.4151  33.4410  37.7198  44.0721

          k = 0.2000 0.0000 0.2000 (  1037 PWs)   bands (ev):

   -85.2678 -45.5872 -45.5548 -45.5434   9.8437  15.6418  16.1183  16.1353
    16.8249  17.1174  38.1155  39.1558  44.4803

          k = 0.0000 0.4000 0.0000 (  1054 PWs)   bands (ev):

   -85.2604 -45.6135 -45.5675 -45.5675  10.7952  15.2428  16.4703  16.4916
    16.4916  17.2732  38.8060  38.8060  39.2143

          k =-0.1000 0.5000-0.1000 (  1057 PWs)   bands (ev):

   -85.2524 -45.6568 -45.5798 -45.5796  11.9461  14.9897  16.1299  16.6596
    17.0870  17.4556  34.1003  37.4495  38.1678

          k =-0.2000 0.6000-0.2000 (  1060 PWs)   bands (ev):

   -85.2439 -45.7029 -45.5966 -45.5876  13.2448  14.9150  15.8328  16.5961
    17.7243  18.2004  29.3928  36.1289  36.9286

          k = 0.7000-0.3000 0.7000 (  1067 PWs)   bands (ev):

   -85.2383 -45.7313 -45.6145 -45.5888  13.9553  15.0611  15.8177  16.4672
    17.8086  20.0574  25.4183  34.3242  37.3463

          k = 0.6000-0.2000 0.6000 (  1073 PWs)   bands (ev):

   -85.2376 -45.7322 -45.6260 -45.5827  14.0878  15.2042  15.8158  16.3954
    17.5898  20.8042  24.4994  33.0839  38.7150

          k = 0.5000-0.1000 0.5000 (  1059 PWs)   bands (ev):

   -85.2422 -45.7079 -45.6230 -45.5712  13.7059  15.3293  15.5310  16.4319
    17.1488  19.1700  28.0140  32.5528  40.9063

          k = 0.4000 0.0000 0.4000 (  1057 PWs)   bands (ev):

   -85.2502 -45.6741 -45.6016 -45.5591  12.4532  15.2293  15.8657  16.5561
    16.6808  18.1007  32.2192  33.0736  43.1326

          k = 0.0000 0.6000 0.0000 (  1046 PWs)   bands (ev):

   -85.2465 -45.6779 -45.5931 -45.5931  12.6315  14.6721  16.5179  17.1038
    17.1038  17.4986  35.3278  35.6722  35.6722

          k =-0.1000 0.7000-0.1000 (  1050 PWs)   bands (ev):

   -85.2398 -45.7080 -45.6095 -45.6025  13.3774  14.4908  16.4986  17.1877
    17.7317  18.2355  31.8804  32.9458  34.7832

          k = 0.8000-0.2000 0.8000 (  1066 PWs)   bands (ev):

   -85.2349 -45.7225 -45.6356 -45.6044  13.9526  14.5143  16.2045  17.0611
    17.8454  20.5045  27.7059  30.8345  34.9339

          k = 0.7000-0.1000 0.7000 (  1060 PWs)   bands (ev):

   -85.2335 -45.7116 -45.6644 -45.5975  14.4009  14.6536  15.8369  16.9078
    17.6505  23.1326  24.5102  29.4240  36.1309

          k = 0.6000-0.0000 0.6000 (  1069 PWs)   bands (ev):

   -85.2363 -45.6997 -45.6667 -45.5849  14.4849  14.9988  15.4032  16.7284
    17.3149  21.0730  27.0124  29.2280  38.2033

          k = 0.0000 0.8000 0.0000 (  1058 PWs)   bands (ev):

   -85.2353 -45.7295 -45.6140 -45.6140  13.4269  14.2322  17.6842  17.6990
    17.6990  18.3733  30.1389  33.4919  33.4919

          k = 0.9000-0.1000 0.9000 (  1061 PWs)   bands (ev):

   -85.2321 -45.7388 -45.6286 -45.6170  13.6057  14.1931  17.2866  17.5829
    17.8950  20.4776  28.2115  30.7094  33.2876

          k = 0.8000 0.0000 0.8000 (  1059 PWs)   bands (ev):

   -85.2314 -45.7249 -45.6547 -45.6107  13.9660  14.3752  16.5367  17.3545
    17.7884  22.7620  26.8027  27.8385  34.2285

          k = 0.0000-1.0000 0.0000 (  1034 PWs)   bands (ev):

   -85.2310 -45.7481 -45.6214 -45.6214  13.4643  14.0692  17.7561  17.9588
    17.9588  20.2946  27.2455  32.6922  32.6922

          k =-0.2000 0.4000 0.0000 (  1054 PWs)   bands (ev):

   -85.2576 -45.6371 -45.5769 -45.5585  11.2446  15.2635  16.1134  16.5078
    16.7252  17.4415  35.3164  35.9909  41.9256

          k =-0.3000 0.5000-0.1000 (  1059 PWs)   bands (ev):

   -85.2485 -45.6851 -45.5960 -45.5682  12.6737  15.1374  15.8159  16.5096
    17.1048  18.0548  30.7131  35.0512  39.5959

          k = 0.6000-0.4000 0.8000 (  1059 PWs)   bands (ev):

   -85.2411 -45.7252 -45.6073 -45.5785  13.7102  15.3235  15.6865  16.3693
    17.5587  19.2136  26.4411  35.0507  37.5895

          k = 0.5000-0.3000 0.7000 (  1060 PWs)   bands (ev):

   -85.2383 -45.7410 -45.6106 -45.5829  13.9371  15.3056  15.9620  16.2930
    17.7124  20.5357  23.9980  35.4303  36.5146

          k =-0.2000 0.6000 0.0000 (  1052 PWs)   bands (ev):

   -85.2450 -45.6872 -45.6038 -45.5863  12.9988  14.7742  15.9436  17.1034
    17.1547  18.0608  32.9075  33.4539  36.0677

          k = 0.7000-0.3000 0.9000 (  1057 PWs)   bands (ev):

   -85.2383 -45.7121 -45.6260 -45.5955  13.9221  14.7539  15.6973  16.9536
    17.6076  19.5440  28.6621  32.9187  33.8865

          k = 0.6000-0.2000 0.8000 (  1060 PWs)   bands (ev):

   -85.2348 -45.7200 -45.6448 -45.5981  14.3973  14.7963  15.6316  16.7635
    17.7255  21.9129  24.9549  31.8572  33.8488

          k = 0.5000-0.1000 0.7000 (  1068 PWs)   bands (ev):

   -85.2359 -45.7120 -45.6514 -45.5912  14.4725  14.9432  15.4135  16.7197
    17.5211  21.2448  26.0205  30.8388  35.2077

          k = 0.4000 0.0000 0.6000 (  1063 PWs)   bands (ev):

   -85.2411 -45.7000 -45.6321 -45.5789  13.8599  15.0551  15.4123  16.7868
    17.1371  19.2767  29.7038  30.9463  37.1942

          k = 0.8000-0.2000 1.0000 (  1063 PWs)   bands (ev):

   -85.2349 -45.7239 -45.6259 -45.6121  13.7244  14.3886  16.5212  17.5048
    17.6968  19.7849  30.3876  31.1523  31.9689

          k = 0.7000-0.1000 0.9000 (  1064 PWs)   bands (ev):

   -85.2320 -45.7197 -45.6513 -45.6145  14.0781  14.5098  16.1509  17.2354
    17.8490  22.3111  27.4026  28.8108  32.0560

          k = 0.6000 0.0000 0.8000 (  1064 PWs)   bands (ev):

   -85.2324 -45.6943 -45.6827 -45.6056  14.4906  14.7079  15.6349  16.9746
    17.7033  23.9684  25.0490  28.3053  33.3126

          k =-0.2000-1.0000 0.0000 (  1058 PWs)   bands (ev):

   -85.2310 -45.7368 -45.6341 -45.6224  13.7285  14.2443  16.9644  17.5294
    17.9590  21.7233  27.3697  30.4858  31.2644

          k = 0.6000-0.2000 1.0000 (  1068 PWs)   bands (ev):

   -85.2338 -45.7076 -45.6566 -45.6077  14.3715  14.8618  15.4094  17.0474
    17.6931  21.6936  27.9307  29.5993  31.6170

          k = 0.5000-0.1000 0.9000 (  1066 PWs)   bands (ev):

   -85.2320 -45.6974 -45.6747 -45.6141  14.4908  14.9983  15.2882  16.9234
    17.8349  24.2727  25.1068  29.6655  30.3763

          k =-0.4000-1.0000 0.0000 (  1060 PWs)   bands (ev):

   -85.2310 -45.7051 -45.6657 -45.6235  14.2646  14.7820  15.7006  17.0484
    17.9596  24.2706  27.2594  27.7854  29.3991

     the Fermi energy is    17.7993 ev

!    total energy              =    -429.15845008 Ry
     Harris-Foulkes estimate   =    -429.15845008 Ry
     estimated scf accuracy    <          8.0E-10 Ry

     total all-electron energy =     -3041.590558 Ry

     The total energy is the sum of the following terms:

     one-electron contribution =    -185.16452062 Ry
     hartree contribution      =     104.81103802 Ry
     xc contribution           =     -34.32994269 Ry
     ewald contribution        =    -223.38275369 Ry
     one-center paw contrib.   =     -91.09012128 Ry
     smearing contrib. (-TS)   =      -0.00214983 Ry

     convergence has been achieved in   6 iterations

     Forces acting on atoms (cartesian axes, Ry/au):

     atom    1 type  1   force =     0.00000000    0.00000000    0.00000000

     Total force =     0.000000     Total SCF correction =     0.000000


     Computing stress (Cartesian axis) and pressure

          total   stress  (Ry/bohr**3)                   (kbar)     P=  -36.21
  -0.00024617  -0.00000000  -0.00000000        -36.21     -0.00     -0.00
  -0.00000000  -0.00024617   0.00000000         -0.00    -36.21      0.00
  -0.00000000   0.00000000  -0.00024617         -0.00      0.00    -36.21


     Writing output data file Ni.save/

     init_run     :      0.61s CPU      0.65s WALL (       1 calls)
     electrons    :      5.51s CPU      5.78s WALL (       1 calls)
     forces       :      0.09s CPU      0.09s WALL (       1 calls)
     stress       :      0.28s CPU      0.28s WALL (       1 calls)

     Called by init_run:
     wfcinit      :      0.23s CPU      0.24s WALL (       1 calls)
     potinit      :      0.13s CPU      0.15s WALL (       1 calls)
     hinit0       :      0.22s CPU      0.22s WALL (       1 calls)

     Called by electrons:
     c_bands      :      4.09s CPU      4.25s WALL (       7 calls)
     sum_band     :      0.75s CPU      0.78s WALL (       7 calls)
     v_of_rho     :      0.04s CPU      0.04s WALL (       7 calls)
     newd         :      0.06s CPU      0.08s WALL (       7 calls)
     PAW_pot      :      0.68s CPU      0.77s WALL (       7 calls)
     mix_rho      :      0.00s CPU      0.00s WALL (       7 calls)

     Called by c_bands:
     init_us_2    :      0.11s CPU      0.12s WALL (     799 calls)
     cegterg      :      3.93s CPU      4.09s WALL (     329 calls)

     Called by sum_band:
     sum_band:bec :      0.00s CPU      0.00s WALL (     329 calls)
     addusdens    :      0.06s CPU      0.06s WALL (       7 calls)

     Called by *egterg:
     h_psi        :      3.06s CPU      3.19s WALL (    1174 calls)
     s_psi        :      0.09s CPU      0.09s WALL (    1174 calls)
     g_psi        :      0.01s CPU      0.01s WALL (     798 calls)
     cdiaghg      :      0.39s CPU      0.40s WALL (    1080 calls)

     Called by h_psi:
     h_psi:pot    :      3.05s CPU      3.17s WALL (    1174 calls)
     h_psi:calbec :      0.15s CPU      0.15s WALL (    1174 calls)
     vloc_psi     :      2.80s CPU      2.91s WALL (    1174 calls)
     add_vuspsi   :      0.09s CPU      0.10s WALL (    1174 calls)

     General routines
     calbec       :      0.24s CPU      0.25s WALL (    1738 calls)
     fft          :      0.03s CPU      0.03s WALL (     104 calls)
     ffts         :      0.00s CPU      0.00s WALL (       7 calls)
     fftw         :      3.15s CPU      3.28s WALL (   26101 calls)

     Parallel routines
     fft_scatt_xy :      0.27s CPU      0.28s WALL (   26212 calls)
     fft_scatt_yz :      0.84s CPU      0.87s WALL (   26212 calls)

     PWSCF        :     7.27s CPU         7.66s WALL


   This run was terminated on:  23: 0:43  26Mar2024            

=------------------------------------------------------------------------------=
   JOB DONE.
=------------------------------------------------------------------------------=
