
     Program PWSCF v.6.3MaX starts on 26Mar2024 at 22:58:19 

     This program is part of the open-source Quantum ESPRESSO suite
     for quantum simulation of materials; please cite
         "P. Giannozzi et al., J. Phys.:Condens. Matter 21 395502 (2009);
         "P. Giannozzi et al., J. Phys.:Condens. Matter 29 465901 (2017);
          URL http://www.quantum-espresso.org", 
     in publications or presentations arising from this work. More details at
     http://www.quantum-espresso.org/quote

     Parallel version (MPI), running on     5 processors

     MPI processes distributed on     1 nodes
     R & G space division:  proc/nbgrp/npool/nimage =       5
     Waiting for input...
     Reading input from standard input

     Current dimensions of program PWSCF are:
     Max number of different atomic species (ntypx) = 10
     Max number of k-points (npk) =  40000
     Max angular momentum in pseudopotentials (lmaxx) =  3

     Subspace diagonalization in iterative solution of the eigenvalue problem:
     a serial algorithm will be used


     Parallelization info
     --------------------
     sticks:   dense  smooth     PW     G-vecs:    dense   smooth      PW
     Min         102     102     32                 1559     1559     258
     Max         103     103     33                 1562     1562     259
     Sum         511     511    163                 7799     7799    1291



     bravais-lattice index     =            2
     lattice parameter (alat)  =       6.6500  a.u.
     unit-cell volume          =      73.5199 (a.u.)^3
     number of atoms/cell      =            1
     number of atomic types    =            1
     number of electrons       =        18.00
     number of Kohn-Sham states=           13
     kinetic-energy cutoff     =      85.0000  Ry
     charge density cutoff     =     340.0000  Ry
     convergence threshold     =      1.0E-08
     mixing beta               =       0.7000
     number of iterations used =            8  plain     mixing
     Exchange-correlation      = PBESOL ( 1  4 10  8 0 0)

     celldm(1)=   6.650000  celldm(2)=   0.000000  celldm(3)=   0.000000
     celldm(4)=   0.000000  celldm(5)=   0.000000  celldm(6)=   0.000000

     crystal axes: (cart. coord. in units of alat)
               a(1) = (  -0.500000   0.000000   0.500000 )  
               a(2) = (   0.000000   0.500000   0.500000 )  
               a(3) = (  -0.500000   0.500000   0.000000 )  

     reciprocal axes: (cart. coord. in units 2 pi/alat)
               b(1) = ( -1.000000 -1.000000  1.000000 )  
               b(2) = (  1.000000  1.000000  1.000000 )  
               b(3) = ( -1.000000  1.000000 -1.000000 )  


     PseudoPot. # 1 for Ni read from file:
     /home/lorenzo/pseudos/Ni/Ni.pbesol-spn-rrkjus_psl.1.0.0.UPF
     MD5 check sum: 6fc0a587bf949a08f2faed986b854013
     Pseudo is Ultrasoft + core correction, Zval = 18.0
     Generated using "atomic" code by A. Dal Corso v.6.3
     Using radial grid of 1195 points,  6 beta functions with: 
                l(1) =   0
                l(2) =   0
                l(3) =   1
                l(4) =   1
                l(5) =   2
                l(6) =   2
     Q(r) pseudized with 0 coefficients 


     atomic species   valence    mass     pseudopotential
        Ni            18.00    58.69340     Ni( 1.00)

     48 Sym. Ops., with inversion, found



   Cartesian axes

     site n.     atom                  positions (alat units)
         1           Ni  tau(   1) = (   0.0000000   0.0000000   0.0000000  )

     number of k points=     3  gaussian smearing, width (Ry)=  0.0100
                       cart. coord. in units 2pi/alat
        k(    1) = (   0.0000000   0.0000000   0.0000000), wk =   0.2500000
        k(    2) = (   0.5000000  -0.5000000   0.5000000), wk =   1.0000000
        k(    3) = (   0.0000000  -1.0000000   0.0000000), wk =   0.7500000

     Dense  grid:     7799 G-vectors     FFT dimensions: (  27,  27,  27)

     Estimated max dynamical RAM per process >       7.51 MB

     Estimated total dynamical RAM >      37.53 MB

     Check: negative/imaginary core charge=   -0.000003    0.000000

     Initial potential from superposition of free atoms

     starting charge   17.99977, renormalised to   18.00000
     Starting wfcs are   10 randomized atomic wfcs +    3 random wfcs

     total cpu time spent up to now is        0.9 secs

     Self-consistent Calculation

     iteration #  1     ecut=    85.00 Ry     beta= 0.70
     Davidson diagonalization with overlap
     ethr =  1.00E-02,  avg # of iterations =  6.0

     Threshold (ethr) on eigenvalues was too large:
     Diagonalizing with lowered threshold

     Davidson diagonalization with overlap
     ethr =  6.19E-05,  avg # of iterations =  2.3

     total cpu time spent up to now is        1.1 secs

     total energy              =    -339.20559712 Ry
     Harris-Foulkes estimate   =    -339.20968835 Ry
     estimated scf accuracy    <       0.01115344 Ry

     iteration #  2     ecut=    85.00 Ry     beta= 0.70
     Davidson diagonalization with overlap
     ethr =  6.20E-05,  avg # of iterations =  2.0

     total cpu time spent up to now is        1.1 secs

     total energy              =    -339.17562912 Ry
     Harris-Foulkes estimate   =    -339.22508713 Ry
     estimated scf accuracy    <       0.49407402 Ry

     iteration #  3     ecut=    85.00 Ry     beta= 0.70
     Davidson diagonalization with overlap
     ethr =  6.20E-05,  avg # of iterations =  2.3

     total cpu time spent up to now is        1.2 secs

     total energy              =    -339.20816221 Ry
     Harris-Foulkes estimate   =    -339.20871499 Ry
     estimated scf accuracy    <       0.00626329 Ry

     iteration #  4     ecut=    85.00 Ry     beta= 0.70
     Davidson diagonalization with overlap
     ethr =  3.48E-05,  avg # of iterations =  1.0

     total cpu time spent up to now is        1.3 secs

     total energy              =    -339.20791034 Ry
     Harris-Foulkes estimate   =    -339.20821137 Ry
     estimated scf accuracy    <       0.00420198 Ry

     iteration #  5     ecut=    85.00 Ry     beta= 0.70
     Davidson diagonalization with overlap
     ethr =  2.33E-05,  avg # of iterations =  1.0

     total cpu time spent up to now is        1.3 secs

     total energy              =    -339.20731610 Ry
     Harris-Foulkes estimate   =    -339.20793190 Ry
     estimated scf accuracy    <       0.00291709 Ry

     iteration #  6     ecut=    85.00 Ry     beta= 0.70
     Davidson diagonalization with overlap
     ethr =  1.62E-05,  avg # of iterations =  1.0

     total cpu time spent up to now is        1.4 secs

     total energy              =    -339.20752216 Ry
     Harris-Foulkes estimate   =    -339.20751390 Ry
     estimated scf accuracy    <       0.00000801 Ry

     iteration #  7     ecut=    85.00 Ry     beta= 0.70
     Davidson diagonalization with overlap
     ethr =  4.45E-08,  avg # of iterations =  2.3

     total cpu time spent up to now is        1.5 secs

     total energy              =    -339.20748974 Ry
     Harris-Foulkes estimate   =    -339.20754350 Ry
     estimated scf accuracy    <       0.00031708 Ry

     iteration #  8     ecut=    85.00 Ry     beta= 0.70
     Davidson diagonalization with overlap
     ethr =  4.45E-08,  avg # of iterations =  3.0

     total cpu time spent up to now is        1.5 secs

     total energy              =    -339.20751697 Ry
     Harris-Foulkes estimate   =    -339.20752060 Ry
     estimated scf accuracy    <       0.00002186 Ry

     iteration #  9     ecut=    85.00 Ry     beta= 0.70
     Davidson diagonalization with overlap
     ethr =  4.45E-08,  avg # of iterations =  1.0

     total cpu time spent up to now is        1.6 secs

     total energy              =    -339.20751863 Ry
     Harris-Foulkes estimate   =    -339.20751941 Ry
     estimated scf accuracy    <       0.00000293 Ry

     iteration # 10     ecut=    85.00 Ry     beta= 0.70
     Davidson diagonalization with overlap
     ethr =  1.63E-08,  avg # of iterations =  1.3

     total cpu time spent up to now is        1.6 secs

     total energy              =    -339.20751884 Ry
     Harris-Foulkes estimate   =    -339.20751954 Ry
     estimated scf accuracy    <       0.00000473 Ry

     iteration # 11     ecut=    85.00 Ry     beta= 0.70
     Davidson diagonalization with overlap
     ethr =  1.63E-08,  avg # of iterations =  1.0

     total cpu time spent up to now is        1.7 secs

     total energy              =    -339.20751922 Ry
     Harris-Foulkes estimate   =    -339.20751925 Ry
     estimated scf accuracy    <       0.00000018 Ry

     iteration # 12     ecut=    85.00 Ry     beta= 0.70
     Davidson diagonalization with overlap
     ethr =  9.95E-10,  avg # of iterations =  1.3

     total cpu time spent up to now is        1.7 secs

     End of self-consistent calculation

          k = 0.0000 0.0000 0.0000 (   941 PWs)   bands (ev):

   -85.4090 -45.8101 -45.8101 -45.8101   8.5870  15.4930  15.4930  15.4930
    16.6678  16.6678  41.2064  45.2269  45.2269

          k = 0.5000-0.5000 0.5000 (   978 PWs)   bands (ev):

   -85.3748 -46.0336 -45.8429 -45.8429  12.9407  15.4922  15.4922  17.3324
    17.3641  17.3641  23.4431  39.8174  42.2647

          k = 0.0000-1.0000 0.0000 (   982 PWs)   bands (ev):

   -85.3636 -46.0212 -45.8946 -45.8946  13.1693  13.6618  17.3952  17.5152
    17.5152  20.0255  26.9821  32.4291  32.4291

     the Fermi energy is    17.4914 ev

!    total energy              =    -339.20751923 Ry
     Harris-Foulkes estimate   =    -339.20751924 Ry
     estimated scf accuracy    <          8.5E-09 Ry

     The total energy is the sum of the following terms:

     one-electron contribution =    -186.19174692 Ry
     hartree contribution      =     104.28316646 Ry
     xc contribution           =     -33.90772835 Ry
     ewald contribution        =    -223.38275369 Ry
     smearing contrib. (-TS)   =      -0.00845674 Ry

     convergence has been achieved in  12 iterations

     Forces acting on atoms (cartesian axes, Ry/au):

     atom    1 type  1   force =     0.00000000    0.00000000    0.00000000

     Total force =     0.000000     Total SCF correction =     0.000000


     Computing stress (Cartesian axis) and pressure

          total   stress  (Ry/bohr**3)                   (kbar)     P=  199.97
   0.00135938   0.00000000   0.00000000        199.97      0.00      0.00
   0.00000000   0.00135938  -0.00000000          0.00    199.97     -0.00
   0.00000000   0.00000000   0.00135938          0.00      0.00    199.97


     Writing output data file Ni.save/

     init_run     :      0.21s CPU      0.21s WALL (       1 calls)
     electrons    :      0.76s CPU      0.79s WALL (       1 calls)
     forces       :      0.03s CPU      0.03s WALL (       1 calls)
     stress       :      0.08s CPU      0.08s WALL (       1 calls)

     Called by init_run:
     wfcinit      :      0.01s CPU      0.01s WALL (       1 calls)
     potinit      :      0.02s CPU      0.02s WALL (       1 calls)
     hinit0       :      0.17s CPU      0.17s WALL (       1 calls)

     Called by electrons:
     c_bands      :      0.41s CPU      0.42s WALL (      13 calls)
     sum_band     :      0.19s CPU      0.20s WALL (      13 calls)
     v_of_rho     :      0.06s CPU      0.06s WALL (      13 calls)
     newd         :      0.11s CPU      0.11s WALL (      13 calls)
     mix_rho      :      0.01s CPU      0.01s WALL (      13 calls)

     Called by c_bands:
     init_us_2    :      0.01s CPU      0.01s WALL (      87 calls)
     cegterg      :      0.39s CPU      0.41s WALL (      39 calls)

     Called by sum_band:
     sum_band:bec :      0.00s CPU      0.00s WALL (      39 calls)
     addusdens    :      0.10s CPU      0.10s WALL (      13 calls)

     Called by *egterg:
     h_psi        :      0.29s CPU      0.31s WALL (     119 calls)
     s_psi        :      0.01s CPU      0.01s WALL (     119 calls)
     g_psi        :      0.00s CPU      0.00s WALL (      77 calls)
     cdiaghg      :      0.04s CPU      0.04s WALL (     113 calls)

     Called by h_psi:
     h_psi:pot    :      0.28s CPU      0.30s WALL (     119 calls)
     h_psi:calbec :      0.01s CPU      0.01s WALL (     119 calls)
     vloc_psi     :      0.26s CPU      0.27s WALL (     119 calls)
     add_vuspsi   :      0.01s CPU      0.01s WALL (     119 calls)

     General routines
     calbec       :      0.02s CPU      0.02s WALL (     173 calls)
     fft          :      0.04s CPU      0.05s WALL (     170 calls)
     ffts         :      0.00s CPU      0.00s WALL (      13 calls)
     fftw         :      0.29s CPU      0.31s WALL (    2849 calls)

     Parallel routines
     fft_scatt_xy :      0.03s CPU      0.03s WALL (    3032 calls)
     fft_scatt_yz :      0.10s CPU      0.11s WALL (    3032 calls)

     PWSCF        :     1.79s CPU         1.87s WALL


   This run was terminated on:  22:58:21  26Mar2024            

=------------------------------------------------------------------------------=
   JOB DONE.
=------------------------------------------------------------------------------=
