
     Program PWSCF v.6.3MaX starts on 26Mar2024 at 22:19:11 

     This program is part of the open-source Quantum ESPRESSO suite
     for quantum simulation of materials; please cite
         "P. Giannozzi et al., J. Phys.:Condens. Matter 21 395502 (2009);
         "P. Giannozzi et al., J. Phys.:Condens. Matter 29 465901 (2017);
          URL http://www.quantum-espresso.org", 
     in publications or presentations arising from this work. More details at
     http://www.quantum-espresso.org/quote

     Parallel version (MPI), running on     5 processors

     MPI processes distributed on     1 nodes
     R & G space division:  proc/nbgrp/npool/nimage =       5
     Waiting for input...
     Reading input from standard input

     Current dimensions of program PWSCF are:
     Max number of different atomic species (ntypx) = 10
     Max number of k-points (npk) =  40000
     Max angular momentum in pseudopotentials (lmaxx) =  3
               file Ni.pbe-spn-kjpaw_psl.1.0.0.UPF: wavefunction(s)  3P 3D renormalized

     Subspace diagonalization in iterative solution of the eigenvalue problem:
     a serial algorithm will be used


     Parallelization info
     --------------------
     sticks:   dense  smooth     PW     G-vecs:    dense   smooth      PW
     Min         119     119     30                 1967     1967     248
     Max         119     119     31                 1969     1969     251
     Sum         595     595    151                 9841     9841    1243



     bravais-lattice index     =            2
     lattice parameter (alat)  =       6.6500  a.u.
     unit-cell volume          =      73.5199 (a.u.)^3
     number of atoms/cell      =            1
     number of atomic types    =            1
     number of electrons       =        18.00
     number of Kohn-Sham states=           13
     kinetic-energy cutoff     =     100.0000  Ry
     charge density cutoff     =     400.0000  Ry
     convergence threshold     =      1.0E-08
     mixing beta               =       0.7000
     number of iterations used =            8  plain     mixing
     Exchange-correlation      = SLA PW PBX PBC ( 1  4  3  4 0 0)

     celldm(1)=   6.650000  celldm(2)=   0.000000  celldm(3)=   0.000000
     celldm(4)=   0.000000  celldm(5)=   0.000000  celldm(6)=   0.000000

     crystal axes: (cart. coord. in units of alat)
               a(1) = (  -0.500000   0.000000   0.500000 )  
               a(2) = (   0.000000   0.500000   0.500000 )  
               a(3) = (  -0.500000   0.500000   0.000000 )  

     reciprocal axes: (cart. coord. in units 2 pi/alat)
               b(1) = ( -1.000000 -1.000000  1.000000 )  
               b(2) = (  1.000000  1.000000  1.000000 )  
               b(3) = ( -1.000000  1.000000 -1.000000 )  


     PseudoPot. # 1 for Ni read from file:
     /home/lorenzo/pseudos/Ni/Ni.pbe-spn-kjpaw_psl.1.0.0.UPF
     MD5 check sum: 6e86b733589c3ad8389697b807d86aa7
     Pseudo is Projector augmented-wave + core cor, Zval = 18.0
     Generated using "atomic" code by A. Dal Corso v.6.3
     Shape of augmentation charge: PSQ
     Using radial grid of 1195 points,  6 beta functions with: 
                l(1) =   0
                l(2) =   0
                l(3) =   1
                l(4) =   1
                l(5) =   2
                l(6) =   2
     Q(r) pseudized with 0 coefficients 


     atomic species   valence    mass     pseudopotential
        Ni            18.00    58.69340     Ni( 1.00)

     48 Sym. Ops., with inversion, found



   Cartesian axes

     site n.     atom                  positions (alat units)
         1           Ni  tau(   1) = (   0.0000000   0.0000000   0.0000000  )

     number of k points=     1  gaussian smearing, width (Ry)=  0.0100
                       cart. coord. in units 2pi/alat
        k(    1) = (   0.0000000   0.0000000   0.0000000), wk =   2.0000000

     Dense  grid:     9841 G-vectors     FFT dimensions: (  30,  30,  30)

     Estimated max dynamical RAM per process >       9.04 MB

     Estimated total dynamical RAM >      45.22 MB

     Check: negative/imaginary core charge=   -0.000004    0.000000

     Initial potential from superposition of free atoms

     starting charge   17.99975, renormalised to   18.00000
     Starting wfcs are   10 randomized atomic wfcs +    3 random wfcs
     Checking if some PAW data can be deallocated... 

     total cpu time spent up to now is        1.0 secs

     Self-consistent Calculation

     iteration #  1     ecut=   100.00 Ry     beta= 0.70
     Davidson diagonalization with overlap
     ethr =  1.00E-02,  avg # of iterations =  7.0

     Threshold (ethr) on eigenvalues was too large:
     Diagonalizing with lowered threshold

     Davidson diagonalization with overlap
     ethr =  3.34E-04,  avg # of iterations =  3.0

     total cpu time spent up to now is        1.2 secs

     total energy              =    -429.80407901 Ry
     Harris-Foulkes estimate   =    -429.82241855 Ry
     estimated scf accuracy    <       0.05674162 Ry

     iteration #  2     ecut=   100.00 Ry     beta= 0.70
     Davidson diagonalization with overlap
     ethr =  3.15E-04,  avg # of iterations =  2.0

     total cpu time spent up to now is        1.4 secs

     total energy              =    -429.80720608 Ry
     Harris-Foulkes estimate   =    -429.81868089 Ry
     estimated scf accuracy    <       0.02051310 Ry

     iteration #  3     ecut=   100.00 Ry     beta= 0.70
     Davidson diagonalization with overlap
     ethr =  1.14E-04,  avg # of iterations =  5.0

     total cpu time spent up to now is        1.5 secs

     total energy              =    -429.81264142 Ry
     Harris-Foulkes estimate   =    -429.81396292 Ry
     estimated scf accuracy    <       0.00333218 Ry

     iteration #  4     ecut=   100.00 Ry     beta= 0.70
     Davidson diagonalization with overlap
     ethr =  1.85E-05,  avg # of iterations =  2.0

     total cpu time spent up to now is        1.6 secs

     total energy              =    -429.81317048 Ry
     Harris-Foulkes estimate   =    -429.81316987 Ry
     estimated scf accuracy    <       0.00000064 Ry

     iteration #  5     ecut=   100.00 Ry     beta= 0.70
     Davidson diagonalization with overlap
     ethr =  3.53E-09,  avg # of iterations =  4.0

     total cpu time spent up to now is        1.8 secs

     total energy              =    -429.81317855 Ry
     Harris-Foulkes estimate   =    -429.81317857 Ry
     estimated scf accuracy    <       0.00000013 Ry

     iteration #  6     ecut=   100.00 Ry     beta= 0.70
     Davidson diagonalization with overlap
     ethr =  6.97E-10,  avg # of iterations =  2.0

     total cpu time spent up to now is        1.9 secs

     End of self-consistent calculation

          k = 0.0000 0.0000 0.0000 (  1243 PWs)   bands (ev):

   -86.5580 -46.7705 -46.7705 -46.7705   8.7906  15.0025  15.0025  15.0025
    15.9006  15.9006  41.8347  45.3763  45.3763

     the Fermi energy is    15.9006 ev

!    total energy              =    -429.81317858 Ry
     Harris-Foulkes estimate   =    -429.81317856 Ry
     estimated scf accuracy    <          3.3E-09 Ry

     total all-electron energy =     -3042.245286 Ry

     The total energy is the sum of the following terms:

     one-electron contribution =    -184.54942722 Ry
     hartree contribution      =     103.44553907 Ry
     xc contribution           =     -34.19434824 Ry
     ewald contribution        =    -223.38275369 Ry
     one-center paw contrib.   =     -91.12090471 Ry
     smearing contrib. (-TS)   =      -0.01128379 Ry

     convergence has been achieved in   6 iterations

     Forces acting on atoms (cartesian axes, Ry/au):

     atom    1 type  1   force =     0.00000000    0.00000000    0.00000000

     Total force =     0.000000     Total SCF correction =     0.000000


     Computing stress (Cartesian axis) and pressure

          total   stress  (Ry/bohr**3)                   (kbar)     P= -460.71
  -0.00313186   0.00000000   0.00000000       -460.71      0.00      0.00
   0.00000000  -0.00313186  -0.00000000          0.00   -460.71     -0.00
   0.00000000  -0.00000000  -0.00313186          0.00     -0.00   -460.71


     Writing output data file Ni.save/

     init_run     :      0.30s CPU      0.32s WALL (       1 calls)
     electrons    :      0.81s CPU      0.87s WALL (       1 calls)
     forces       :      0.03s CPU      0.03s WALL (       1 calls)
     stress       :      0.08s CPU      0.09s WALL (       1 calls)

     Called by init_run:
     wfcinit      :      0.00s CPU      0.00s WALL (       1 calls)
     potinit      :      0.09s CPU      0.11s WALL (       1 calls)
     hinit0       :      0.17s CPU      0.17s WALL (       1 calls)

     Called by electrons:
     c_bands      :      0.08s CPU      0.09s WALL (       7 calls)
     sum_band     :      0.08s CPU      0.09s WALL (       7 calls)
     v_of_rho     :      0.04s CPU      0.04s WALL (       7 calls)
     newd         :      0.06s CPU      0.08s WALL (       7 calls)
     PAW_pot      :      0.63s CPU      0.67s WALL (       7 calls)
     mix_rho      :      0.00s CPU      0.00s WALL (       7 calls)

     Called by c_bands:
     init_us_2    :      0.00s CPU      0.00s WALL (      15 calls)
     cegterg      :      0.08s CPU      0.09s WALL (       7 calls)

     Called by sum_band:
     sum_band:bec :      0.00s CPU      0.00s WALL (       7 calls)
     addusdens    :      0.06s CPU      0.06s WALL (       7 calls)

     Called by *egterg:
     h_psi        :      0.06s CPU      0.06s WALL (      33 calls)
     s_psi        :      0.00s CPU      0.00s WALL (      33 calls)
     g_psi        :      0.00s CPU      0.00s WALL (      25 calls)
     cdiaghg      :      0.01s CPU      0.01s WALL (      31 calls)

     Called by h_psi:
     h_psi:pot    :      0.06s CPU      0.06s WALL (      33 calls)
     h_psi:calbec :      0.00s CPU      0.00s WALL (      33 calls)
     vloc_psi     :      0.05s CPU      0.06s WALL (      33 calls)
     add_vuspsi   :      0.00s CPU      0.00s WALL (      33 calls)

     General routines
     calbec       :      0.00s CPU      0.00s WALL (      45 calls)
     fft          :      0.02s CPU      0.02s WALL (     104 calls)
     ffts         :      0.00s CPU      0.00s WALL (       7 calls)
     fftw         :      0.06s CPU      0.06s WALL (     593 calls)

     Parallel routines
     fft_scatt_xy :      0.01s CPU      0.01s WALL (     704 calls)
     fft_scatt_yz :      0.02s CPU      0.02s WALL (     704 calls)

     PWSCF        :     1.95s CPU         2.06s WALL


   This run was terminated on:  22:19:13  26Mar2024            

=------------------------------------------------------------------------------=
   JOB DONE.
=------------------------------------------------------------------------------=
