
     Program PWSCF v.6.3MaX starts on 26Mar2024 at 23: 2:51 

     This program is part of the open-source Quantum ESPRESSO suite
     for quantum simulation of materials; please cite
         "P. Giannozzi et al., J. Phys.:Condens. Matter 21 395502 (2009);
         "P. Giannozzi et al., J. Phys.:Condens. Matter 29 465901 (2017);
          URL http://www.quantum-espresso.org", 
     in publications or presentations arising from this work. More details at
     http://www.quantum-espresso.org/quote

     Parallel version (MPI), running on     5 processors

     MPI processes distributed on     1 nodes
     R & G space division:  proc/nbgrp/npool/nimage =       5
     Waiting for input...
     Reading input from standard input

     Current dimensions of program PWSCF are:
     Max number of different atomic species (ntypx) = 10
     Max number of k-points (npk) =  40000
     Max angular momentum in pseudopotentials (lmaxx) =  3
               file Ni.pbesol-spn-kjpaw_psl.1.0.0.UPF: wavefunction(s)  3P 3D renormalized

     Subspace diagonalization in iterative solution of the eigenvalue problem:
     a serial algorithm will be used


     Parallelization info
     --------------------
     sticks:   dense  smooth     PW     G-vecs:    dense   smooth      PW
     Min         111     111     33                 1688     1688     294
     Max         112     112     35                 1689     1689     295
     Sum         559     559    169                 8441     8441    1471



     bravais-lattice index     =            2
     lattice parameter (alat)  =       6.6500  a.u.
     unit-cell volume          =      73.5199 (a.u.)^3
     number of atoms/cell      =            1
     number of atomic types    =            1
     number of electrons       =        18.00
     number of Kohn-Sham states=           13
     kinetic-energy cutoff     =      90.0000  Ry
     charge density cutoff     =     360.0000  Ry
     convergence threshold     =      1.0E-08
     mixing beta               =       0.7000
     number of iterations used =            8  plain     mixing
     Exchange-correlation      = SLA PW PSX PSC ( 1  4 10  8 0 0)

     celldm(1)=   6.650000  celldm(2)=   0.000000  celldm(3)=   0.000000
     celldm(4)=   0.000000  celldm(5)=   0.000000  celldm(6)=   0.000000

     crystal axes: (cart. coord. in units of alat)
               a(1) = (  -0.500000   0.000000   0.500000 )  
               a(2) = (   0.000000   0.500000   0.500000 )  
               a(3) = (  -0.500000   0.500000   0.000000 )  

     reciprocal axes: (cart. coord. in units 2 pi/alat)
               b(1) = ( -1.000000 -1.000000  1.000000 )  
               b(2) = (  1.000000  1.000000  1.000000 )  
               b(3) = ( -1.000000  1.000000 -1.000000 )  


     PseudoPot. # 1 for Ni read from file:
     /home/lorenzo/pseudos/Ni/Ni.pbesol-spn-kjpaw_psl.1.0.0.UPF
     MD5 check sum: ef06ee83099c2673f0516457bd731f51
     Pseudo is Projector augmented-wave + core cor, Zval = 18.0
     Generated using "atomic" code by A. Dal Corso v.6.3
     Shape of augmentation charge: PSQ
     Using radial grid of 1195 points,  6 beta functions with: 
                l(1) =   0
                l(2) =   0
                l(3) =   1
                l(4) =   1
                l(5) =   2
                l(6) =   2
     Q(r) pseudized with 0 coefficients 


     atomic species   valence    mass     pseudopotential
        Ni            18.00    58.69340     Ni( 1.00)

     48 Sym. Ops., with inversion, found



   Cartesian axes

     site n.     atom                  positions (alat units)
         1           Ni  tau(   1) = (   0.0000000   0.0000000   0.0000000  )

     number of k points=    29  gaussian smearing, width (Ry)=  0.0100
                       cart. coord. in units 2pi/alat
        k(    1) = (   0.0000000   0.0000000   0.0000000), wk =   0.0039062
        k(    2) = (  -0.1250000   0.1250000  -0.1250000), wk =   0.0312500
        k(    3) = (  -0.2500000   0.2500000  -0.2500000), wk =   0.0312500
        k(    4) = (  -0.3750000   0.3750000  -0.3750000), wk =   0.0312500
        k(    5) = (   0.5000000  -0.5000000   0.5000000), wk =   0.0156250
        k(    6) = (   0.0000000   0.2500000   0.0000000), wk =   0.0234375
        k(    7) = (  -0.1250000   0.3750000  -0.1250000), wk =   0.0937500
        k(    8) = (  -0.2500000   0.5000000  -0.2500000), wk =   0.0937500
        k(    9) = (   0.6250000  -0.3750000   0.6250000), wk =   0.0937500
        k(   10) = (   0.5000000  -0.2500000   0.5000000), wk =   0.0937500
        k(   11) = (   0.3750000  -0.1250000   0.3750000), wk =   0.0937500
        k(   12) = (   0.2500000   0.0000000   0.2500000), wk =   0.0468750
        k(   13) = (   0.0000000   0.5000000   0.0000000), wk =   0.0234375
        k(   14) = (  -0.1250000   0.6250000  -0.1250000), wk =   0.0937500
        k(   15) = (   0.7500000  -0.2500000   0.7500000), wk =   0.0937500
        k(   16) = (   0.6250000  -0.1250000   0.6250000), wk =   0.0937500
        k(   17) = (   0.5000000   0.0000000   0.5000000), wk =   0.0468750
        k(   18) = (   0.0000000   0.7500000   0.0000000), wk =   0.0234375
        k(   19) = (   0.8750000  -0.1250000   0.8750000), wk =   0.0937500
        k(   20) = (   0.7500000   0.0000000   0.7500000), wk =   0.0468750
        k(   21) = (   0.0000000  -1.0000000   0.0000000), wk =   0.0117188
        k(   22) = (  -0.2500000   0.5000000   0.0000000), wk =   0.0937500
        k(   23) = (   0.6250000  -0.3750000   0.8750000), wk =   0.1875000
        k(   24) = (   0.5000000  -0.2500000   0.7500000), wk =   0.0937500
        k(   25) = (   0.7500000  -0.2500000   1.0000000), wk =   0.0937500
        k(   26) = (   0.6250000  -0.1250000   0.8750000), wk =   0.1875000
        k(   27) = (   0.5000000   0.0000000   0.7500000), wk =   0.0937500
        k(   28) = (  -0.2500000  -1.0000000   0.0000000), wk =   0.0468750
        k(   29) = (  -0.5000000  -1.0000000   0.0000000), wk =   0.0234375

     Dense  grid:     8441 G-vectors     FFT dimensions: (  30,  30,  30)

     Estimated max dynamical RAM per process >       9.18 MB

     Estimated total dynamical RAM >      45.91 MB

     Check: negative/imaginary core charge=   -0.000002    0.000000

     Initial potential from superposition of free atoms

     starting charge   17.99977, renormalised to   18.00000
     Starting wfcs are   10 randomized atomic wfcs +    3 random wfcs
     Checking if some PAW data can be deallocated... 

     total cpu time spent up to now is        1.4 secs

     Self-consistent Calculation

     iteration #  1     ecut=    90.00 Ry     beta= 0.70
     Davidson diagonalization with overlap
     ethr =  1.00E-02,  avg # of iterations =  3.6

     Threshold (ethr) on eigenvalues was too large:
     Diagonalizing with lowered threshold

     Davidson diagonalization with overlap
     ethr =  1.04E-05,  avg # of iterations =  3.4

     total cpu time spent up to now is        2.5 secs

     total energy              =    -426.57487526 Ry
     Harris-Foulkes estimate   =    -426.57575005 Ry
     estimated scf accuracy    <       0.00181239 Ry

     iteration #  2     ecut=    90.00 Ry     beta= 0.70
     Davidson diagonalization with overlap
     ethr =  1.01E-05,  avg # of iterations =  2.1

     total cpu time spent up to now is        3.0 secs

     total energy              =    -426.57440845 Ry
     Harris-Foulkes estimate   =    -426.57592931 Ry
     estimated scf accuracy    <       0.00372067 Ry

     iteration #  3     ecut=    90.00 Ry     beta= 0.70
     Davidson diagonalization with overlap
     ethr =  1.01E-05,  avg # of iterations =  2.1

     total cpu time spent up to now is        3.5 secs

     total energy              =    -426.57519497 Ry
     Harris-Foulkes estimate   =    -426.57535324 Ry
     estimated scf accuracy    <       0.00050385 Ry

     iteration #  4     ecut=    90.00 Ry     beta= 0.70
     Davidson diagonalization with overlap
     ethr =  2.80E-06,  avg # of iterations =  1.2

     total cpu time spent up to now is        4.0 secs

     total energy              =    -426.57526905 Ry
     Harris-Foulkes estimate   =    -426.57526895 Ry
     estimated scf accuracy    <       0.00000064 Ry

     iteration #  5     ecut=    90.00 Ry     beta= 0.70
     Davidson diagonalization with overlap
     ethr =  3.57E-09,  avg # of iterations =  3.0

     total cpu time spent up to now is        4.6 secs

     total energy              =    -426.57527074 Ry
     Harris-Foulkes estimate   =    -426.57527080 Ry
     estimated scf accuracy    <       0.00000018 Ry

     iteration #  6     ecut=    90.00 Ry     beta= 0.70
     Davidson diagonalization with overlap
     ethr =  9.82E-10,  avg # of iterations =  1.0

     total cpu time spent up to now is        5.1 secs

     total energy              =    -426.57527074 Ry
     Harris-Foulkes estimate   =    -426.57527074 Ry
     estimated scf accuracy    <       0.00000002 Ry

     iteration #  7     ecut=    90.00 Ry     beta= 0.70
     Davidson diagonalization with overlap
     ethr =  1.27E-10,  avg # of iterations =  1.0

     total cpu time spent up to now is        5.5 secs

     End of self-consistent calculation

          k = 0.0000 0.0000 0.0000 (  1067 PWs)   bands (ev):

   -85.1974 -45.6034 -45.6034 -45.6034   8.6014  15.6916  15.6916  15.6916
    16.8150  16.8150  41.2807  45.1966  45.1966

          k =-0.1250 0.1250-0.1250 (  1046 PWs)   bands (ev):

   -85.1924 -45.6357 -45.6078 -45.6078   9.2061  15.5358  15.8141  15.8141
    16.7721  16.7721  38.4141  42.3311  44.1109

          k =-0.2500 0.2500-0.2500 (  1065 PWs)   bands (ev):

   -85.1802 -45.7160 -45.6195 -45.6195  10.8541  15.3054  15.9000  15.9000
    16.9081  16.9081  32.1365  41.3849  42.9948

          k =-0.3750 0.3750-0.3750 (  1053 PWs)   bands (ev):

   -85.1680 -45.7945 -45.6306 -45.6306  12.6106  15.7433  15.7433  15.9146
    17.3350  17.3350  26.5504  40.2674  42.4421

          k = 0.5000-0.5000 0.5000 (  1068 PWs)   bands (ev):

   -85.1630 -45.8273 -45.6356 -45.6356  13.0780  15.6518  15.6518  17.3263
    17.5537  17.5537  23.5633  39.7861  42.3177

          k = 0.0000 0.2500 0.0000 (  1046 PWs)   bands (ev):

   -85.1907 -45.6349 -45.6153 -45.6153   9.4047  15.3990  15.9222  15.9222
    16.5531  16.9193  39.9917  41.2912  41.2912

          k =-0.1250 0.3750-0.1250 (  1051 PWs)   bands (ev):

   -85.1809 -45.6940 -45.6287 -45.6252  10.7063  15.1038  15.9666  16.1153
    16.6201  17.0735  34.5950  39.4504  39.9681

          k =-0.2500 0.5000-0.2500 (  1061 PWs)   bands (ev):

   -85.1688 -45.7689 -45.6409 -45.6402  12.5423  15.0918  15.6507  16.0419
    17.4169  17.5063  28.6215  38.6058  38.7048

          k = 0.6250-0.3750 0.6250 (  1062 PWs)   bands (ev):

   -85.1613 -45.8134 -45.6552 -45.6431  13.3863  15.3439  15.8971  15.9646
    17.5687  19.1137  24.1415  36.9840  39.2423

          k = 0.5000-0.2500 0.5000 (  1061 PWs)   bands (ev):

   -85.1630 -45.8026 -45.6595 -45.6356  13.2752  15.4461  15.7647  15.8972
    17.2730  18.7038  25.3446  35.9575  41.1790

          k = 0.3750-0.1250 0.3750 (  1061 PWs)   bands (ev):

   -85.1728 -45.7445 -45.6498 -45.6222  11.9698  15.1211  15.7381  16.0674
    16.7113  17.6262  30.5382  35.9346  42.8872

          k = 0.2500 0.0000 0.2500 (  1049 PWs)   bands (ev):

   -85.1850 -45.6749 -45.6284 -45.6106  10.1672  15.2925  15.9141  16.0204
    16.5282  17.0274  36.3939  37.2370  44.8155

          k = 0.0000 0.5000 0.0000 (  1062 PWs)   bands (ev):

   -85.1745 -45.7115 -45.6451 -45.6451  11.5199  14.7247  16.1448  16.5563
    16.5563  17.1749  36.9032  36.9032  37.6991

          k =-0.1250 0.6250-0.1250 (  1052 PWs)   bands (ev):

   -85.1648 -45.7590 -45.6647 -45.6584  12.8648  14.4674  15.8829  16.6888
    17.4560  17.6503  31.5373  34.8172  35.6065

          k = 0.7500-0.2500 0.7500 (  1064 PWs)   bands (ev):

   -85.1573 -45.7893 -45.6935 -45.6613  13.8299  14.5232  15.6485  16.5386
    17.6069  20.1302  26.2231  32.2677  35.8187

          k = 0.6250-0.1250 0.6250 (  1068 PWs)   bands (ev):

   -85.1566 -45.7834 -45.7153 -45.6518  14.1467  14.7479  15.4154  16.4111
    17.2961  21.3530  24.7961  30.6551  37.5744

          k = 0.5000 0.0000 0.5000 (  1065 PWs)   bands (ev):

   -85.1630 -45.7636 -45.6982 -45.6359  13.5406  14.9806  15.2577  16.3575
    16.7773  18.9894  29.2781  30.6084  40.5599

          k = 0.0000 0.7500 0.0000 (  1054 PWs)   bands (ev):

   -85.1584 -45.7849 -45.6746 -45.6746  13.1363  14.0916  17.3430  17.3430
    17.4366  17.5163  31.1380  33.6807  33.6807

          k = 0.8750-0.1250 0.8750 (  1062 PWs)   bands (ev):

   -85.1534 -45.8002 -45.6964 -45.6794  13.4649  14.0302  16.7791  17.2630
    17.6583  20.2954  28.4808  29.7531  33.3680

          k = 0.7500 0.0000 0.7500 (  1063 PWs)   bands (ev):

   -85.1526 -45.7785 -45.7341 -45.6699  13.9812  14.2769  15.9366  16.9716
    17.4698  23.4967  25.0501  27.7034  34.7921

          k = 0.0000-1.0000 0.0000 (  1034 PWs)   bands (ev):

   -85.1517 -45.8144 -45.6864 -45.6864  13.2478  13.8404  17.5469  17.7341
    17.7341  20.0680  27.0293  32.4490  32.4490

          k =-0.2500 0.5000 0.0000 (  1060 PWs)   bands (ev):

   -85.1712 -45.7356 -45.6606 -45.6337  12.1456  14.8213  15.6682  16.5706
    16.6261  17.6606  32.9821  33.6735  39.0360

          k = 0.6250-0.3750 0.8750 (  1065 PWs)   bands (ev):

   -85.1614 -45.7784 -45.6858 -45.6472  13.6184  14.8487  15.3056  16.4108
    17.2289  19.0947  27.5794  33.1060  36.1957

          k = 0.5000-0.2500 0.7500 (  1058 PWs)   bands (ev):

   -85.1573 -45.7968 -45.6934 -45.6542  13.9956  14.8362  15.5105  16.2811
    17.4732  21.1825  23.9264  33.6637  34.5421

          k = 0.7500-0.2500 1.0000 (  1067 PWs)   bands (ev):

   -85.1574 -45.7810 -45.6927 -45.6702  13.6116  14.3201  15.8211  17.1447
    17.3392  19.4001  30.4515  31.0758  32.0111

          k = 0.6250-0.1250 0.8750 (  1063 PWs)   bands (ev):

   -85.1533 -45.7768 -45.7252 -45.6752  14.1196  14.4708  15.4838  16.8194
    17.5738  22.5795  25.8107  29.4633  31.6858

          k = 0.5000 0.0000 0.7500 (  1069 PWs)   bands (ev):

   -85.1550 -45.7648 -45.7356 -45.6638  14.4044  14.7085  14.9962  16.6692
    17.3469  21.7463  26.5795  28.8448  33.4780

          k =-0.2500-1.0000 0.0000 (  1062 PWs)   bands (ev):

   -85.1517 -45.7964 -45.7057 -45.6878  13.6443  14.1155  16.3996  17.2034
    17.7345  22.0788  27.2292  29.4455  30.4973

          k =-0.5000-1.0000 0.0000 (  1048 PWs)   bands (ev):

   -85.1517 -45.7508 -45.7508 -45.6883  14.1644  14.9660  14.9660  16.7307
    17.7352  25.4928  25.4928  27.7482  28.7831

     the Fermi energy is    17.5659 ev

!    total energy              =    -426.57527074 Ry
     Harris-Foulkes estimate   =    -426.57527074 Ry
     estimated scf accuracy    <          6.5E-10 Ry

     total all-electron energy =     -3039.033615 Ry

     The total energy is the sum of the following terms:

     one-electron contribution =    -184.94287523 Ry
     hartree contribution      =     104.52288646 Ry
     xc contribution           =     -33.92196002 Ry
     ewald contribution        =    -223.38275369 Ry
     one-center paw contrib.   =     -88.84779651 Ry
     smearing contrib. (-TS)   =      -0.00277175 Ry

     convergence has been achieved in   7 iterations

     Forces acting on atoms (cartesian axes, Ry/au):

     atom    1 type  1   force =     0.00000000    0.00000000    0.00000000

     Total force =     0.000000     Total SCF correction =     0.000000


     Computing stress (Cartesian axis) and pressure

          total   stress  (Ry/bohr**3)                   (kbar)     P= -128.46
  -0.00087323   0.00000000   0.00000000       -128.46      0.00      0.00
   0.00000000  -0.00087323  -0.00000000          0.00   -128.46     -0.00
   0.00000000  -0.00000000  -0.00087323          0.00     -0.00   -128.46


     Writing output data file Ni.save/

     init_run     :      0.40s CPU      0.42s WALL (       1 calls)
     electrons    :      3.90s CPU      4.12s WALL (       1 calls)
     forces       :      0.05s CPU      0.05s WALL (       1 calls)
     stress       :      0.15s CPU      0.16s WALL (       1 calls)

     Called by init_run:
     wfcinit      :      0.12s CPU      0.13s WALL (       1 calls)
     potinit      :      0.09s CPU      0.10s WALL (       1 calls)
     hinit0       :      0.16s CPU      0.16s WALL (       1 calls)

     Called by electrons:
     c_bands      :      2.63s CPU      2.75s WALL (       8 calls)
     sum_band     :      0.52s CPU      0.54s WALL (       8 calls)
     v_of_rho     :      0.04s CPU      0.04s WALL (       8 calls)
     newd         :      0.06s CPU      0.08s WALL (       8 calls)
     PAW_pot      :      0.73s CPU      0.80s WALL (       8 calls)
     mix_rho      :      0.00s CPU      0.00s WALL (       8 calls)

     Called by c_bands:
     init_us_2    :      0.07s CPU      0.08s WALL (     551 calls)
     cegterg      :      2.54s CPU      2.65s WALL (     232 calls)

     Called by sum_band:
     sum_band:bec :      0.00s CPU      0.00s WALL (     232 calls)
     addusdens    :      0.06s CPU      0.06s WALL (       8 calls)

     Called by *egterg:
     h_psi        :      1.98s CPU      2.07s WALL (     766 calls)
     s_psi        :      0.06s CPU      0.06s WALL (     766 calls)
     g_psi        :      0.01s CPU      0.01s WALL (     505 calls)
     cdiaghg      :      0.24s CPU      0.25s WALL (     708 calls)

     Called by h_psi:
     h_psi:pot    :      1.97s CPU      2.06s WALL (     766 calls)
     h_psi:calbec :      0.08s CPU      0.09s WALL (     766 calls)
     vloc_psi     :      1.81s CPU      1.90s WALL (     766 calls)
     add_vuspsi   :      0.06s CPU      0.07s WALL (     766 calls)

     General routines
     calbec       :      0.14s CPU      0.14s WALL (    1143 calls)
     fft          :      0.02s CPU      0.02s WALL (     115 calls)
     ffts         :      0.00s CPU      0.00s WALL (       8 calls)
     fftw         :      2.04s CPU      2.14s WALL (   18376 calls)

     Parallel routines
     fft_scatt_xy :      0.18s CPU      0.19s WALL (   18499 calls)
     fft_scatt_yz :      0.47s CPU      0.49s WALL (   18499 calls)

     PWSCF        :     5.53s CPU         5.82s WALL


   This run was terminated on:  23: 2:57  26Mar2024            

=------------------------------------------------------------------------------=
   JOB DONE.
=------------------------------------------------------------------------------=
