
     Program PWSCF v.6.3MaX starts on 26Mar2024 at 22:41:52 

     This program is part of the open-source Quantum ESPRESSO suite
     for quantum simulation of materials; please cite
         "P. Giannozzi et al., J. Phys.:Condens. Matter 21 395502 (2009);
         "P. Giannozzi et al., J. Phys.:Condens. Matter 29 465901 (2017);
          URL http://www.quantum-espresso.org", 
     in publications or presentations arising from this work. More details at
     http://www.quantum-espresso.org/quote

     Parallel version (MPI), running on     5 processors

     MPI processes distributed on     1 nodes
     R & G space division:  proc/nbgrp/npool/nimage =       5
     Waiting for input...
     Reading input from standard input

     Current dimensions of program PWSCF are:
     Max number of different atomic species (ntypx) = 10
     Max number of k-points (npk) =  40000
     Max angular momentum in pseudopotentials (lmaxx) =  3
               file Ni.pbe-spn-kjpaw_psl.1.0.0.UPF: wavefunction(s)  3P 3D renormalized

     Subspace diagonalization in iterative solution of the eigenvalue problem:
     a serial algorithm will be used


     Parallelization info
     --------------------
     sticks:   dense  smooth     PW     G-vecs:    dense   smooth      PW
     Min          67      67     21                  802      802     148
     Max          68      68     22                  804      804     151
     Sum         337     337    109                 4015     4015     749



     bravais-lattice index     =            2
     lattice parameter (alat)  =       6.6500  a.u.
     unit-cell volume          =      73.5199 (a.u.)^3
     number of atoms/cell      =            1
     number of atomic types    =            1
     number of electrons       =        18.00
     number of Kohn-Sham states=           13
     kinetic-energy cutoff     =      55.0000  Ry
     charge density cutoff     =     220.0000  Ry
     convergence threshold     =      1.0E-08
     mixing beta               =       0.7000
     number of iterations used =            8  plain     mixing
     Exchange-correlation      = SLA PW PBX PBC ( 1  4  3  4 0 0)

     celldm(1)=   6.650000  celldm(2)=   0.000000  celldm(3)=   0.000000
     celldm(4)=   0.000000  celldm(5)=   0.000000  celldm(6)=   0.000000

     crystal axes: (cart. coord. in units of alat)
               a(1) = (  -0.500000   0.000000   0.500000 )  
               a(2) = (   0.000000   0.500000   0.500000 )  
               a(3) = (  -0.500000   0.500000   0.000000 )  

     reciprocal axes: (cart. coord. in units 2 pi/alat)
               b(1) = ( -1.000000 -1.000000  1.000000 )  
               b(2) = (  1.000000  1.000000  1.000000 )  
               b(3) = ( -1.000000  1.000000 -1.000000 )  


     PseudoPot. # 1 for Ni read from file:
     /home/lorenzo/pseudos/Ni/Ni.pbe-spn-kjpaw_psl.1.0.0.UPF
     MD5 check sum: 6e86b733589c3ad8389697b807d86aa7
     Pseudo is Projector augmented-wave + core cor, Zval = 18.0
     Generated using "atomic" code by A. Dal Corso v.6.3
     Shape of augmentation charge: PSQ
     Using radial grid of 1195 points,  6 beta functions with: 
                l(1) =   0
                l(2) =   0
                l(3) =   1
                l(4) =   1
                l(5) =   2
                l(6) =   2
     Q(r) pseudized with 0 coefficients 


     atomic species   valence    mass     pseudopotential
        Ni            18.00    58.69340     Ni( 1.00)

     48 Sym. Ops., with inversion, found



   Cartesian axes

     site n.     atom                  positions (alat units)
         1           Ni  tau(   1) = (   0.0000000   0.0000000   0.0000000  )

     number of k points=    10  gaussian smearing, width (Ry)=  0.0100
                       cart. coord. in units 2pi/alat
        k(    1) = (   0.0000000   0.0000000   0.0000000), wk =   0.0160000
        k(    2) = (  -0.2000000   0.2000000  -0.2000000), wk =   0.1280000
        k(    3) = (  -0.4000000   0.4000000  -0.4000000), wk =   0.1280000
        k(    4) = (   0.0000000   0.4000000   0.0000000), wk =   0.0960000
        k(    5) = (  -0.2000000   0.6000000  -0.2000000), wk =   0.3840000
        k(    6) = (   0.6000000  -0.2000000   0.6000000), wk =   0.3840000
        k(    7) = (   0.4000000   0.0000000   0.4000000), wk =   0.1920000
        k(    8) = (   0.0000000   0.8000000   0.0000000), wk =   0.0960000
        k(    9) = (   0.8000000   0.0000000   0.8000000), wk =   0.1920000
        k(   10) = (   0.6000000  -0.2000000   1.0000000), wk =   0.3840000

     Dense  grid:     4015 G-vectors     FFT dimensions: (  24,  24,  24)

     Estimated max dynamical RAM per process >       4.51 MB

     Estimated total dynamical RAM >      22.53 MB

     Check: negative/imaginary core charge=   -0.000009    0.000000

     Initial potential from superposition of free atoms

     starting charge   17.99975, renormalised to   18.00000
     Starting wfcs are   10 randomized atomic wfcs +    3 random wfcs
     Checking if some PAW data can be deallocated... 

     total cpu time spent up to now is        1.1 secs

     Self-consistent Calculation

     iteration #  1     ecut=    55.00 Ry     beta= 0.70
     Davidson diagonalization with overlap
     ethr =  1.00E-02,  avg # of iterations =  3.9

     Threshold (ethr) on eigenvalues was too large:
     Diagonalizing with lowered threshold

     Davidson diagonalization with overlap
     ethr =  3.06E-05,  avg # of iterations =  2.8

     total cpu time spent up to now is        1.4 secs

     total energy              =    -429.12939266 Ry
     Harris-Foulkes estimate   =    -429.13327073 Ry
     estimated scf accuracy    <       0.00569654 Ry

     iteration #  2     ecut=    55.00 Ry     beta= 0.70
     Davidson diagonalization with overlap
     ethr =  3.16E-05,  avg # of iterations =  2.7

     total cpu time spent up to now is        1.6 secs

     total energy              =    -429.12841248 Ry
     Harris-Foulkes estimate   =    -429.13647208 Ry
     estimated scf accuracy    <       0.02213439 Ry

     iteration #  3     ecut=    55.00 Ry     beta= 0.70
     Davidson diagonalization with overlap
     ethr =  3.16E-05,  avg # of iterations =  2.1

     total cpu time spent up to now is        1.8 secs

     total energy              =    -429.13218094 Ry
     Harris-Foulkes estimate   =    -429.13220199 Ry
     estimated scf accuracy    <       0.00009829 Ry

     iteration #  4     ecut=    55.00 Ry     beta= 0.70
     Davidson diagonalization with overlap
     ethr =  5.46E-07,  avg # of iterations =  2.8

     total cpu time spent up to now is        1.9 secs

     total energy              =    -429.13220102 Ry
     Harris-Foulkes estimate   =    -429.13220089 Ry
     estimated scf accuracy    <       0.00000047 Ry

     iteration #  5     ecut=    55.00 Ry     beta= 0.70
     Davidson diagonalization with overlap
     ethr =  2.62E-09,  avg # of iterations =  2.3

     total cpu time spent up to now is        2.1 secs

     total energy              =    -429.13220114 Ry
     Harris-Foulkes estimate   =    -429.13220116 Ry
     estimated scf accuracy    <       0.00000004 Ry

     iteration #  6     ecut=    55.00 Ry     beta= 0.70
     Davidson diagonalization with overlap
     ethr =  2.37E-10,  avg # of iterations =  2.0

     total cpu time spent up to now is        2.3 secs

     End of self-consistent calculation

          k = 0.0000 0.0000 0.0000 (   531 PWs)   bands (ev):

   -85.2069 -45.4644 -45.4644 -45.4644   8.8460  15.9829  15.9829  15.9829
    17.0906  17.0906  41.4881  45.4434  45.4434

          k =-0.2000 0.2000-0.2000 (   516 PWs)   bands (ev):

   -85.1947 -45.5331 -45.4727 -45.4727  10.3496  15.6587  16.1932  16.1932
    17.0814  17.0814  34.8910  42.0227  43.6402

          k =-0.4000 0.4000-0.4000 (   498 PWs)   bands (ev):

   -85.1752 -45.6573 -45.4838 -45.4838  13.0773  15.9954  15.9954  16.4985
    17.6986  17.6986  25.9147  40.3031  42.6642

          k = 0.0000 0.4000 0.0000 (   520 PWs)   bands (ev):

   -85.1909 -45.5322 -45.4906 -45.4906  10.8217  15.3017  16.5326  16.5573
    16.5573  17.3384  38.8264  38.8264  39.2372

          k =-0.2000 0.6000-0.2000 (   509 PWs)   bands (ev):

   -85.1740 -45.6219 -45.5178 -45.5065  13.2787  14.9680  15.8907  16.6600
    17.7950  18.2619  29.4333  36.1537  36.9471

          k = 0.6000-0.2000 0.6000 (   513 PWs)   bands (ev):

   -85.1678 -45.6511 -45.5466 -45.5035  14.1350  15.2518  15.8681  16.4573
    17.6603  20.8458  24.5614  33.1185  38.7342

          k = 0.4000 0.0000 0.4000 (   509 PWs)   bands (ev):

   -85.1803 -45.5918 -45.5222 -45.4792  12.4828  15.2869  15.9252  16.6193
    16.7473  18.1691  32.2484  33.1157  43.1486

          k = 0.0000 0.8000 0.0000 (   496 PWs)   bands (ev):

   -85.1650 -45.6457 -45.5318 -45.5318  13.4680  14.2868  17.7523  17.7714
    17.7714  18.4054  30.1892  33.5054  33.5054

          k = 0.8000 0.0000 0.8000 (   494 PWs)   bands (ev):

   -85.1610 -45.6428 -45.5715 -45.5277  14.0116  14.4272  16.5932  17.4214
    17.8615  22.7898  26.8307  27.9204  34.2432

          k = 0.6000-0.2000 1.0000 (   503 PWs)   bands (ev):

   -85.1636 -45.6246 -45.5767 -45.5279  14.4138  14.9151  15.4629  17.1112
    17.7650  21.7417  27.9587  29.6443  31.6709

     the Fermi energy is    17.8494 ev

!    total energy              =    -429.13220114 Ry
     Harris-Foulkes estimate   =    -429.13220114 Ry
     estimated scf accuracy    <          2.9E-10 Ry

     total all-electron energy =     -3041.564309 Ry

     The total energy is the sum of the following terms:

     one-electron contribution =    -185.20799333 Ry
     hartree contribution      =     104.88058789 Ry
     xc contribution           =     -34.33480476 Ry
     ewald contribution        =    -223.38275374 Ry
     one-center paw contrib.   =     -91.08411559 Ry
     smearing contrib. (-TS)   =      -0.00312163 Ry

     convergence has been achieved in   6 iterations

     Forces acting on atoms (cartesian axes, Ry/au):

     atom    1 type  1   force =     0.00000000    0.00000000    0.00000000

     Total force =     0.000000     Total SCF correction =     0.000000


     Computing stress (Cartesian axis) and pressure

          total   stress  (Ry/bohr**3)                   (kbar)     P= -155.89
  -0.00105973   0.00000000   0.00000000       -155.89      0.00      0.00
   0.00000000  -0.00105973  -0.00000000          0.00   -155.89     -0.00
   0.00000000  -0.00000000  -0.00105973          0.00     -0.00   -155.89


     Writing output data file Ni.save/

     init_run     :      0.27s CPU      0.29s WALL (       1 calls)
     electrons    :      1.14s CPU      1.24s WALL (       1 calls)
     forces       :      0.02s CPU      0.02s WALL (       1 calls)
     stress       :      0.05s CPU      0.05s WALL (       1 calls)

     Called by init_run:
     wfcinit      :      0.02s CPU      0.02s WALL (       1 calls)
     potinit      :      0.10s CPU      0.11s WALL (       1 calls)
     hinit0       :      0.13s CPU      0.13s WALL (       1 calls)

     Called by electrons:
     c_bands      :      0.47s CPU      0.49s WALL (       7 calls)
     sum_band     :      0.10s CPU      0.11s WALL (       7 calls)
     v_of_rho     :      0.02s CPU      0.02s WALL (       7 calls)
     newd         :      0.03s CPU      0.03s WALL (       7 calls)
     PAW_pot      :      0.61s CPU      0.69s WALL (       7 calls)
     mix_rho      :      0.00s CPU      0.00s WALL (       7 calls)

     Called by c_bands:
     init_us_2    :      0.01s CPU      0.01s WALL (     170 calls)
     cegterg      :      0.46s CPU      0.48s WALL (      70 calls)

     Called by sum_band:
     sum_band:bec :      0.00s CPU      0.00s WALL (      70 calls)
     addusdens    :      0.03s CPU      0.03s WALL (       7 calls)

     Called by *egterg:
     h_psi        :      0.32s CPU      0.34s WALL (     266 calls)
     s_psi        :      0.01s CPU      0.01s WALL (     266 calls)
     g_psi        :      0.00s CPU      0.00s WALL (     186 calls)
     cdiaghg      :      0.08s CPU      0.08s WALL (     246 calls)

     Called by h_psi:
     h_psi:pot    :      0.32s CPU      0.33s WALL (     266 calls)
     h_psi:calbec :      0.01s CPU      0.02s WALL (     266 calls)
     vloc_psi     :      0.29s CPU      0.31s WALL (     266 calls)
     add_vuspsi   :      0.01s CPU      0.01s WALL (     266 calls)

     General routines
     calbec       :      0.02s CPU      0.02s WALL (     386 calls)
     fft          :      0.02s CPU      0.02s WALL (     104 calls)
     ffts         :      0.00s CPU      0.00s WALL (       7 calls)
     fftw         :      0.32s CPU      0.34s WALL (    5678 calls)

     Parallel routines
     fft_scatt_xy :      0.03s CPU      0.03s WALL (    5789 calls)
     fft_scatt_yz :      0.08s CPU      0.09s WALL (    5789 calls)

     PWSCF        :     2.29s CPU         2.46s WALL


   This run was terminated on:  22:41:54  26Mar2024            

=------------------------------------------------------------------------------=
   JOB DONE.
=------------------------------------------------------------------------------=
