
     Program PWSCF v.6.3MaX starts on 26Mar2024 at 22:37:59 

     This program is part of the open-source Quantum ESPRESSO suite
     for quantum simulation of materials; please cite
         "P. Giannozzi et al., J. Phys.:Condens. Matter 21 395502 (2009);
         "P. Giannozzi et al., J. Phys.:Condens. Matter 29 465901 (2017);
          URL http://www.quantum-espresso.org", 
     in publications or presentations arising from this work. More details at
     http://www.quantum-espresso.org/quote

     Parallel version (MPI), running on     5 processors

     MPI processes distributed on     1 nodes
     R & G space division:  proc/nbgrp/npool/nimage =       5
     Waiting for input...
     Reading input from standard input

     Current dimensions of program PWSCF are:
     Max number of different atomic species (ntypx) = 10
     Max number of k-points (npk) =  40000
     Max angular momentum in pseudopotentials (lmaxx) =  3
               file Ni.pbe-spn-kjpaw_psl.1.0.0.UPF: wavefunction(s)  3P 3D renormalized

     Subspace diagonalization in iterative solution of the eigenvalue problem:
     a serial algorithm will be used


     Parallelization info
     --------------------
     sticks:   dense  smooth     PW     G-vecs:    dense   smooth      PW
     Min          53      53     18                  595      595     121
     Max          56      56     19                  595      595     123
     Sum         271     271     91                 2975     2975     609



     bravais-lattice index     =            2
     lattice parameter (alat)  =       6.6500  a.u.
     unit-cell volume          =      73.5199 (a.u.)^3
     number of atoms/cell      =            1
     number of atomic types    =            1
     number of electrons       =        18.00
     number of Kohn-Sham states=           13
     kinetic-energy cutoff     =      45.0000  Ry
     charge density cutoff     =     180.0000  Ry
     convergence threshold     =      1.0E-08
     mixing beta               =       0.7000
     number of iterations used =            8  plain     mixing
     Exchange-correlation      = SLA PW PBX PBC ( 1  4  3  4 0 0)

     celldm(1)=   6.650000  celldm(2)=   0.000000  celldm(3)=   0.000000
     celldm(4)=   0.000000  celldm(5)=   0.000000  celldm(6)=   0.000000

     crystal axes: (cart. coord. in units of alat)
               a(1) = (  -0.500000   0.000000   0.500000 )  
               a(2) = (   0.000000   0.500000   0.500000 )  
               a(3) = (  -0.500000   0.500000   0.000000 )  

     reciprocal axes: (cart. coord. in units 2 pi/alat)
               b(1) = ( -1.000000 -1.000000  1.000000 )  
               b(2) = (  1.000000  1.000000  1.000000 )  
               b(3) = ( -1.000000  1.000000 -1.000000 )  


     PseudoPot. # 1 for Ni read from file:
     /home/lorenzo/pseudos/Ni/Ni.pbe-spn-kjpaw_psl.1.0.0.UPF
     MD5 check sum: 6e86b733589c3ad8389697b807d86aa7
     Pseudo is Projector augmented-wave + core cor, Zval = 18.0
     Generated using "atomic" code by A. Dal Corso v.6.3
     Shape of augmentation charge: PSQ
     Using radial grid of 1195 points,  6 beta functions with: 
                l(1) =   0
                l(2) =   0
                l(3) =   1
                l(4) =   1
                l(5) =   2
                l(6) =   2
     Q(r) pseudized with 0 coefficients 


     atomic species   valence    mass     pseudopotential
        Ni            18.00    58.69340     Ni( 1.00)

     48 Sym. Ops., with inversion, found



   Cartesian axes

     site n.     atom                  positions (alat units)
         1           Ni  tau(   1) = (   0.0000000   0.0000000   0.0000000  )

     number of k points=    35  gaussian smearing, width (Ry)=  0.0100
                       cart. coord. in units 2pi/alat
        k(    1) = (   0.0000000   0.0000000   0.0000000), wk =   0.0027435
        k(    2) = (  -0.1111111   0.1111111  -0.1111111), wk =   0.0219479
        k(    3) = (  -0.2222222   0.2222222  -0.2222222), wk =   0.0219479
        k(    4) = (  -0.3333333   0.3333333  -0.3333333), wk =   0.0219479
        k(    5) = (  -0.4444444   0.4444444  -0.4444444), wk =   0.0219479
        k(    6) = (   0.0000000   0.2222222   0.0000000), wk =   0.0164609
        k(    7) = (  -0.1111111   0.3333333  -0.1111111), wk =   0.0658436
        k(    8) = (  -0.2222222   0.4444444  -0.2222222), wk =   0.0658436
        k(    9) = (  -0.3333333   0.5555556  -0.3333333), wk =   0.0658436
        k(   10) = (   0.5555556  -0.3333333   0.5555556), wk =   0.0658436
        k(   11) = (   0.4444444  -0.2222222   0.4444444), wk =   0.0658436
        k(   12) = (   0.3333333  -0.1111111   0.3333333), wk =   0.0658436
        k(   13) = (   0.2222222  -0.0000000   0.2222222), wk =   0.0329218
        k(   14) = (   0.0000000   0.4444444   0.0000000), wk =   0.0164609
        k(   15) = (  -0.1111111   0.5555556  -0.1111111), wk =   0.0658436
        k(   16) = (  -0.2222222   0.6666667  -0.2222222), wk =   0.0658436
        k(   17) = (   0.6666667  -0.2222222   0.6666667), wk =   0.0658436
        k(   18) = (   0.5555556  -0.1111111   0.5555556), wk =   0.0658436
        k(   19) = (   0.4444444   0.0000000   0.4444444), wk =   0.0329218
        k(   20) = (   0.0000000   0.6666667   0.0000000), wk =   0.0164609
        k(   21) = (  -0.1111111   0.7777778  -0.1111111), wk =   0.0658436
        k(   22) = (   0.7777778  -0.1111111   0.7777778), wk =   0.0658436
        k(   23) = (   0.6666667  -0.0000000   0.6666667), wk =   0.0329218
        k(   24) = (   0.0000000   0.8888889   0.0000000), wk =   0.0164609
        k(   25) = (   0.8888889   0.0000000   0.8888889), wk =   0.0329218
        k(   26) = (  -0.2222222   0.4444444   0.0000000), wk =   0.0658436
        k(   27) = (  -0.3333333   0.5555556  -0.1111111), wk =   0.1316872
        k(   28) = (   0.5555556  -0.3333333   0.7777778), wk =   0.1316872
        k(   29) = (  -0.2222222   0.6666667   0.0000000), wk =   0.0658436
        k(   30) = (   0.6666667  -0.2222222   0.8888889), wk =   0.1316872
        k(   31) = (   0.5555556  -0.1111111   0.7777778), wk =   0.1316872
        k(   32) = (   0.4444444   0.0000000   0.6666667), wk =   0.0658436
        k(   33) = (   0.7777778  -0.1111111   1.0000000), wk =   0.0658436
        k(   34) = (   0.6666667  -0.0000000   0.8888889), wk =   0.0658436
        k(   35) = (   0.5555556  -0.1111111   1.0000000), wk =   0.0658436

     Dense  grid:     2975 G-vectors     FFT dimensions: (  24,  24,  24)

     Estimated max dynamical RAM per process >       3.97 MB

     Estimated total dynamical RAM >      19.83 MB

     Check: negative/imaginary core charge=   -0.000034    0.000000

     Initial potential from superposition of free atoms

     starting charge   17.99975, renormalised to   18.00000
     Starting wfcs are   10 randomized atomic wfcs +    3 random wfcs
     Checking if some PAW data can be deallocated... 

     total cpu time spent up to now is        1.0 secs

     Self-consistent Calculation

     iteration #  1     ecut=    45.00 Ry     beta= 0.70
     Davidson diagonalization with overlap
     ethr =  1.00E-02,  avg # of iterations =  4.1

     Threshold (ethr) on eigenvalues was too large:
     Diagonalizing with lowered threshold

     Davidson diagonalization with overlap
     ethr =  3.32E-05,  avg # of iterations =  1.9

     total cpu time spent up to now is        1.7 secs

     total energy              =    -428.99099703 Ry
     Harris-Foulkes estimate   =    -428.99254979 Ry
     estimated scf accuracy    <       0.00607529 Ry

     iteration #  2     ecut=    45.00 Ry     beta= 0.70
     Davidson diagonalization with overlap
     ethr =  3.38E-05,  avg # of iterations =  1.0

     total cpu time spent up to now is        2.0 secs

     total energy              =    -428.99138761 Ry
     Harris-Foulkes estimate   =    -428.99134333 Ry
     estimated scf accuracy    <       0.00030071 Ry

     iteration #  3     ecut=    45.00 Ry     beta= 0.70
     Davidson diagonalization with overlap
     ethr =  1.67E-06,  avg # of iterations =  2.2

     total cpu time spent up to now is        2.4 secs

     total energy              =    -428.99137770 Ry
     Harris-Foulkes estimate   =    -428.99145923 Ry
     estimated scf accuracy    <       0.00018151 Ry

     iteration #  4     ecut=    45.00 Ry     beta= 0.70
     Davidson diagonalization with overlap
     ethr =  1.01E-06,  avg # of iterations =  2.0

     total cpu time spent up to now is        2.8 secs

     total energy              =    -428.99142391 Ry
     Harris-Foulkes estimate   =    -428.99143405 Ry
     estimated scf accuracy    <       0.00003938 Ry

     iteration #  5     ecut=    45.00 Ry     beta= 0.70
     Davidson diagonalization with overlap
     ethr =  2.19E-07,  avg # of iterations =  1.6

     total cpu time spent up to now is        3.1 secs

     total energy              =    -428.99142977 Ry
     Harris-Foulkes estimate   =    -428.99142979 Ry
     estimated scf accuracy    <       0.00000006 Ry

     iteration #  6     ecut=    45.00 Ry     beta= 0.70
     Davidson diagonalization with overlap
     ethr =  3.58E-10,  avg # of iterations =  3.0

     total cpu time spent up to now is        3.5 secs

     End of self-consistent calculation

          k = 0.0000 0.0000 0.0000 (   339 PWs)   bands (ev):

   -85.4118 -45.3323 -45.3323 -45.3323   8.9646  15.9870  15.9870  15.9870
    17.1171  17.1171  41.4796  45.4286  45.4286

          k =-0.1111 0.1111-0.1111 (   362 PWs)   bands (ev):

   -85.4084 -45.4919 -45.4168 -45.4168   9.4177  15.8356  16.0530  16.0530
    16.9853  16.9853  39.2646  42.6885  44.4752

          k =-0.2222 0.2222-0.2222 (   362 PWs)   bands (ev):

   -85.3983 -45.5496 -45.4297 -45.4297  10.7501  15.6036  16.1741  16.1741
    17.0380  17.0380  33.7528  41.8555  43.3967

          k =-0.3333 0.3333-0.3333 (   359 PWs)   bands (ev):

   -85.3867 -45.6031 -45.4216 -45.4216  12.4638  15.7896  16.0683  16.0683
    17.4072  17.4072  28.5522  40.8198  42.7771

          k =-0.4444 0.4444-0.4444 (   374 PWs)   bands (ev):

   -85.3795 -45.7560 -45.4631 -45.4631  13.3180  15.9222  15.9222  17.1018
    17.6820  17.6820  24.5627  40.0936  42.5608

          k = 0.0000 0.2222 0.0000 (   359 PWs)   bands (ev):

   -85.4070 -45.5079 -45.3930 -45.3930   9.5783  15.7524  16.1039  16.1039
    16.8345  17.1609  40.3754  42.0193  42.0193

          k =-0.1111 0.3333-0.1111 (   364 PWs)   bands (ev):

   -85.3991 -45.5301 -45.4758 -45.4164  10.6170  15.4755  16.2251  16.3070
    16.7653  17.2175  35.9108  40.3076  40.6071

          k =-0.2222 0.4444-0.2222 (   375 PWs)   bands (ev):

   -85.3882 -45.6406 -45.5074 -45.4801  12.2407  15.3125  15.9800  16.2677
    17.3303  17.4793  30.4678  39.4102  39.5624

          k =-0.3333 0.5556-0.3333 (   373 PWs)   bands (ev):

   -85.3794 -45.6975 -45.5087 -45.4694  13.4364  15.6402  16.0067  16.1273
    17.7401  18.4346  25.8637  38.3112  39.4479

          k = 0.5556-0.3333 0.5556 (   370 PWs)   bands (ev):

   -85.3767 -45.7209 -45.4813 -45.4528  13.6435  15.6726  16.0605  16.3983
    17.6946  19.3336  24.0366  37.1990  40.5562

          k = 0.4444-0.2222 0.4444 (   372 PWs)   bands (ev):

   -85.3818 -45.6713 -45.5044 -45.4615  13.1856  15.6962  15.8620  16.1273
    17.3045  18.2842  27.2683  36.7145  41.8316

          k = 0.3333-0.1111 0.3333 (   372 PWs)   bands (ev):

   -85.3920 -45.6210 -45.4875 -45.4605  11.6844  15.3892  16.0901  16.2873
    16.8164  17.5550  32.2347  37.0016  43.7002

          k = 0.2222-0.0000 0.2222 (   367 PWs)   bands (ev):

   -85.4025 -45.5193 -45.4685 -45.4490  10.1756  15.6104  16.1773  16.1796
    16.7681  17.1637  37.4079  38.4227  44.6945

          k = 0.0000 0.4444 0.0000 (   367 PWs)   bands (ev):

   -85.3937 -45.5427 -45.4707 -45.4707  11.2991  15.1632  16.4018  16.6322
    16.6322  17.3067  38.0120  38.0120  38.9134

          k =-0.1111 0.5556-0.1111 (   370 PWs)   bands (ev):

   -85.3848 -45.6023 -45.4967 -45.4782  12.5726  14.8825  16.1010  16.7798
    17.3806  17.5442  33.0188  36.6514  36.8247

          k =-0.2222 0.6667-0.2222 (   379 PWs)   bands (ev):

   -85.3766 -45.6775 -45.5522 -45.5243  13.7441  14.8504  15.8436  16.6451
    17.7685  18.9858  28.0275  34.4826  36.3941

          k = 0.6667-0.2222 0.6667 (   376 PWs)   bands (ev):

   -85.3727 -45.6945 -45.5660 -45.4998  14.2181  14.9861  15.8240  16.5212
    17.7108  21.3246  24.3683  32.7056  37.3471

          k = 0.5556-0.1111 0.5556 (   381 PWs)   bands (ev):

   -85.3753 -45.7056 -45.5781 -45.5145  14.1501  15.2518  15.5062  16.4670
    17.2889  20.0809  26.5834  31.7434  39.4131

          k = 0.4444 0.0000 0.4444 (   367 PWs)   bands (ev):

   -85.3826 -45.5767 -45.5252 -45.4654  13.1490  15.2268  15.7512  16.5384
    16.8106  18.5444  30.9436  32.1004  42.3291

          k = 0.0000 0.6667 0.0000 (   379 PWs)   bands (ev):

   -85.3787 -45.6877 -45.5172 -45.5172  13.1185  14.5493  16.8895  17.2937
    17.2937  17.5478  33.5110  34.7859  34.7859

          k =-0.1111 0.7778-0.1111 (   379 PWs)   bands (ev):

   -85.3724 -45.7152 -45.5460 -45.5157  13.6308  14.3982  16.7476  17.3330
    17.7892  19.1144  30.6101  31.2463  34.0951

          k = 0.7778-0.1111 0.7778 (   379 PWs)   bands (ev):

   -85.3691 -45.6757 -45.6135 -45.5300  14.1148  14.4827  16.2434  17.1507
    17.7549  22.1112  26.4979  29.1065  34.7484

          k = 0.6667-0.0000 0.6667 (   383 PWs)   bands (ev):

   -85.3703 -45.6765 -45.6577 -45.5309  14.5848  14.6908  15.6442  16.8654
    17.4723  22.7691  25.4277  28.6057  36.6297

          k = 0.0000 0.8889 0.0000 (   379 PWs)   bands (ev):

   -85.3688 -45.6879 -45.5579 -45.5579  13.5043  14.1643  17.6862  17.8419
    17.8419  19.5237  28.3652  32.9163  32.9163

          k = 0.8889 0.0000 0.8889 (   371 PWs)   bands (ev):

   -85.3673 -45.6951 -45.5268 -45.5074  13.6783  14.2343  17.2802  17.6128
    17.8767  21.2452  27.3809  30.1944  33.1551

          k =-0.2222 0.4444 0.0000 (   372 PWs)   bands (ev):

   -85.3907 -45.5919 -45.4959 -45.4832  11.8212  15.1893  16.0332  16.6263
    16.7605  17.5933  34.3187  35.0674  40.7601

          k =-0.3333 0.5556-0.1111 (   378 PWs)   bands (ev):

   -85.3811 -45.6622 -45.5427 -45.5037  13.3206  15.1067  15.6836  16.5499
    17.2452  18.4841  29.3772  34.2293  38.1727

          k = 0.5556-0.3333 0.7778 (   376 PWs)   bands (ev):

   -85.3748 -45.7011 -45.5468 -45.4994  14.0455  15.2178  15.7606  16.4016
    17.6305  20.2403  25.0957  34.5020  36.2071

          k =-0.2222 0.6667 0.0000 (   375 PWs)   bands (ev):

   -85.3772 -45.6557 -45.5214 -45.5100  13.5346  14.6994  15.9635  17.2552
    17.3019  18.5890  31.8179  32.4722  34.3277

          k = 0.6667-0.2222 0.8889 (   374 PWs)   bands (ev):

   -85.3713 -45.6613 -45.5662 -45.5068  14.2233  14.7189  15.7317  17.0093
    17.6943  20.8416  27.4003  31.6234  32.6944

          k = 0.5556-0.1111 0.7778 (   378 PWs)   bands (ev):

   -85.3702 -45.6735 -45.5990 -45.5345  14.6725  14.7037  15.5087  16.8005
    17.6444  22.8761  24.8123  30.2386  33.6587

          k = 0.4444 0.0000 0.6667 (   377 PWs)   bands (ev):

   -85.3739 -45.6684 -45.5822 -45.5019  14.3637  15.0921  15.2128  16.8079
    17.3305  20.2923  28.3091  30.0824  35.6054

          k = 0.7778-0.1111 1.0000 (   369 PWs)   bands (ev):

   -85.3684 -45.6656 -45.5241 -45.5042  13.8507  14.3885  16.6548  17.4908
    17.8494  21.1266  28.6068  30.3019  31.3310

          k = 0.6667-0.0000 0.8889 (   380 PWs)   bands (ev):

   -85.3678 -45.6718 -45.6244 -45.5552  14.1922  14.5809  16.0243  17.1338
    17.8378  23.5908  26.4229  28.0227  31.8494

          k = 0.5556-0.1111 1.0000 (   385 PWs)   bands (ev):

   -85.3683 -45.6701 -45.6364 -45.5955  14.4055  14.9616  15.3547  16.9503
    17.8285  23.6144  26.7332  28.8057  30.0789

     the Fermi energy is    17.7492 ev

!    total energy              =    -428.99142990 Ry
     Harris-Foulkes estimate   =    -428.99142991 Ry
     estimated scf accuracy    <          9.6E-09 Ry

     total all-electron energy =     -3041.423537 Ry

     The total energy is the sum of the following terms:

     one-electron contribution =    -184.89515827 Ry
     hartree contribution      =     104.64850467 Ry
     xc contribution           =     -34.32376579 Ry
     ewald contribution        =    -223.38275378 Ry
     one-center paw contrib.   =     -91.03577341 Ry
     smearing contrib. (-TS)   =      -0.00248331 Ry

     convergence has been achieved in   6 iterations

     Forces acting on atoms (cartesian axes, Ry/au):

     atom    1 type  1   force =     0.00000000    0.00000000    0.00000000

     Total force =     0.000000     Total SCF correction =     0.000000


     Computing stress (Cartesian axis) and pressure

          total   stress  (Ry/bohr**3)                   (kbar)     P=-2400.95
  -0.01632132  -0.00000000  -0.00000000      -2400.95     -0.00     -0.00
  -0.00000000  -0.01632132   0.00000000         -0.00  -2400.95      0.00
  -0.00000000   0.00000000  -0.01632132         -0.00      0.00  -2400.95


     Writing output data file Ni.save/

     init_run     :      0.29s CPU      0.32s WALL (       1 calls)
     electrons    :      2.28s CPU      2.50s WALL (       1 calls)
     forces       :      0.02s CPU      0.02s WALL (       1 calls)
     stress       :      0.09s CPU      0.09s WALL (       1 calls)

     Called by init_run:
     wfcinit      :      0.07s CPU      0.08s WALL (       1 calls)
     potinit      :      0.09s CPU      0.10s WALL (       1 calls)
     hinit0       :      0.11s CPU      0.12s WALL (       1 calls)

     Called by electrons:
     c_bands      :      1.45s CPU      1.56s WALL (       7 calls)
     sum_band     :      0.24s CPU      0.26s WALL (       7 calls)
     v_of_rho     :      0.02s CPU      0.02s WALL (       7 calls)
     newd         :      0.02s CPU      0.02s WALL (       7 calls)
     PAW_pot      :      0.63s CPU      0.72s WALL (       7 calls)
     mix_rho      :      0.00s CPU      0.00s WALL (       7 calls)

     Called by c_bands:
     init_us_2    :      0.03s CPU      0.03s WALL (     595 calls)
     cegterg      :      1.41s CPU      1.52s WALL (     245 calls)

     Called by sum_band:
     sum_band:bec :      0.00s CPU      0.00s WALL (     245 calls)
     addusdens    :      0.02s CPU      0.02s WALL (       7 calls)

     Called by *egterg:
     h_psi        :      1.01s CPU      1.10s WALL (     832 calls)
     s_psi        :      0.03s CPU      0.03s WALL (     832 calls)
     g_psi        :      0.00s CPU      0.00s WALL (     552 calls)
     cdiaghg      :      0.26s CPU      0.27s WALL (     762 calls)

     Called by h_psi:
     h_psi:pot    :      1.01s CPU      1.10s WALL (     832 calls)
     h_psi:calbec :      0.04s CPU      0.04s WALL (     832 calls)
     vloc_psi     :      0.94s CPU      1.02s WALL (     832 calls)
     add_vuspsi   :      0.03s CPU      0.03s WALL (     832 calls)

     General routines
     calbec       :      0.06s CPU      0.07s WALL (    1252 calls)
     fft          :      0.01s CPU      0.01s WALL (     104 calls)
     ffts         :      0.00s CPU      0.00s WALL (       7 calls)
     fftw         :      1.02s CPU      1.11s WALL (   19731 calls)

     Parallel routines
     fft_scatt_xy :      0.10s CPU      0.11s WALL (   19842 calls)
     fft_scatt_yz :      0.26s CPU      0.29s WALL (   19842 calls)

     PWSCF        :     3.43s CPU         3.73s WALL


   This run was terminated on:  22:38: 3  26Mar2024            

=------------------------------------------------------------------------------=
   JOB DONE.
=------------------------------------------------------------------------------=
