
     Program PWSCF v.6.3MaX starts on 26Mar2024 at 22:28: 7 

     This program is part of the open-source Quantum ESPRESSO suite
     for quantum simulation of materials; please cite
         "P. Giannozzi et al., J. Phys.:Condens. Matter 21 395502 (2009);
         "P. Giannozzi et al., J. Phys.:Condens. Matter 29 465901 (2017);
          URL http://www.quantum-espresso.org", 
     in publications or presentations arising from this work. More details at
     http://www.quantum-espresso.org/quote

     Parallel version (MPI), running on     5 processors

     MPI processes distributed on     1 nodes
     R & G space division:  proc/nbgrp/npool/nimage =       5
     Waiting for input...
     Reading input from standard input

     Current dimensions of program PWSCF are:
     Max number of different atomic species (ntypx) = 10
     Max number of k-points (npk) =  40000
     Max angular momentum in pseudopotentials (lmaxx) =  3

     Subspace diagonalization in iterative solution of the eigenvalue problem:
     a serial algorithm will be used


     Parallelization info
     --------------------
     sticks:   dense  smooth     PW     G-vecs:    dense   smooth      PW
     Min          30      30     12                  248      248      61
     Max          31      31     13                  250      250      62
     Sum         151     151     61                 1243     1243     307



     bravais-lattice index     =            2
     lattice parameter (alat)  =       6.6500  a.u.
     unit-cell volume          =      73.5199 (a.u.)^3
     number of atoms/cell      =            1
     number of atomic types    =            1
     number of electrons       =        18.00
     number of Kohn-Sham states=           13
     kinetic-energy cutoff     =      25.0000  Ry
     charge density cutoff     =     100.0000  Ry
     convergence threshold     =      1.0E-08
     mixing beta               =       0.7000
     number of iterations used =            8  plain     mixing
     Exchange-correlation      = PBE ( 1  4  3  4 0 0)

     celldm(1)=   6.650000  celldm(2)=   0.000000  celldm(3)=   0.000000
     celldm(4)=   0.000000  celldm(5)=   0.000000  celldm(6)=   0.000000

     crystal axes: (cart. coord. in units of alat)
               a(1) = (  -0.500000   0.000000   0.500000 )  
               a(2) = (   0.000000   0.500000   0.500000 )  
               a(3) = (  -0.500000   0.500000   0.000000 )  

     reciprocal axes: (cart. coord. in units 2 pi/alat)
               b(1) = ( -1.000000 -1.000000  1.000000 )  
               b(2) = (  1.000000  1.000000  1.000000 )  
               b(3) = ( -1.000000  1.000000 -1.000000 )  


     PseudoPot. # 1 for Ni read from file:
     /home/lorenzo/pseudos/Ni/Ni.pbe-spn-rrkjus_psl.1.0.0.UPF
     MD5 check sum: 8b3fc9aac6dafe35f580d41bb18c3945
     Pseudo is Ultrasoft + core correction, Zval = 18.0
     Generated using "atomic" code by A. Dal Corso v.6.3
     Using radial grid of 1195 points,  6 beta functions with: 
                l(1) =   0
                l(2) =   0
                l(3) =   1
                l(4) =   1
                l(5) =   2
                l(6) =   2
     Q(r) pseudized with 0 coefficients 


     atomic species   valence    mass     pseudopotential
        Ni            18.00    58.69340     Ni( 1.00)

     48 Sym. Ops., with inversion, found



   Cartesian axes

     site n.     atom                  positions (alat units)
         1           Ni  tau(   1) = (   0.0000000   0.0000000   0.0000000  )

     number of k points=    56  gaussian smearing, width (Ry)=  0.0100
                       cart. coord. in units 2pi/alat
        k(    1) = (   0.0000000   0.0000000   0.0000000), wk =   0.0015026
        k(    2) = (  -0.0909091   0.0909091  -0.0909091), wk =   0.0120210
        k(    3) = (  -0.1818182   0.1818182  -0.1818182), wk =   0.0120210
        k(    4) = (  -0.2727273   0.2727273  -0.2727273), wk =   0.0120210
        k(    5) = (  -0.3636364   0.3636364  -0.3636364), wk =   0.0120210
        k(    6) = (  -0.4545455   0.4545455  -0.4545455), wk =   0.0120210
        k(    7) = (   0.0000000   0.1818182   0.0000000), wk =   0.0090158
        k(    8) = (  -0.0909091   0.2727273  -0.0909091), wk =   0.0360631
        k(    9) = (  -0.1818182   0.3636364  -0.1818182), wk =   0.0360631
        k(   10) = (  -0.2727273   0.4545455  -0.2727273), wk =   0.0360631
        k(   11) = (  -0.3636364   0.5454545  -0.3636364), wk =   0.0360631
        k(   12) = (   0.5454545  -0.3636364   0.5454545), wk =   0.0360631
        k(   13) = (   0.4545455  -0.2727273   0.4545455), wk =   0.0360631
        k(   14) = (   0.3636364  -0.1818182   0.3636364), wk =   0.0360631
        k(   15) = (   0.2727273  -0.0909091   0.2727273), wk =   0.0360631
        k(   16) = (   0.1818182  -0.0000000   0.1818182), wk =   0.0180316
        k(   17) = (   0.0000000   0.3636364   0.0000000), wk =   0.0090158
        k(   18) = (  -0.0909091   0.4545455  -0.0909091), wk =   0.0360631
        k(   19) = (  -0.1818182   0.5454545  -0.1818182), wk =   0.0360631
        k(   20) = (  -0.2727273   0.6363636  -0.2727273), wk =   0.0360631
        k(   21) = (   0.6363636  -0.2727273   0.6363636), wk =   0.0360631
        k(   22) = (   0.5454545  -0.1818182   0.5454545), wk =   0.0360631
        k(   23) = (   0.4545455  -0.0909091   0.4545455), wk =   0.0360631
        k(   24) = (   0.3636364   0.0000000   0.3636364), wk =   0.0180316
        k(   25) = (   0.0000000   0.5454545   0.0000000), wk =   0.0090158
        k(   26) = (  -0.0909091   0.6363636  -0.0909091), wk =   0.0360631
        k(   27) = (  -0.1818182   0.7272727  -0.1818182), wk =   0.0360631
        k(   28) = (   0.7272727  -0.1818182   0.7272727), wk =   0.0360631
        k(   29) = (   0.6363636  -0.0909091   0.6363636), wk =   0.0360631
        k(   30) = (   0.5454545   0.0000000   0.5454545), wk =   0.0180316
        k(   31) = (   0.0000000   0.7272727   0.0000000), wk =   0.0090158
        k(   32) = (  -0.0909091   0.8181818  -0.0909091), wk =   0.0360631
        k(   33) = (   0.8181818  -0.0909091   0.8181818), wk =   0.0360631
        k(   34) = (   0.7272727   0.0000000   0.7272727), wk =   0.0180316
        k(   35) = (   0.0000000   0.9090909   0.0000000), wk =   0.0090158
        k(   36) = (   0.9090909  -0.0000000   0.9090909), wk =   0.0180316
        k(   37) = (  -0.1818182   0.3636364   0.0000000), wk =   0.0360631
        k(   38) = (  -0.2727273   0.4545455  -0.0909091), wk =   0.0721262
        k(   39) = (  -0.3636364   0.5454545  -0.1818182), wk =   0.0721262
        k(   40) = (   0.5454545  -0.3636364   0.7272727), wk =   0.0721262
        k(   41) = (  -0.1818182   0.5454545   0.0000000), wk =   0.0360631
        k(   42) = (  -0.2727273   0.6363636  -0.0909091), wk =   0.0721262
        k(   43) = (   0.6363636  -0.2727273   0.8181818), wk =   0.0721262
        k(   44) = (   0.5454545  -0.1818182   0.7272727), wk =   0.0721262
        k(   45) = (   0.4545455  -0.0909091   0.6363636), wk =   0.0721262
        k(   46) = (   0.3636364   0.0000000   0.5454545), wk =   0.0360631
        k(   47) = (  -0.1818182   0.7272727   0.0000000), wk =   0.0360631
        k(   48) = (   0.7272727  -0.1818182   0.9090909), wk =   0.0721262
        k(   49) = (   0.6363636  -0.0909091   0.8181818), wk =   0.0721262
        k(   50) = (   0.5454545   0.0000000   0.7272727), wk =   0.0360631
        k(   51) = (   0.8181818  -0.0909091   1.0000000), wk =   0.0360631
        k(   52) = (   0.7272727   0.0000000   0.9090909), wk =   0.0360631
        k(   53) = (   0.6363636  -0.2727273   1.0000000), wk =   0.0360631
        k(   54) = (   0.5454545  -0.1818182   0.9090909), wk =   0.0721262
        k(   55) = (   0.6363636  -0.0909091   1.0000000), wk =   0.0360631
        k(   56) = (   0.5454545   0.0000000   0.9090909), wk =   0.0360631

     Dense  grid:     1243 G-vectors     FFT dimensions: (  15,  15,  15)

     Estimated max dynamical RAM per process >       2.12 MB

     Estimated total dynamical RAM >      10.60 MB

     Check: negative/imaginary core charge=   -0.000244    0.000000

     Initial potential from superposition of free atoms
     Check: negative starting charge=   -0.002907

     starting charge   17.99975, renormalised to   18.00000

     negative rho (up, down):  2.907E-03 0.000E+00
     Starting wfcs are   10 randomized atomic wfcs +    3 random wfcs

     total cpu time spent up to now is        0.9 secs

     Self-consistent Calculation

     iteration #  1     ecut=    25.00 Ry     beta= 0.70
     Davidson diagonalization with overlap
     ethr =  1.00E-02,  avg # of iterations =  3.9

     total cpu time spent up to now is        1.3 secs

     total energy              =    -324.32234063 Ry
     Harris-Foulkes estimate   =    -330.03117687 Ry
     estimated scf accuracy    <       7.11104930 Ry

     iteration #  2     ecut=    25.00 Ry     beta= 0.70
     Davidson diagonalization with overlap
     ethr =  1.00E-02,  avg # of iterations =  2.0

     total cpu time spent up to now is        1.6 secs

     total energy              =    -326.63976021 Ry
     Harris-Foulkes estimate   =    -331.17009404 Ry
     estimated scf accuracy    <       9.52792595 Ry

     iteration #  3     ecut=    25.00 Ry     beta= 0.70
     Davidson diagonalization with overlap
     ethr =  1.00E-02,  avg # of iterations =  2.0

     negative rho (up, down):  7.417E-04 0.000E+00

     total cpu time spent up to now is        1.9 secs

     total energy              =    -327.75850303 Ry
     Harris-Foulkes estimate   =    -327.85777504 Ry
     estimated scf accuracy    <       0.15087717 Ry

     iteration #  4     ecut=    25.00 Ry     beta= 0.70
     Davidson diagonalization with overlap
     ethr =  8.38E-04,  avg # of iterations =  2.1

     negative rho (up, down):  1.008E-04 0.000E+00

     total cpu time spent up to now is        2.1 secs

     total energy              =    -327.78731708 Ry
     Harris-Foulkes estimate   =    -327.87338128 Ry
     estimated scf accuracy    <       0.26811054 Ry

     iteration #  5     ecut=    25.00 Ry     beta= 0.70
     Davidson diagonalization with overlap
     ethr =  8.38E-04,  avg # of iterations =  1.4

     total cpu time spent up to now is        2.3 secs

     total energy              =    -327.80940347 Ry
     Harris-Foulkes estimate   =    -327.81317745 Ry
     estimated scf accuracy    <       0.01213734 Ry

     iteration #  6     ecut=    25.00 Ry     beta= 0.70
     Davidson diagonalization with overlap
     ethr =  6.74E-05,  avg # of iterations =  1.2

     total cpu time spent up to now is        2.6 secs

     total energy              =    -327.81042470 Ry
     Harris-Foulkes estimate   =    -327.81061787 Ry
     estimated scf accuracy    <       0.00052435 Ry

     iteration #  7     ecut=    25.00 Ry     beta= 0.70
     Davidson diagonalization with overlap
     ethr =  2.91E-06,  avg # of iterations =  1.4

     total cpu time spent up to now is        2.8 secs

     total energy              =    -327.81049766 Ry
     Harris-Foulkes estimate   =    -327.81049820 Ry
     estimated scf accuracy    <       0.00000261 Ry

     iteration #  8     ecut=    25.00 Ry     beta= 0.70
     Davidson diagonalization with overlap
     ethr =  1.45E-08,  avg # of iterations =  1.9

     total cpu time spent up to now is        3.0 secs

     total energy              =    -327.81049769 Ry
     Harris-Foulkes estimate   =    -327.81049790 Ry
     estimated scf accuracy    <       0.00000062 Ry

     iteration #  9     ecut=    25.00 Ry     beta= 0.70
     Davidson diagonalization with overlap
     ethr =  3.43E-09,  avg # of iterations =  1.1

     total cpu time spent up to now is        3.2 secs

     End of self-consistent calculation

          k = 0.0000 0.0000 0.0000 (   169 PWs)   bands (ev):

   -98.7499 -48.4271 -48.4271 -48.4271   9.9514  13.3490  13.3490  14.6089
    14.6089  14.6089  42.6607  46.1278  46.4805

          k =-0.0909 0.0909-0.0909 (   165 PWs)   bands (ev):

   -98.6307 -47.9773 -47.9773 -46.4124  10.2836  14.3380  14.3380  15.1253
    15.1253  16.3675  40.4438  43.9858  44.6844

          k =-0.1818 0.1818-0.1818 (   153 PWs)   bands (ev):

   -98.3626 -44.8667 -44.8667 -44.2713  11.3434  16.7352  17.3124  17.3124
    19.3221  19.3221  36.5049  43.2420  44.0816

          k =-0.2727 0.2727-0.2727 (   153 PWs)   bands (ev):

   -98.3508 -45.2439 -45.2439 -43.4704  12.7660  16.8641  16.8641  18.3393
    19.0325  19.0325  32.5486  42.4923  43.3214

          k =-0.3636 0.3636-0.3636 (   153 PWs)   bands (ev):

   -98.3329 -45.2258 -45.2258 -43.3261  14.5396  16.9306  16.9306  17.6910
    19.2781  19.2781  29.4570  41.7417  43.1829

          k =-0.4545 0.4545-0.4545 (   156 PWs)   bands (ev):

   -98.3648 -46.5856 -44.4610 -44.4610  12.8683  17.5695  17.5695  17.9718
    19.7646  19.7646  23.3707  41.2245  43.4365

          k = 0.0000 0.1818 0.0000 (   161 PWs)   bands (ev):

   -98.5348 -47.3853 -47.3853 -44.9161  10.4106  13.4635  15.9955  16.8184
    16.8614  16.8614  41.1524  42.9065  42.9065

          k =-0.0909 0.2727-0.0909 (   158 PWs)   bands (ev):

   -98.4691 -46.8400 -46.0836 -44.6691  11.1413  15.4145  15.7662  16.5545
    17.6093  18.2944  37.9194  41.5869  41.7468

          k =-0.1818 0.3636-0.1818 (   157 PWs)   bands (ev):

   -98.4335 -46.0730 -45.9704 -44.6208  12.3942  16.0328  16.2820  16.7934
    17.7552  18.4254  33.7404  40.6960  40.9102

          k =-0.2727 0.4545-0.2727 (   154 PWs)   bands (ev):

   -98.3486 -45.8623 -45.0749 -43.4527  14.0990  15.9886  17.0137  17.8903
    18.7073  19.5377  30.5087  40.2175  40.7078

          k =-0.3636 0.5455-0.3636 (   155 PWs)   bands (ev):

   -98.3443 -45.5203 -44.8314 -44.3768  13.7038  17.3436  17.5299  17.5711
    19.3929  19.9916  25.6176  39.4408  40.9095

          k = 0.5455-0.3636 0.5455 (   160 PWs)   bands (ev):

   -98.4451 -47.5444 -45.6887 -44.9421  12.9676  16.2283  16.9717  17.4063
    18.3263  19.0526  22.9936  38.6906  41.5780

          k = 0.4545-0.2727 0.4545 (   153 PWs)   bands (ev):

   -98.3119 -45.2043 -44.4828 -43.7636  14.9144  17.2559  17.3435  17.5342
    18.9036  20.2626  28.2137  38.5145  42.7436

          k = 0.3636-0.1818 0.3636 (   154 PWs)   bands (ev):

   -98.3549 -45.7117 -45.2699 -43.4795  13.5195  16.2647  17.0974  18.1208
    18.7609  18.8800  31.5543  38.3395  43.8774

          k = 0.2727-0.0909 0.2727 (   157 PWs)   bands (ev):

   -98.4429 -45.9240 -45.8727 -44.9529  11.9373  15.9712  16.0583  16.1648
    18.2952  18.6549  35.1152  38.8774  45.1342

          k = 0.1818-0.0000 0.1818 (   159 PWs)   bands (ev):

   -98.4934 -47.6824 -45.9515 -44.6822  10.8126  15.0650  15.3004  16.3995
    16.7243  18.8702  38.7962  40.4930  45.2707

          k = 0.0000 0.3636 0.0000 (   161 PWs)   bands (ev):

   -98.5241 -47.2059 -47.2059 -45.0786  11.5231  13.8001  15.6350  16.4623
    17.2131  17.2131  39.1480  39.9798  39.9798

          k =-0.0909 0.4545-0.0909 (   158 PWs)   bands (ev):

   -98.4394 -46.2842 -46.1093 -44.7472  12.6216  15.6400  15.9991  17.3609
    17.4896  17.9522  35.5559  38.6964  39.1601

          k =-0.1818 0.5455-0.1818 (   152 PWs)   bands (ev):

   -98.2860 -45.3968 -44.6101 -42.7288  14.1522  16.6136  17.1181  18.8773
    19.6819  19.8808  32.2988  37.8808  38.3759

          k =-0.2727 0.6364-0.2727 (   150 PWs)   bands (ev):

   -98.2227 -44.2553 -43.6504 -43.0127  15.3614  17.3741  18.2095  18.3976
    19.8102  22.2483  29.0687  36.6207  38.7462

          k = 0.6364-0.2727 0.6364 (   156 PWs)   bands (ev):

   -98.3356 -45.4712 -44.9258 -44.5714  14.4416  16.3144  17.3342  17.6675
    19.1063  21.8514  24.7690  35.3039  39.2655

          k = 0.5455-0.1818 0.5455 (   159 PWs)   bands (ev):

   -98.4134 -46.5100 -45.5415 -45.1856  13.9083  16.0989  17.0576  17.0995
    17.5744  19.3527  26.7552  34.2748  40.5651

          k = 0.4545-0.0909 0.4545 (   153 PWs)   bands (ev):

   -98.2994 -45.6711 -44.1755 -43.4879  14.3223  17.0001  17.0528  18.1586
    18.7775  20.1814  31.2460  34.5809  42.8396

          k = 0.3636 0.0000 0.3636 (   154 PWs)   bands (ev):

   -98.3497 -45.8373 -45.7513 -42.8818  13.0568  16.1316  16.1513  18.1181
    19.2465  19.4315  34.4023  35.0246  44.9282

          k = 0.0000 0.5455 0.0000 (   153 PWs)   bands (ev):

   -98.2998 -44.8600 -44.8600 -43.5204  13.5913  16.3796  18.4054  18.8201
    18.8201  19.0233  37.1438  37.1438  37.5285

          k =-0.0909 0.6364-0.0909 (   153 PWs)   bands (ev):

   -98.2749 -45.5396 -44.9137 -42.5916  14.5265  16.3578  16.4128  18.4280
    19.8425  20.8509  34.2051  35.6688  36.6590

          k =-0.1818 0.7273-0.1818 (   154 PWs)   bands (ev):

   -98.2824 -44.9647 -44.7346 -43.7745  14.2888  17.0505  17.4919  18.3998
    20.0333  20.2334  30.6640  33.2770  36.3924

          k = 0.7273-0.1818 0.7273 (   154 PWs)   bands (ev):

   -98.2741 -45.2225 -44.2232 -43.8535  15.1805  16.6342  18.0640  18.3823
    19.2169  22.5743  26.5619  32.1777  37.3646

          k = 0.6364-0.0909 0.6364 (   156 PWs)   bands (ev):

   -98.3133 -45.5037 -45.1180 -44.0413  15.0009  16.9119  17.1888  17.4734
    18.3918  22.4468  26.6724  31.3012  38.5548

          k = 0.5455 0.0000 0.5455 (   158 PWs)   bands (ev):

   -98.3823 -45.9673 -45.6527 -44.7967  13.2586  16.1145  17.1877  17.9193
    18.1821  19.0150  30.5446  30.8095  40.5662

          k = 0.0000 0.7273 0.0000 (   154 PWs)   bands (ev):

   -98.2790 -44.6789 -44.6789 -44.0456  15.2093  16.0691  18.1734  18.5936
    19.5853  19.5853  32.9583  35.3413  35.3413

          k =-0.0909 0.8182-0.0909 (   156 PWs)   bands (ev):

   -98.2985 -45.7990 -44.5606 -44.1804  14.3372  16.8588  17.7129  18.5720
    19.5254  20.0149  30.1434  32.5559  34.4832

          k = 0.8182-0.0909 0.8182 (   156 PWs)   bands (ev):

   -98.2839 -45.3721 -44.4926 -44.4912  15.6769  16.3999  17.2553  17.3539
    19.9469  22.4749  28.5994  29.5304  34.9879

          k = 0.7273 0.0000 0.7273 (   154 PWs)   bands (ev):

   -98.2324 -44.7952 -44.6215 -43.4079  16.8382  16.9698  17.2605  17.6645
    18.7886  25.3044  26.1256  29.9458  36.4740

          k = 0.0000 0.9091 0.0000 (   150 PWs)   bands (ev):

   -98.1738 -43.4733 -43.4733 -43.3550  15.8937  17.6526  19.6028  20.8976
    20.8976  21.1788  28.9402  33.8719  33.8719

          k = 0.9091-0.0000 0.9091 (   154 PWs)   bands (ev):

   -98.2474 -45.1566 -44.2459 -43.6582  16.0829  16.7653  17.3942  18.8907
    20.4922  21.8361  28.4966  31.6628  33.9767

          k =-0.1818 0.3636 0.0000 (   156 PWs)   bands (ev):

   -98.4102 -45.8188 -45.0710 -45.0315  12.0471  16.5105  16.6893  16.9692
    17.6154  18.7089  36.4475  37.5797  43.3659

          k =-0.2727 0.4545-0.0909 (   155 PWs)   bands (ev):

   -98.3664 -46.0786 -45.3967 -43.5372  13.3357  15.9590  16.4208  17.4552
    18.9271  19.4096  33.0517  36.4632  41.5798

          k =-0.3636 0.5455-0.1818 (   152 PWs)   bands (ev):

   -98.2799 -45.1274 -44.6188 -42.9084  14.7991  16.3138  17.6566  17.9812
    19.5231  21.0980  30.0308  36.3373  39.8910

          k = 0.5455-0.3636 0.7273 (   157 PWs)   bands (ev):

   -98.3670 -46.3796 -44.9512 -44.5157  13.9428  16.7260  17.1484  17.6468
    18.6365  19.9024  25.5707  36.4934  38.6304

          k =-0.1818 0.5455 0.0000 (   154 PWs)   bands (ev):

   -98.3240 -44.9515 -44.9124 -44.0485  13.9386  16.4003  17.3816  17.9195
    18.8731  19.4505  34.4116  35.3374  38.7305

          k =-0.2727 0.6364-0.0909 (   151 PWs)   bands (ev):

   -98.2451 -44.4221 -43.8422 -43.4302  14.8464  17.1795  17.8112  18.6667
    20.2123  20.7371  31.6555  34.7232  36.8473

          k = 0.6364-0.2727 0.8182 (   155 PWs)   bands (ev):

   -98.3006 -45.9510 -44.5086 -43.7293  14.2902  16.9860  17.7626  18.6575
    19.1102  20.2659  27.4243  33.9832  35.7811

          k = 0.5455-0.1818 0.7273 (   157 PWs)   bands (ev):

   -98.3386 -46.0970 -45.0100 -44.3538  14.6607  16.0340  16.8095  17.9355
    18.6294  22.4348  25.1559  33.1240  36.4782

          k = 0.4545-0.0909 0.6364 (   154 PWs)   bands (ev):

   -98.2904 -45.5957 -44.6205 -43.4061  14.3976  17.6182  17.7842  18.1631
    19.3528  19.6699  28.9915  32.9041  37.7615

          k = 0.3636 0.0000 0.5455 (   152 PWs)   bands (ev):

   -98.2747 -44.8158 -44.3314 -43.4174  14.3576  16.7261  17.7222  18.3457
    19.8247  20.0520  32.9364  33.0438  39.5284

          k =-0.1818 0.7273 0.0000 (   155 PWs)   bands (ev):

   -98.3018 -45.0837 -44.8096 -44.2518  13.9654  16.8606  17.7706  18.1794
    19.3533  20.1926  32.8367  32.8368  34.0626

          k = 0.7273-0.1818 0.9091 (   156 PWs)   bands (ev):

   -98.3090 -45.5090 -44.8768 -44.2955  14.9233  16.3029  17.5192  18.1264
    18.8270  21.4023  29.5284  31.2648  33.6876

          k = 0.6364-0.0909 0.8182 (   157 PWs)   bands (ev):

   -98.3266 -46.1041 -44.8795 -44.3537  15.4847  16.0981  16.6542  17.8266
    18.0796  23.8641  26.3441  30.3423  34.3031

          k = 0.5455 0.0000 0.7273 (   154 PWs)   bands (ev):

   -98.2708 -45.1495 -44.1445 -43.9745  15.1923  17.1404  17.2804  18.8372
    18.8905  22.6276  28.1618  30.2219  36.0214

          k = 0.8182-0.0909 1.0000 (   157 PWs)   bands (ev):

   -98.2995 -46.8936 -44.5015 -43.6907  15.3110  15.8836  16.1233  18.7835
    19.4366  21.8784  28.6421  31.8940  32.7762

          k = 0.7273 0.0000 0.9091 (   160 PWs)   bands (ev):

   -98.3753 -46.3297 -46.3038 -44.5965  14.2552  15.3988  16.1257  17.7369
    18.5680  22.9649  27.6650  29.1595  32.9997

          k = 0.6364-0.2727 1.0000 (   157 PWs)   bands (ev):

   -98.3470 -46.5863 -44.7048 -44.3257  14.0549  16.8980  17.1288  17.9340
    18.6656  19.7066  30.0302  31.4610  34.1679

          k = 0.5455-0.1818 0.9091 (   157 PWs)   bands (ev):

   -98.3370 -46.3478 -44.7088 -44.4570  14.7952  16.7277  16.9566  17.4911
    18.1581  22.5856  27.1990  31.4080  32.9276

          k = 0.6364-0.0909 1.0000 (   156 PWs)   bands (ev):

   -98.3089 -45.6051 -44.5611 -44.5189  15.3165  16.4075  16.6600  18.2781
    18.6995  23.6327  29.1816  29.7776  31.3586

          k = 0.5455 0.0000 0.9091 (   153 PWs)   bands (ev):

   -98.2496 -44.5483 -44.3678 -43.6390  16.5022  16.7630  16.8928  18.6919
    19.0457  26.7756  27.1123  29.4872  31.8744

     the Fermi energy is    19.4524 ev

!    total energy              =    -327.81049776 Ry
     Harris-Foulkes estimate   =    -327.81049777 Ry
     estimated scf accuracy    <          9.7E-09 Ry

     The total energy is the sum of the following terms:

     one-electron contribution =    -163.33136005 Ry
     hartree contribution      =      91.94280941 Ry
     xc contribution           =     -33.03803126 Ry
     ewald contribution        =    -223.38275373 Ry
     smearing contrib. (-TS)   =      -0.00116214 Ry

     convergence has been achieved in   9 iterations

     Forces acting on atoms (cartesian axes, Ry/au):

     atom    1 type  1   force =     0.00000000    0.00000000    0.00000000

     Total force =     0.000000     Total SCF correction =     0.000000


     Computing stress (Cartesian axis) and pressure

          total   stress  (Ry/bohr**3)                   (kbar)     P=********
  -0.53241638  -0.00000000  -0.00000000     -78321.14     -0.00     -0.00
   0.00000000  -0.53241638   0.00000000          0.00 -78321.14      0.00
  -0.00000000   0.00000000  -0.53241638         -0.00      0.00 -78321.14


     Writing output data file Ni.save/

     init_run     :      0.16s CPU      0.17s WALL (       1 calls)
     electrons    :      2.01s CPU      2.28s WALL (       1 calls)
     forces       :      0.03s CPU      0.03s WALL (       1 calls)
     stress       :      0.05s CPU      0.05s WALL (       1 calls)

     Called by init_run:
     wfcinit      :      0.07s CPU      0.08s WALL (       1 calls)
     potinit      :      0.00s CPU      0.00s WALL (       1 calls)
     hinit0       :      0.08s CPU      0.08s WALL (       1 calls)

     Called by electrons:
     c_bands      :      1.78s CPU      1.99s WALL (       9 calls)
     sum_band     :      0.20s CPU      0.26s WALL (       9 calls)
     v_of_rho     :      0.01s CPU      0.01s WALL (      10 calls)
     newd         :      0.01s CPU      0.01s WALL (      10 calls)
     mix_rho      :      0.00s CPU      0.00s WALL (       9 calls)

     Called by c_bands:
     init_us_2    :      0.03s CPU      0.03s WALL (    1176 calls)
     cegterg      :      1.71s CPU      1.92s WALL (     504 calls)

     Called by sum_band:
     sum_band:bec :      0.00s CPU      0.01s WALL (     504 calls)
     addusdens    :      0.01s CPU      0.01s WALL (       9 calls)

     Called by *egterg:
     h_psi        :      1.02s CPU      1.15s WALL (    1520 calls)
     s_psi        :      0.03s CPU      0.04s WALL (    1520 calls)
     g_psi        :      0.00s CPU      0.00s WALL (     960 calls)
     cdiaghg      :      0.48s CPU      0.53s WALL (    1464 calls)

     Called by h_psi:
     h_psi:pot    :      1.01s CPU      1.15s WALL (    1520 calls)
     h_psi:calbec :      0.06s CPU      0.07s WALL (    1520 calls)
     vloc_psi     :      0.91s CPU      1.03s WALL (    1520 calls)
     add_vuspsi   :      0.03s CPU      0.04s WALL (    1520 calls)

     General routines
     calbec       :      0.09s CPU      0.10s WALL (    2304 calls)
     fft          :      0.01s CPU      0.01s WALL (     136 calls)
     ffts         :      0.00s CPU      0.00s WALL (       9 calls)
     fftw         :      0.96s CPU      1.11s WALL (   38972 calls)

     Parallel routines
     fft_scatt_xy :      0.10s CPU      0.11s WALL (   39117 calls)
     fft_scatt_yz :      0.44s CPU      0.50s WALL (   39117 calls)

     PWSCF        :     3.03s CPU         3.39s WALL


   This run was terminated on:  22:28:10  26Mar2024            

=------------------------------------------------------------------------------=
   JOB DONE.
=------------------------------------------------------------------------------=
