
     Program PWSCF v.6.3MaX starts on 26Mar2024 at 22:55:14 

     This program is part of the open-source Quantum ESPRESSO suite
     for quantum simulation of materials; please cite
         "P. Giannozzi et al., J. Phys.:Condens. Matter 21 395502 (2009);
         "P. Giannozzi et al., J. Phys.:Condens. Matter 29 465901 (2017);
          URL http://www.quantum-espresso.org", 
     in publications or presentations arising from this work. More details at
     http://www.quantum-espresso.org/quote

     Parallel version (MPI), running on     5 processors

     MPI processes distributed on     1 nodes
     R & G space division:  proc/nbgrp/npool/nimage =       5
     Waiting for input...
     Reading input from standard input

     Current dimensions of program PWSCF are:
     Max number of different atomic species (ntypx) = 10
     Max number of k-points (npk) =  40000
     Max angular momentum in pseudopotentials (lmaxx) =  3

     Subspace diagonalization in iterative solution of the eigenvalue problem:
     a serial algorithm will be used


     Parallelization info
     --------------------
     sticks:   dense  smooth     PW     G-vecs:    dense   smooth      PW
     Min          99      99     30                 1423     1423     248
     Max         100     100     31                 1424     1424     251
     Sum         499     499    151                 7119     7119    1243



     bravais-lattice index     =            2
     lattice parameter (alat)  =       6.6500  a.u.
     unit-cell volume          =      73.5199 (a.u.)^3
     number of atoms/cell      =            1
     number of atomic types    =            1
     number of electrons       =        18.00
     number of Kohn-Sham states=           13
     kinetic-energy cutoff     =      80.0000  Ry
     charge density cutoff     =     320.0000  Ry
     convergence threshold     =      1.0E-08
     mixing beta               =       0.7000
     number of iterations used =            8  plain     mixing
     Exchange-correlation      = PBE ( 1  4  3  4 0 0)

     celldm(1)=   6.650000  celldm(2)=   0.000000  celldm(3)=   0.000000
     celldm(4)=   0.000000  celldm(5)=   0.000000  celldm(6)=   0.000000

     crystal axes: (cart. coord. in units of alat)
               a(1) = (  -0.500000   0.000000   0.500000 )  
               a(2) = (   0.000000   0.500000   0.500000 )  
               a(3) = (  -0.500000   0.500000   0.000000 )  

     reciprocal axes: (cart. coord. in units 2 pi/alat)
               b(1) = ( -1.000000 -1.000000  1.000000 )  
               b(2) = (  1.000000  1.000000  1.000000 )  
               b(3) = ( -1.000000  1.000000 -1.000000 )  


     PseudoPot. # 1 for Ni read from file:
     /home/lorenzo/pseudos/Ni/Ni.pbe-spn-rrkjus_psl.1.0.0.UPF
     MD5 check sum: 8b3fc9aac6dafe35f580d41bb18c3945
     Pseudo is Ultrasoft + core correction, Zval = 18.0
     Generated using "atomic" code by A. Dal Corso v.6.3
     Using radial grid of 1195 points,  6 beta functions with: 
                l(1) =   0
                l(2) =   0
                l(3) =   1
                l(4) =   1
                l(5) =   2
                l(6) =   2
     Q(r) pseudized with 0 coefficients 


     atomic species   valence    mass     pseudopotential
        Ni            18.00    58.69340     Ni( 1.00)

     48 Sym. Ops., with inversion, found



   Cartesian axes

     site n.     atom                  positions (alat units)
         1           Ni  tau(   1) = (   0.0000000   0.0000000   0.0000000  )

     number of k points=     3  gaussian smearing, width (Ry)=  0.0100
                       cart. coord. in units 2pi/alat
        k(    1) = (   0.0000000   0.0000000   0.0000000), wk =   0.2500000
        k(    2) = (   0.5000000  -0.5000000   0.5000000), wk =   1.0000000
        k(    3) = (   0.0000000  -1.0000000   0.0000000), wk =   0.7500000

     Dense  grid:     7119 G-vectors     FFT dimensions: (  27,  27,  27)

     Estimated max dynamical RAM per process >       6.97 MB

     Estimated total dynamical RAM >      34.83 MB

     Check: negative/imaginary core charge=   -0.000005    0.000000

     Initial potential from superposition of free atoms

     starting charge   17.99975, renormalised to   18.00000
     Starting wfcs are   10 randomized atomic wfcs +    3 random wfcs

     total cpu time spent up to now is        0.9 secs

     Self-consistent Calculation

     iteration #  1     ecut=    80.00 Ry     beta= 0.70
     Davidson diagonalization with overlap
     ethr =  1.00E-02,  avg # of iterations =  5.7

     Threshold (ethr) on eigenvalues was too large:
     Diagonalizing with lowered threshold

     Davidson diagonalization with overlap
     ethr =  4.71E-05,  avg # of iterations =  2.0

     total cpu time spent up to now is        1.0 secs

     total energy              =    -339.41159157 Ry
     Harris-Foulkes estimate   =    -339.41304421 Ry
     estimated scf accuracy    <       0.00843287 Ry

     iteration #  2     ecut=    80.00 Ry     beta= 0.70
     Davidson diagonalization with overlap
     ethr =  4.68E-05,  avg # of iterations =  1.0

     total cpu time spent up to now is        1.1 secs

     total energy              =    -339.41136468 Ry
     Harris-Foulkes estimate   =    -339.41181978 Ry
     estimated scf accuracy    <       0.00072127 Ry

     iteration #  3     ecut=    80.00 Ry     beta= 0.70
     Davidson diagonalization with overlap
     ethr =  4.01E-06,  avg # of iterations =  3.0

     total cpu time spent up to now is        1.2 secs

     total energy              =    -339.41136557 Ry
     Harris-Foulkes estimate   =    -339.41338668 Ry
     estimated scf accuracy    <       0.00841738 Ry

     iteration #  4     ecut=    80.00 Ry     beta= 0.70
     Davidson diagonalization with overlap
     ethr =  4.01E-06,  avg # of iterations =  2.7

     total cpu time spent up to now is        1.2 secs

     total energy              =    -339.41172442 Ry
     Harris-Foulkes estimate   =    -339.41183550 Ry
     estimated scf accuracy    <       0.00075631 Ry

     iteration #  5     ecut=    80.00 Ry     beta= 0.70
     Davidson diagonalization with overlap
     ethr =  4.01E-06,  avg # of iterations =  1.0

     total cpu time spent up to now is        1.3 secs

     total energy              =    -339.41177642 Ry
     Harris-Foulkes estimate   =    -339.41178112 Ry
     estimated scf accuracy    <       0.00001385 Ry

     iteration #  6     ecut=    80.00 Ry     beta= 0.70
     Davidson diagonalization with overlap
     ethr =  7.70E-08,  avg # of iterations =  2.3

     total cpu time spent up to now is        1.3 secs

     total energy              =    -339.41177231 Ry
     Harris-Foulkes estimate   =    -339.41178663 Ry
     estimated scf accuracy    <       0.00007681 Ry

     iteration #  7     ecut=    80.00 Ry     beta= 0.70
     Davidson diagonalization with overlap
     ethr =  7.70E-08,  avg # of iterations =  2.0

     total cpu time spent up to now is        1.4 secs

     total energy              =    -339.41177930 Ry
     Harris-Foulkes estimate   =    -339.41178385 Ry
     estimated scf accuracy    <       0.00003516 Ry

     iteration #  8     ecut=    80.00 Ry     beta= 0.70
     Davidson diagonalization with overlap
     ethr =  7.70E-08,  avg # of iterations =  1.0

     total cpu time spent up to now is        1.4 secs

     total energy              =    -339.41178191 Ry
     Harris-Foulkes estimate   =    -339.41178194 Ry
     estimated scf accuracy    <       0.00000107 Ry

     iteration #  9     ecut=    80.00 Ry     beta= 0.70
     Davidson diagonalization with overlap
     ethr =  5.92E-09,  avg # of iterations =  1.3

     total cpu time spent up to now is        1.5 secs

     total energy              =    -339.41178190 Ry
     Harris-Foulkes estimate   =    -339.41178193 Ry
     estimated scf accuracy    <       0.00000069 Ry

     iteration # 10     ecut=    80.00 Ry     beta= 0.70
     Davidson diagonalization with overlap
     ethr =  3.83E-09,  avg # of iterations =  1.0

     total cpu time spent up to now is        1.5 secs

     total energy              =    -339.41178193 Ry
     Harris-Foulkes estimate   =    -339.41178190 Ry
     estimated scf accuracy    <       0.00000027 Ry

     iteration # 11     ecut=    80.00 Ry     beta= 0.70
     Davidson diagonalization with overlap
     ethr =  1.52E-09,  avg # of iterations =  1.0

     total cpu time spent up to now is        1.6 secs

     total energy              =    -339.41178184 Ry
     Harris-Foulkes estimate   =    -339.41178194 Ry
     estimated scf accuracy    <       0.00000083 Ry

     iteration # 12     ecut=    80.00 Ry     beta= 0.70
     Davidson diagonalization with overlap
     ethr =  1.52E-09,  avg # of iterations =  1.0

     total cpu time spent up to now is        1.6 secs

     End of self-consistent calculation

          k = 0.0000 0.0000 0.0000 (   893 PWs)   bands (ev):

   -85.5204 -45.7749 -45.7749 -45.7749   8.8011  15.7015  15.7015  15.7015
    16.8525  16.8525  41.4272  45.4459  45.4459

          k = 0.5000-0.5000 0.5000 (   886 PWs)   bands (ev):

   -85.4867 -45.9935 -45.8063 -45.8063  13.1592  15.6892  15.6892  17.5384
    17.5584  17.5584  23.6572  40.0038  42.5220

          k = 0.0000-1.0000 0.0000 (   894 PWs)   bands (ev):

   -85.4756 -45.9827 -45.8569 -45.8569  13.3607  13.8768  17.5765  17.7176
    17.7176  20.2521  27.1762  32.6649  32.6649

     the Fermi energy is    17.6889 ev

!    total energy              =    -339.41178189 Ry
     Harris-Foulkes estimate   =    -339.41178189 Ry
     estimated scf accuracy    <          3.6E-09 Ry

     The total energy is the sum of the following terms:

     one-electron contribution =    -186.24611723 Ry
     hartree contribution      =     104.53744559 Ry
     xc contribution           =     -34.31216519 Ry
     ewald contribution        =    -223.38275369 Ry
     smearing contrib. (-TS)   =      -0.00819136 Ry

     convergence has been achieved in  12 iterations

     Forces acting on atoms (cartesian axes, Ry/au):

     atom    1 type  1   force =     0.00000000    0.00000000    0.00000000

     Total force =     0.000000     Total SCF correction =     0.000000


     Computing stress (Cartesian axis) and pressure

          total   stress  (Ry/bohr**3)                   (kbar)     P=  281.79
   0.00191559   0.00000000   0.00000000        281.79      0.00      0.00
   0.00000000   0.00191559  -0.00000000          0.00    281.79     -0.00
   0.00000000  -0.00000000   0.00191559          0.00     -0.00    281.79


     Writing output data file Ni.save/

     init_run     :      0.19s CPU      0.20s WALL (       1 calls)
     electrons    :      0.66s CPU      0.70s WALL (       1 calls)
     forces       :      0.02s CPU      0.02s WALL (       1 calls)
     stress       :      0.07s CPU      0.07s WALL (       1 calls)

     Called by init_run:
     wfcinit      :      0.02s CPU      0.02s WALL (       1 calls)
     potinit      :      0.01s CPU      0.01s WALL (       1 calls)
     hinit0       :      0.16s CPU      0.16s WALL (       1 calls)

     Called by electrons:
     c_bands      :      0.35s CPU      0.37s WALL (      13 calls)
     sum_band     :      0.17s CPU      0.18s WALL (      13 calls)
     v_of_rho     :      0.05s CPU      0.05s WALL (      13 calls)
     newd         :      0.09s CPU      0.10s WALL (      13 calls)
     mix_rho      :      0.01s CPU      0.01s WALL (      13 calls)

     Called by c_bands:
     init_us_2    :      0.01s CPU      0.01s WALL (      87 calls)
     cegterg      :      0.33s CPU      0.35s WALL (      39 calls)

     Called by sum_band:
     sum_band:bec :      0.00s CPU      0.00s WALL (      39 calls)
     addusdens    :      0.09s CPU      0.09s WALL (      13 calls)

     Called by *egterg:
     h_psi        :      0.26s CPU      0.27s WALL (     117 calls)
     s_psi        :      0.01s CPU      0.01s WALL (     117 calls)
     g_psi        :      0.00s CPU      0.00s WALL (      75 calls)
     cdiaghg      :      0.04s CPU      0.04s WALL (     111 calls)

     Called by h_psi:
     h_psi:pot    :      0.26s CPU      0.27s WALL (     117 calls)
     h_psi:calbec :      0.01s CPU      0.01s WALL (     117 calls)
     vloc_psi     :      0.24s CPU      0.25s WALL (     117 calls)
     add_vuspsi   :      0.01s CPU      0.01s WALL (     117 calls)

     General routines
     calbec       :      0.02s CPU      0.02s WALL (     171 calls)
     fft          :      0.03s CPU      0.04s WALL (     170 calls)
     ffts         :      0.00s CPU      0.00s WALL (      13 calls)
     fftw         :      0.27s CPU      0.29s WALL (    2847 calls)

     Parallel routines
     fft_scatt_xy :      0.03s CPU      0.03s WALL (    3030 calls)
     fft_scatt_yz :      0.08s CPU      0.08s WALL (    3030 calls)

     PWSCF        :     1.67s CPU         1.75s WALL


   This run was terminated on:  22:55:16  26Mar2024            

=------------------------------------------------------------------------------=
   JOB DONE.
=------------------------------------------------------------------------------=
