
     Program PWSCF v.6.3MaX starts on 26Mar2024 at 22:27:44 

     This program is part of the open-source Quantum ESPRESSO suite
     for quantum simulation of materials; please cite
         "P. Giannozzi et al., J. Phys.:Condens. Matter 21 395502 (2009);
         "P. Giannozzi et al., J. Phys.:Condens. Matter 29 465901 (2017);
          URL http://www.quantum-espresso.org", 
     in publications or presentations arising from this work. More details at
     http://www.quantum-espresso.org/quote

     Parallel version (MPI), running on     5 processors

     MPI processes distributed on     1 nodes
     R & G space division:  proc/nbgrp/npool/nimage =       5
     Waiting for input...
     Reading input from standard input

     Current dimensions of program PWSCF are:
     Max number of different atomic species (ntypx) = 10
     Max number of k-points (npk) =  40000
     Max angular momentum in pseudopotentials (lmaxx) =  3
               file Ni.pbe-spn-kjpaw_psl.1.0.0.UPF: wavefunction(s)  3P 3D renormalized

     Subspace diagonalization in iterative solution of the eigenvalue problem:
     a serial algorithm will be used


     Parallelization info
     --------------------
     sticks:   dense  smooth     PW     G-vecs:    dense   smooth      PW
     Min          30      30     12                  248      248      61
     Max          31      31     13                  250      250      62
     Sum         151     151     61                 1243     1243     307



     bravais-lattice index     =            2
     lattice parameter (alat)  =       6.6500  a.u.
     unit-cell volume          =      73.5199 (a.u.)^3
     number of atoms/cell      =            1
     number of atomic types    =            1
     number of electrons       =        18.00
     number of Kohn-Sham states=           13
     kinetic-energy cutoff     =      25.0000  Ry
     charge density cutoff     =     100.0000  Ry
     convergence threshold     =      1.0E-08
     mixing beta               =       0.7000
     number of iterations used =            8  plain     mixing
     Exchange-correlation      = SLA PW PBX PBC ( 1  4  3  4 0 0)

     celldm(1)=   6.650000  celldm(2)=   0.000000  celldm(3)=   0.000000
     celldm(4)=   0.000000  celldm(5)=   0.000000  celldm(6)=   0.000000

     crystal axes: (cart. coord. in units of alat)
               a(1) = (  -0.500000   0.000000   0.500000 )  
               a(2) = (   0.000000   0.500000   0.500000 )  
               a(3) = (  -0.500000   0.500000   0.000000 )  

     reciprocal axes: (cart. coord. in units 2 pi/alat)
               b(1) = ( -1.000000 -1.000000  1.000000 )  
               b(2) = (  1.000000  1.000000  1.000000 )  
               b(3) = ( -1.000000  1.000000 -1.000000 )  


     PseudoPot. # 1 for Ni read from file:
     /home/lorenzo/pseudos/Ni/Ni.pbe-spn-kjpaw_psl.1.0.0.UPF
     MD5 check sum: 6e86b733589c3ad8389697b807d86aa7
     Pseudo is Projector augmented-wave + core cor, Zval = 18.0
     Generated using "atomic" code by A. Dal Corso v.6.3
     Shape of augmentation charge: PSQ
     Using radial grid of 1195 points,  6 beta functions with: 
                l(1) =   0
                l(2) =   0
                l(3) =   1
                l(4) =   1
                l(5) =   2
                l(6) =   2
     Q(r) pseudized with 0 coefficients 


     atomic species   valence    mass     pseudopotential
        Ni            18.00    58.69340     Ni( 1.00)

     48 Sym. Ops., with inversion, found



   Cartesian axes

     site n.     atom                  positions (alat units)
         1           Ni  tau(   1) = (   0.0000000   0.0000000   0.0000000  )

     number of k points=    47  gaussian smearing, width (Ry)=  0.0100
                       cart. coord. in units 2pi/alat
        k(    1) = (   0.0000000   0.0000000   0.0000000), wk =   0.0020000
        k(    2) = (  -0.1000000   0.1000000  -0.1000000), wk =   0.0160000
        k(    3) = (  -0.2000000   0.2000000  -0.2000000), wk =   0.0160000
        k(    4) = (  -0.3000000   0.3000000  -0.3000000), wk =   0.0160000
        k(    5) = (  -0.4000000   0.4000000  -0.4000000), wk =   0.0160000
        k(    6) = (   0.5000000  -0.5000000   0.5000000), wk =   0.0080000
        k(    7) = (   0.0000000   0.2000000   0.0000000), wk =   0.0120000
        k(    8) = (  -0.1000000   0.3000000  -0.1000000), wk =   0.0480000
        k(    9) = (  -0.2000000   0.4000000  -0.2000000), wk =   0.0480000
        k(   10) = (  -0.3000000   0.5000000  -0.3000000), wk =   0.0480000
        k(   11) = (   0.6000000  -0.4000000   0.6000000), wk =   0.0480000
        k(   12) = (   0.5000000  -0.3000000   0.5000000), wk =   0.0480000
        k(   13) = (   0.4000000  -0.2000000   0.4000000), wk =   0.0480000
        k(   14) = (   0.3000000  -0.1000000   0.3000000), wk =   0.0480000
        k(   15) = (   0.2000000   0.0000000   0.2000000), wk =   0.0240000
        k(   16) = (   0.0000000   0.4000000   0.0000000), wk =   0.0120000
        k(   17) = (  -0.1000000   0.5000000  -0.1000000), wk =   0.0480000
        k(   18) = (  -0.2000000   0.6000000  -0.2000000), wk =   0.0480000
        k(   19) = (   0.7000000  -0.3000000   0.7000000), wk =   0.0480000
        k(   20) = (   0.6000000  -0.2000000   0.6000000), wk =   0.0480000
        k(   21) = (   0.5000000  -0.1000000   0.5000000), wk =   0.0480000
        k(   22) = (   0.4000000   0.0000000   0.4000000), wk =   0.0240000
        k(   23) = (   0.0000000   0.6000000   0.0000000), wk =   0.0120000
        k(   24) = (  -0.1000000   0.7000000  -0.1000000), wk =   0.0480000
        k(   25) = (   0.8000000  -0.2000000   0.8000000), wk =   0.0480000
        k(   26) = (   0.7000000  -0.1000000   0.7000000), wk =   0.0480000
        k(   27) = (   0.6000000  -0.0000000   0.6000000), wk =   0.0240000
        k(   28) = (   0.0000000   0.8000000   0.0000000), wk =   0.0120000
        k(   29) = (   0.9000000  -0.1000000   0.9000000), wk =   0.0480000
        k(   30) = (   0.8000000   0.0000000   0.8000000), wk =   0.0240000
        k(   31) = (   0.0000000  -1.0000000   0.0000000), wk =   0.0060000
        k(   32) = (  -0.2000000   0.4000000   0.0000000), wk =   0.0480000
        k(   33) = (  -0.3000000   0.5000000  -0.1000000), wk =   0.0960000
        k(   34) = (   0.6000000  -0.4000000   0.8000000), wk =   0.0960000
        k(   35) = (   0.5000000  -0.3000000   0.7000000), wk =   0.0480000
        k(   36) = (  -0.2000000   0.6000000   0.0000000), wk =   0.0480000
        k(   37) = (   0.7000000  -0.3000000   0.9000000), wk =   0.0960000
        k(   38) = (   0.6000000  -0.2000000   0.8000000), wk =   0.0960000
        k(   39) = (   0.5000000  -0.1000000   0.7000000), wk =   0.0960000
        k(   40) = (   0.4000000   0.0000000   0.6000000), wk =   0.0480000
        k(   41) = (   0.8000000  -0.2000000   1.0000000), wk =   0.0480000
        k(   42) = (   0.7000000  -0.1000000   0.9000000), wk =   0.0960000
        k(   43) = (   0.6000000   0.0000000   0.8000000), wk =   0.0480000
        k(   44) = (  -0.2000000  -1.0000000   0.0000000), wk =   0.0240000
        k(   45) = (   0.6000000  -0.2000000   1.0000000), wk =   0.0480000
        k(   46) = (   0.5000000  -0.1000000   0.9000000), wk =   0.0480000
        k(   47) = (  -0.4000000  -1.0000000   0.0000000), wk =   0.0240000

     Dense  grid:     1243 G-vectors     FFT dimensions: (  15,  15,  15)

     Estimated max dynamical RAM per process >       2.06 MB

     Estimated total dynamical RAM >      10.32 MB

     Check: negative/imaginary core charge=   -0.000244    0.000000

     Initial potential from superposition of free atoms
     Check: negative starting charge=   -0.002907

     starting charge   17.99975, renormalised to   18.00000

     negative rho (up, down):  2.907E-03 0.000E+00
     Starting wfcs are   10 randomized atomic wfcs +    3 random wfcs
     Checking if some PAW data can be deallocated... 

     total cpu time spent up to now is        1.1 secs

     Self-consistent Calculation

     iteration #  1     ecut=    25.00 Ry     beta= 0.70
     Davidson diagonalization with overlap
     ethr =  1.00E-02,  avg # of iterations =  4.0

     total cpu time spent up to now is        1.6 secs

     total energy              =    -413.50634585 Ry
     Harris-Foulkes estimate   =    -419.56077596 Ry
     estimated scf accuracy    <       7.15336170 Ry

     iteration #  2     ecut=    25.00 Ry     beta= 0.70
     Davidson diagonalization with overlap
     ethr =  1.00E-02,  avg # of iterations =  2.0

     total cpu time spent up to now is        1.9 secs

     total energy              =    -416.03008709 Ry
     Harris-Foulkes estimate   =    -420.91043457 Ry
     estimated scf accuracy    <      10.08097589 Ry

     iteration #  3     ecut=    25.00 Ry     beta= 0.70
     Davidson diagonalization with overlap
     ethr =  1.00E-02,  avg # of iterations =  2.0

     negative rho (up, down):  9.041E-04 0.000E+00

     total cpu time spent up to now is        2.2 secs

     total energy              =    -417.16804957 Ry
     Harris-Foulkes estimate   =    -417.28817065 Ry
     estimated scf accuracy    <       0.17961457 Ry

     iteration #  4     ecut=    25.00 Ry     beta= 0.70
     Davidson diagonalization with overlap
     ethr =  9.98E-04,  avg # of iterations =  2.0

     negative rho (up, down):  2.327E-04 0.000E+00

     total cpu time spent up to now is        2.5 secs

     total energy              =    -417.21453335 Ry
     Harris-Foulkes estimate   =    -417.32265210 Ry
     estimated scf accuracy    <       0.36169159 Ry

     iteration #  5     ecut=    25.00 Ry     beta= 0.70
     Davidson diagonalization with overlap
     ethr =  9.98E-04,  avg # of iterations =  1.5

     negative rho (up, down):  9.572E-06 0.000E+00

     total cpu time spent up to now is        2.8 secs

     total energy              =    -417.23579554 Ry
     Harris-Foulkes estimate   =    -417.24520520 Ry
     estimated scf accuracy    <       0.02625030 Ry

     iteration #  6     ecut=    25.00 Ry     beta= 0.70
     Davidson diagonalization with overlap
     ethr =  1.46E-04,  avg # of iterations =  1.2

     total cpu time spent up to now is        3.0 secs

     total energy              =    -417.23930497 Ry
     Harris-Foulkes estimate   =    -417.23932334 Ry
     estimated scf accuracy    <       0.00017943 Ry

     iteration #  7     ecut=    25.00 Ry     beta= 0.70
     Davidson diagonalization with overlap
     ethr =  9.97E-07,  avg # of iterations =  1.2

     total cpu time spent up to now is        3.3 secs

     total energy              =    -417.23926785 Ry
     Harris-Foulkes estimate   =    -417.23930933 Ry
     estimated scf accuracy    <       0.00010476 Ry

     iteration #  8     ecut=    25.00 Ry     beta= 0.70
     Davidson diagonalization with overlap
     ethr =  5.82E-07,  avg # of iterations =  1.6

     total cpu time spent up to now is        3.5 secs

     total energy              =    -417.23928619 Ry
     Harris-Foulkes estimate   =    -417.23928633 Ry
     estimated scf accuracy    <       0.00000036 Ry

     iteration #  9     ecut=    25.00 Ry     beta= 0.70
     Davidson diagonalization with overlap
     ethr =  2.02E-09,  avg # of iterations =  2.0

     total cpu time spent up to now is        3.8 secs

     total energy              =    -417.23928623 Ry
     Harris-Foulkes estimate   =    -417.23928625 Ry
     estimated scf accuracy    <       0.00000004 Ry

     iteration # 10     ecut=    25.00 Ry     beta= 0.70
     Davidson diagonalization with overlap
     ethr =  2.14E-10,  avg # of iterations =  1.0

     total cpu time spent up to now is        4.1 secs

     End of self-consistent calculation

          k = 0.0000 0.0000 0.0000 (   169 PWs)   bands (ev):

   -99.4643 -49.0597 -49.0597 -49.0597   9.9130  13.2645  13.2645  14.5925
    14.5925  14.5925  42.6328  46.1616  46.1616

          k =-0.1000 0.1000-0.1000 (   159 PWs)   bands (ev):

   -99.1955 -47.2150 -47.2150 -45.6488  10.3832  15.3239  15.3239  16.3998
    17.8062  17.8062  40.1302  43.9155  44.8737

          k =-0.2000 0.2000-0.2000 (   153 PWs)   bands (ev):

   -99.0706 -45.5183 -45.5183 -44.8189  11.5557  16.7532  17.3722  17.3722
    19.4495  19.4495  35.6849  43.0845  44.0270

          k =-0.3000 0.3000-0.3000 (   153 PWs)   bands (ev):

   -99.0575 -45.8832 -45.8832 -44.0486  13.2552  16.9353  16.9353  18.2860
    19.1409  19.1409  31.4728  42.2335  43.3282

          k =-0.4000 0.4000-0.4000 (   153 PWs)   bands (ev):

   -99.0217 -45.7797 -45.7797 -43.8297  15.2977  17.0229  17.0229  17.5904
    19.5251  19.5251  28.4150  41.4955  43.3273

          k = 0.5000-0.5000 0.5000 (   156 PWs)   bands (ev):

   -99.0770 -47.2236 -45.1057 -45.1057  12.8495  17.6431  17.6431  18.3663
    19.8123  19.8123  22.7539  41.1487  43.5583

          k = 0.0000 0.2000 0.0000 (   161 PWs)   bands (ev):

   -99.2469 -48.0099 -48.0099 -45.5590  10.4528  13.4030  16.0010  16.7817
    16.9361  16.9361  40.9925  42.6827  42.6827

          k =-0.1000 0.3000-0.1000 (   158 PWs)   bands (ev):

   -99.1766 -47.4528 -46.7034 -45.2745  11.3252  15.3856  15.8092  16.6148
    17.5807  18.4686  37.2887  41.2633  41.4620

          k =-0.2000 0.4000-0.2000 (   153 PWs)   bands (ev):

   -99.0453 -46.2494 -45.6412 -43.7632  12.8880  16.2953  17.0157  18.7512
    19.0452  19.5600  33.1477  40.6330  40.6900

          k =-0.3000 0.5000-0.3000 (   151 PWs)   bands (ev):

   -98.9781 -45.3607 -45.2901 -43.2825  14.9353  16.9409  17.9130  17.9613
    20.2897  20.5296  29.5002  39.7385  40.5512

          k = 0.6000-0.4000 0.6000 (   156 PWs)   bands (ev):

   -99.0654 -46.7160 -45.4766 -45.0126  13.3854  17.4814  17.6066  17.6578
    19.7790  20.0514  23.8903  38.8138  41.0358

          k = 0.5000-0.3000 0.5000 (   156 PWs)   bands (ev):

   -99.0713 -46.1669 -46.0252 -45.0576  14.2773  17.1721  17.3490  17.6276
    17.6636  20.1772  26.0085  38.1622  42.3846

          k = 0.4000-0.2000 0.4000 (   152 PWs)   bands (ev):

   -99.0091 -45.7847 -45.7170 -43.3074  14.1800  16.5799  17.4013  18.1267
    19.2147  20.9469  30.5192  37.9029  43.5229

          k = 0.3000-0.1000 0.3000 (   155 PWs)   bands (ev):

   -99.0957 -46.4538 -46.4537 -44.2533  12.2763  16.0144  16.1967  17.9490
    18.5728  19.2118  34.4144  38.3528  45.0309

          k = 0.2000 0.0000 0.2000 (   159 PWs)   bands (ev):

   -99.2032 -48.2778 -46.6086 -45.2934  10.9346  15.0138  15.3431  16.4180
    16.8355  18.8880  38.3067  39.9416  45.4356

          k = 0.0000 0.4000 0.0000 (   161 PWs)   bands (ev):

   -99.2259 -47.7579 -47.7579 -45.7136  11.7924  13.8086  15.6173  16.4312
    17.3781  17.3781  38.9037  39.4896  39.4896

          k =-0.1000 0.5000-0.1000 (   156 PWs)   bands (ev):

   -99.0896 -46.6127 -46.5032 -44.3608  13.0956  15.7981  16.1115  17.9995
    18.3817  19.1582  34.8216  38.2263  38.4280

          k =-0.2000 0.6000-0.2000 (   154 PWs)   bands (ev):

   -99.0254 -46.0423 -45.2229 -44.5131  14.3751  16.6814  17.1917  18.6726
    18.8142  19.5991  30.9293  36.6602  37.8972

          k = 0.7000-0.3000 0.7000 (   157 PWs)   bands (ev):

   -99.0657 -46.9067 -45.4657 -45.1665  14.0845  16.4455  17.7983  17.8364
    18.8074  19.6863  25.9539  35.2089  38.4305

          k = 0.6000-0.2000 0.6000 (   161 PWs)   bands (ev):

   -99.1463 -48.3012 -46.1519 -45.8215  13.5901  15.4330  16.7605  16.9311
    17.6955  20.3028  24.4671  33.7679  39.5305

          k = 0.5000-0.1000 0.5000 (   155 PWs)   bands (ev):

   -99.0386 -45.9110 -45.7911 -44.6538  14.6881  17.2209  17.7505  17.9765
    18.2654  18.8301  29.6211  33.5732  41.5953

          k = 0.4000 0.0000 0.4000 (   154 PWs)   bands (ev):

   -99.0483 -46.4183 -46.2590 -43.5148  13.6101  16.0874  16.3140  18.1444
    19.3171  19.7287  33.5701  34.1261  44.2665

          k = 0.0000 0.6000 0.0000 (   153 PWs)   bands (ev):

   -98.9994 -45.4531 -45.4531 -44.0889  14.2321  16.3856  18.4657  18.9909
    19.0779  19.0779  36.2963  36.5367  36.5367

          k =-0.1000 0.7000-0.1000 (   155 PWs)   bands (ev):

   -99.0095 -45.7555 -45.7084 -44.5299  14.9246  16.5262  17.0591  18.3787
    19.3623  19.5480  32.9016  34.0263  35.7563

          k = 0.8000-0.2000 0.8000 (   158 PWs)   bands (ev):

   -99.0582 -46.5321 -45.8043 -45.5581  13.8103  16.2649  16.8486  17.8791
    19.7440  20.1164  28.8103  31.6069  35.8237

          k = 0.7000-0.1000 0.7000 (   154 PWs)   bands (ev):

   -98.9682 -45.8977 -44.7534 -44.3069  15.4660  16.7145  18.0155  18.6561
    19.0969  23.9305  25.7991  30.8888  37.4659

          k = 0.6000-0.0000 0.6000 (   162 PWs)   bands (ev):

   -99.1606 -47.0468 -46.8775 -46.8357  13.0140  15.2769  15.8228  17.1914
    17.7445  20.1485  28.3840  29.8314  39.1286

          k = 0.0000 0.8000 0.0000 (   162 PWs)   bands (ev):

   -99.1418 -48.0123 -46.2778 -46.2778  14.0741  15.8476  16.3393  16.3393
    18.0241  18.5984  29.8838  34.2822  34.2822

          k = 0.9000-0.1000 0.9000 (   154 PWs)   bands (ev):

   -98.9518 -46.3257 -44.3108 -44.2363  15.1046  16.9302  18.5958  19.0140
    20.3678  21.5017  28.4613  31.9585  34.1798

          k = 0.8000 0.0000 0.8000 (   156 PWs)   bands (ev):

   -98.9809 -46.3324 -45.2481 -44.5941  15.5897  16.9042  17.2333  17.6242
    19.7527  22.9135  27.6726  29.1019  35.0530

          k = 0.0000-1.0000 0.0000 (   150 PWs)   bands (ev):

   -98.8857 -44.1203 -44.1203 -43.9847  16.1651  17.8556  19.6343  20.9545
    20.9545  21.3610  28.3449  33.7496  33.7496

          k =-0.2000 0.4000 0.0000 (   154 PWs)   bands (ev):

   -99.0657 -46.2073 -45.6538 -44.4507  12.4121  16.6858  16.6861  18.1450
    18.5701  19.4070  35.9028  36.8271  42.6656

          k =-0.3000 0.5000-0.1000 (   153 PWs)   bands (ev):

   -99.0164 -46.3600 -45.7718 -43.2057  13.9434  16.1323  16.7694  18.6557
    19.2255  20.4254  32.3348  35.8189  40.6580

          k = 0.6000-0.4000 0.8000 (   157 PWs)   bands (ev):

   -99.0866 -46.3271 -46.0420 -45.4582  13.9603  16.0783  17.3879  17.4779
    18.5921  19.4741  27.6427  35.6564  38.5606

          k = 0.5000-0.3000 0.7000 (   158 PWs)   bands (ev):

   -99.0851 -47.4851 -45.6041 -45.1791  13.6436  16.4790  17.3182  17.4195
    18.9179  21.0059  23.6259  36.1432  37.8086

          k =-0.2000 0.6000 0.0000 (   150 PWs)   bands (ev):

   -98.9322 -45.1439 -44.4885 -43.1503  14.6982  17.1269  18.3823  19.2951
    19.5936  21.5836  33.8121  34.6845  37.6044

          k = 0.7000-0.3000 0.9000 (   153 PWs)   bands (ev):

   -98.9782 -45.5410 -44.8336 -44.3617  15.1169  17.1200  17.5802  19.0275
    19.2228  20.6357  30.3806  33.8496  35.3467

          k = 0.6000-0.2000 0.8000 (   153 PWs)   bands (ev):

   -98.9526 -45.8367 -44.9815 -43.6215  15.4583  16.8550  17.7635  18.5882
    20.2266  22.7403  26.5969  32.7659  35.2930

          k = 0.5000-0.1000 0.7000 (   156 PWs)   bands (ev):

   -99.0284 -46.4625 -45.3630 -44.8545  14.5774  16.9906  17.5191  17.9652
    18.4460  21.2077  27.3979  31.8830  36.3839

          k = 0.4000 0.0000 0.6000 (   156 PWs)   bands (ev):

   -99.0548 -45.8095 -45.7167 -45.4509  14.3313  16.6036  17.2719  17.9210
    18.7429  18.8665  31.4382  31.7916  38.1862

          k = 0.8000-0.2000 1.0000 (   154 PWs)   bands (ev):

   -98.9729 -45.9142 -44.7851 -44.4124  14.6919  17.1879  17.7938  19.3420
    19.5992  20.7838  31.1870  32.1633  33.3603

          k = 0.7000-0.1000 0.9000 (   156 PWs)   bands (ev):

   -99.0059 -46.5969 -44.9797 -44.7698  15.6082  16.2722  16.7355  18.4797
    19.0123  22.9597  28.5120  29.9678  33.1614

          k = 0.6000 0.0000 0.8000 (   153 PWs)   bands (ev):

   -98.9504 -45.1798 -44.7154 -44.3678  16.2882  17.0763  17.4394  18.2913
    19.1593  25.5408  27.3441  29.5661  34.3822

          k =-0.2000-1.0000 0.0000 (   152 PWs)   bands (ev):

   -98.9030 -44.8386 -44.3718 -44.1379  16.6569  17.1267  17.4341  20.2022
    21.0792  22.2793  28.7211  31.5890  32.5819

          k = 0.6000-0.2000 1.0000 (   156 PWs)   bands (ev):

   -99.0319 -46.6492 -45.1992 -44.8775  14.8829  16.9386  16.9806  17.9446
    18.9041  21.6982  29.1508  30.7446  32.7959

          k = 0.5000-0.1000 0.9000 (   154 PWs)   bands (ev):

   -98.9801 -45.5184 -44.9436 -44.6928  16.8178  16.8388  17.4316  17.6992
    18.0127  26.1555  26.6247  30.6548  31.8901

          k =-0.4000-1.0000 0.0000 (   156 PWs)   bands (ev):

   -99.0222 -45.8708 -45.4570 -45.1582  16.1433  16.4665  17.0302  17.3068
    17.9868  26.1749  28.1290  28.8049  30.8001

     the Fermi energy is    19.4942 ev

!    total energy              =    -417.23928622 Ry
     Harris-Foulkes estimate   =    -417.23928623 Ry
     estimated scf accuracy    <          2.1E-09 Ry

     total all-electron energy =     -3029.671394 Ry

     The total energy is the sum of the following terms:

     one-electron contribution =    -162.49473032 Ry
     hartree contribution      =      92.27087152 Ry
     xc contribution           =     -33.09467981 Ry
     ewald contribution        =    -223.38275373 Ry
     one-center paw contrib.   =     -90.53684926 Ry
     smearing contrib. (-TS)   =      -0.00114462 Ry

     convergence has been achieved in  10 iterations

     Forces acting on atoms (cartesian axes, Ry/au):

     atom    1 type  1   force =     0.00000000    0.00000000    0.00000000

     Total force =     0.000000     Total SCF correction =     0.000000


     Computing stress (Cartesian axis) and pressure

          total   stress  (Ry/bohr**3)                   (kbar)     P=********
  -0.54439491   0.00000000   0.00000000     -80083.24      0.00      0.00
   0.00000000  -0.54439491  -0.00000000          0.00 -80083.24     -0.00
   0.00000000  -0.00000000  -0.54439491          0.00     -0.00 -80083.24


     Writing output data file Ni.save/

     init_run     :      0.29s CPU      0.32s WALL (       1 calls)
     electrons    :      2.67s CPU      2.99s WALL (       1 calls)
     forces       :      0.02s CPU      0.02s WALL (       1 calls)
     stress       :      0.04s CPU      0.04s WALL (       1 calls)

     Called by init_run:
     wfcinit      :      0.07s CPU      0.07s WALL (       1 calls)
     potinit      :      0.12s CPU      0.14s WALL (       1 calls)
     hinit0       :      0.08s CPU      0.08s WALL (       1 calls)

     Called by electrons:
     c_bands      :      1.52s CPU      1.69s WALL (      10 calls)
     sum_band     :      0.21s CPU      0.24s WALL (      10 calls)
     v_of_rho     :      0.01s CPU      0.01s WALL (      11 calls)
     newd         :      0.01s CPU      0.01s WALL (      11 calls)
     PAW_pot      :      1.03s CPU      1.16s WALL (      11 calls)
     mix_rho      :      0.00s CPU      0.00s WALL (      10 calls)

     Called by c_bands:
     init_us_2    :      0.03s CPU      0.03s WALL (    1081 calls)
     cegterg      :      1.47s CPU      1.64s WALL (     470 calls)

     Called by sum_band:
     sum_band:bec :      0.00s CPU      0.01s WALL (     470 calls)
     addusdens    :      0.01s CPU      0.01s WALL (      10 calls)

     Called by *egterg:
     h_psi        :      0.87s CPU      0.97s WALL (    1386 calls)
     s_psi        :      0.03s CPU      0.03s WALL (    1386 calls)
     g_psi        :      0.00s CPU      0.00s WALL (     869 calls)
     cdiaghg      :      0.43s CPU      0.46s WALL (    1339 calls)

     Called by h_psi:
     h_psi:pot    :      0.86s CPU      0.97s WALL (    1386 calls)
     h_psi:calbec :      0.05s CPU      0.06s WALL (    1386 calls)
     vloc_psi     :      0.77s CPU      0.87s WALL (    1386 calls)
     add_vuspsi   :      0.03s CPU      0.03s WALL (    1386 calls)

     General routines
     calbec       :      0.07s CPU      0.08s WALL (    2091 calls)
     fft          :      0.01s CPU      0.01s WALL (     147 calls)
     ffts         :      0.00s CPU      0.00s WALL (      10 calls)
     fftw         :      0.84s CPU      0.95s WALL (   36190 calls)

     Parallel routines
     fft_scatt_xy :      0.09s CPU      0.10s WALL (   36347 calls)
     fft_scatt_yz :      0.36s CPU      0.40s WALL (   36347 calls)

     PWSCF        :     3.82s CPU         4.22s WALL


   This run was terminated on:  22:27:49  26Mar2024            

=------------------------------------------------------------------------------=
   JOB DONE.
=------------------------------------------------------------------------------=
