
     Program PWSCF v.6.3MaX starts on 26Mar2024 at 22:19:24 

     This program is part of the open-source Quantum ESPRESSO suite
     for quantum simulation of materials; please cite
         "P. Giannozzi et al., J. Phys.:Condens. Matter 21 395502 (2009);
         "P. Giannozzi et al., J. Phys.:Condens. Matter 29 465901 (2017);
          URL http://www.quantum-espresso.org", 
     in publications or presentations arising from this work. More details at
     http://www.quantum-espresso.org/quote

     Parallel version (MPI), running on     5 processors

     MPI processes distributed on     1 nodes
     R & G space division:  proc/nbgrp/npool/nimage =       5
     Waiting for input...
     Reading input from standard input

     Current dimensions of program PWSCF are:
     Max number of different atomic species (ntypx) = 10
     Max number of k-points (npk) =  40000
     Max angular momentum in pseudopotentials (lmaxx) =  3

     Subspace diagonalization in iterative solution of the eigenvalue problem:
     a serial algorithm will be used


     Parallelization info
     --------------------
     sticks:   dense  smooth     PW     G-vecs:    dense   smooth      PW
     Min         119     119     37                 1967     1967     327
     Max         119     119     38                 1969     1969     329
     Sum         595     595    187                 9841     9841    1639



     bravais-lattice index     =            2
     lattice parameter (alat)  =       6.6500  a.u.
     unit-cell volume          =      73.5199 (a.u.)^3
     number of atoms/cell      =            1
     number of atomic types    =            1
     number of electrons       =        18.00
     number of Kohn-Sham states=           13
     kinetic-energy cutoff     =     100.0000  Ry
     charge density cutoff     =     400.0000  Ry
     convergence threshold     =      1.0E-08
     mixing beta               =       0.7000
     number of iterations used =            8  plain     mixing
     Exchange-correlation      = PBE ( 1  4  3  4 0 0)

     celldm(1)=   6.650000  celldm(2)=   0.000000  celldm(3)=   0.000000
     celldm(4)=   0.000000  celldm(5)=   0.000000  celldm(6)=   0.000000

     crystal axes: (cart. coord. in units of alat)
               a(1) = (  -0.500000   0.000000   0.500000 )  
               a(2) = (   0.000000   0.500000   0.500000 )  
               a(3) = (  -0.500000   0.500000   0.000000 )  

     reciprocal axes: (cart. coord. in units 2 pi/alat)
               b(1) = ( -1.000000 -1.000000  1.000000 )  
               b(2) = (  1.000000  1.000000  1.000000 )  
               b(3) = ( -1.000000  1.000000 -1.000000 )  


     PseudoPot. # 1 for Ni read from file:
     /home/lorenzo/pseudos/Ni/Ni.pbe-spn-rrkjus_psl.1.0.0.UPF
     MD5 check sum: 8b3fc9aac6dafe35f580d41bb18c3945
     Pseudo is Ultrasoft + core correction, Zval = 18.0
     Generated using "atomic" code by A. Dal Corso v.6.3
     Using radial grid of 1195 points,  6 beta functions with: 
                l(1) =   0
                l(2) =   0
                l(3) =   1
                l(4) =   1
                l(5) =   2
                l(6) =   2
     Q(r) pseudized with 0 coefficients 


     atomic species   valence    mass     pseudopotential
        Ni            18.00    58.69340     Ni( 1.00)

     48 Sym. Ops., with inversion, found



   Cartesian axes

     site n.     atom                  positions (alat units)
         1           Ni  tau(   1) = (   0.0000000   0.0000000   0.0000000  )

     number of k points=     3  gaussian smearing, width (Ry)=  0.0100
                       cart. coord. in units 2pi/alat
        k(    1) = (   0.0000000   0.0000000   0.0000000), wk =   0.2500000
        k(    2) = (   0.5000000  -0.5000000   0.5000000), wk =   1.0000000
        k(    3) = (   0.0000000  -1.0000000   0.0000000), wk =   0.7500000

     Dense  grid:     9841 G-vectors     FFT dimensions: (  30,  30,  30)

     Estimated max dynamical RAM per process >       9.19 MB

     Estimated total dynamical RAM >      45.96 MB

     Check: negative/imaginary core charge=   -0.000004    0.000000

     Initial potential from superposition of free atoms

     starting charge   17.99975, renormalised to   18.00000
     Starting wfcs are   10 randomized atomic wfcs +    3 random wfcs

     total cpu time spent up to now is        1.3 secs

     Self-consistent Calculation

     iteration #  1     ecut=   100.00 Ry     beta= 0.70
     Davidson diagonalization with overlap
     ethr =  1.00E-02,  avg # of iterations =  5.3

     Threshold (ethr) on eigenvalues was too large:
     Diagonalizing with lowered threshold

     Davidson diagonalization with overlap
     ethr =  4.69E-05,  avg # of iterations =  3.3

     total cpu time spent up to now is        1.4 secs

     total energy              =    -339.41697225 Ry
     Harris-Foulkes estimate   =    -339.41846009 Ry
     estimated scf accuracy    <       0.00839227 Ry

     iteration #  2     ecut=   100.00 Ry     beta= 0.70
     Davidson diagonalization with overlap
     ethr =  4.66E-05,  avg # of iterations =  1.0

     total cpu time spent up to now is        1.5 secs

     total energy              =    -339.41712163 Ry
     Harris-Foulkes estimate   =    -339.41716326 Ry
     estimated scf accuracy    <       0.00024106 Ry

     iteration #  3     ecut=   100.00 Ry     beta= 0.70
     Davidson diagonalization with overlap
     ethr =  1.34E-06,  avg # of iterations =  2.0

     total cpu time spent up to now is        1.6 secs

     total energy              =    -339.41706396 Ry
     Harris-Foulkes estimate   =    -339.41724499 Ry
     estimated scf accuracy    <       0.00120391 Ry

     iteration #  4     ecut=   100.00 Ry     beta= 0.70
     Davidson diagonalization with overlap
     ethr =  1.34E-06,  avg # of iterations =  2.0

     total cpu time spent up to now is        1.6 secs

     total energy              =    -339.41714726 Ry
     Harris-Foulkes estimate   =    -339.41714794 Ry
     estimated scf accuracy    <       0.00000794 Ry

     iteration #  5     ecut=   100.00 Ry     beta= 0.70
     Davidson diagonalization with overlap
     ethr =  4.41E-08,  avg # of iterations =  2.0

     total cpu time spent up to now is        1.7 secs

     total energy              =    -339.41714835 Ry
     Harris-Foulkes estimate   =    -339.41714876 Ry
     estimated scf accuracy    <       0.00000337 Ry

     iteration #  6     ecut=   100.00 Ry     beta= 0.70
     Davidson diagonalization with overlap
     ethr =  1.87E-08,  avg # of iterations =  1.0

     total cpu time spent up to now is        1.7 secs

     total energy              =    -339.41714861 Ry
     Harris-Foulkes estimate   =    -339.41714866 Ry
     estimated scf accuracy    <       0.00000024 Ry

     iteration #  7     ecut=   100.00 Ry     beta= 0.70
     Davidson diagonalization with overlap
     ethr =  1.34E-09,  avg # of iterations =  2.0

     total cpu time spent up to now is        1.8 secs

     total energy              =    -339.41714865 Ry
     Harris-Foulkes estimate   =    -339.41714868 Ry
     estimated scf accuracy    <       0.00000024 Ry

     iteration #  8     ecut=   100.00 Ry     beta= 0.70
     Davidson diagonalization with overlap
     ethr =  1.33E-09,  avg # of iterations =  1.0

     total cpu time spent up to now is        1.9 secs

     End of self-consistent calculation

          k = 0.0000 0.0000 0.0000 (  1243 PWs)   bands (ev):

   -85.5139 -45.7777 -45.7777 -45.7777   8.7994  15.7012  15.7012  15.7012
    16.8512  16.8512  41.4261  45.4449  45.4449

          k = 0.5000-0.5000 0.5000 (  1224 PWs)   bands (ev):

   -85.4802 -45.9968 -45.8093 -45.8093  13.1580  15.6883  15.6883  17.5370
    17.5568  17.5568  23.6556  40.0028  42.5209

          k = 0.0000-1.0000 0.0000 (  1234 PWs)   bands (ev):

   -85.4692 -45.9852 -45.8599 -45.8599  13.3596  13.8755  17.5755  17.7163
    17.7163  20.2507  27.1744  32.6636  32.6636

     the Fermi energy is    17.6876 ev

!    total energy              =    -339.41714866 Ry
     Harris-Foulkes estimate   =    -339.41714866 Ry
     estimated scf accuracy    <          2.8E-09 Ry

     The total energy is the sum of the following terms:

     one-electron contribution =    -186.25131265 Ry
     hartree contribution      =     104.53992794 Ry
     xc contribution           =     -34.31482337 Ry
     ewald contribution        =    -223.38275369 Ry
     smearing contrib. (-TS)   =      -0.00818690 Ry

     convergence has been achieved in   8 iterations

     Forces acting on atoms (cartesian axes, Ry/au):

     atom    1 type  1   force =     0.00000000    0.00000000    0.00000000

     Total force =     0.000000     Total SCF correction =     0.000000


     Computing stress (Cartesian axis) and pressure

          total   stress  (Ry/bohr**3)                   (kbar)     P=  329.07
   0.00223695   0.00000000   0.00000000        329.07      0.00      0.00
   0.00000000   0.00223695  -0.00000000          0.00    329.07     -0.00
   0.00000000  -0.00000000   0.00223695          0.00     -0.00    329.07


     Writing output data file Ni.save/

     init_run     :      0.22s CPU      0.22s WALL (       1 calls)
     electrons    :      0.58s CPU      0.60s WALL (       1 calls)
     forces       :      0.04s CPU      0.04s WALL (       1 calls)
     stress       :      0.09s CPU      0.09s WALL (       1 calls)

     Called by init_run:
     wfcinit      :      0.01s CPU      0.01s WALL (       1 calls)
     potinit      :      0.01s CPU      0.01s WALL (       1 calls)
     hinit0       :      0.18s CPU      0.18s WALL (       1 calls)

     Called by electrons:
     c_bands      :      0.31s CPU      0.32s WALL (       9 calls)
     sum_band     :      0.15s CPU      0.15s WALL (       9 calls)
     v_of_rho     :      0.04s CPU      0.05s WALL (       9 calls)
     newd         :      0.08s CPU      0.09s WALL (       9 calls)
     mix_rho      :      0.00s CPU      0.00s WALL (       9 calls)

     Called by c_bands:
     init_us_2    :      0.01s CPU      0.01s WALL (      63 calls)
     cegterg      :      0.30s CPU      0.31s WALL (      27 calls)

     Called by sum_band:
     sum_band:bec :      0.00s CPU      0.00s WALL (      27 calls)
     addusdens    :      0.08s CPU      0.08s WALL (       9 calls)

     Called by *egterg:
     h_psi        :      0.23s CPU      0.24s WALL (      89 calls)
     s_psi        :      0.01s CPU      0.01s WALL (      89 calls)
     g_psi        :      0.00s CPU      0.00s WALL (      59 calls)
     cdiaghg      :      0.03s CPU      0.03s WALL (      83 calls)

     Called by h_psi:
     h_psi:pot    :      0.23s CPU      0.24s WALL (      89 calls)
     h_psi:calbec :      0.01s CPU      0.01s WALL (      89 calls)
     vloc_psi     :      0.21s CPU      0.22s WALL (      89 calls)
     add_vuspsi   :      0.01s CPU      0.01s WALL (      89 calls)

     General routines
     calbec       :      0.02s CPU      0.02s WALL (     131 calls)
     fft          :      0.03s CPU      0.03s WALL (     126 calls)
     ffts         :      0.00s CPU      0.00s WALL (       9 calls)
     fftw         :      0.24s CPU      0.24s WALL (    1965 calls)

     Parallel routines
     fft_scatt_xy :      0.02s CPU      0.02s WALL (    2100 calls)
     fft_scatt_yz :      0.07s CPU      0.07s WALL (    2100 calls)

     PWSCF        :     1.99s CPU         2.05s WALL


   This run was terminated on:  22:19:27  26Mar2024            

=------------------------------------------------------------------------------=
   JOB DONE.
=------------------------------------------------------------------------------=
