
     Program PWSCF v.6.3MaX starts on 26Mar2024 at 23: 0:16 

     This program is part of the open-source Quantum ESPRESSO suite
     for quantum simulation of materials; please cite
         "P. Giannozzi et al., J. Phys.:Condens. Matter 21 395502 (2009);
         "P. Giannozzi et al., J. Phys.:Condens. Matter 29 465901 (2017);
          URL http://www.quantum-espresso.org", 
     in publications or presentations arising from this work. More details at
     http://www.quantum-espresso.org/quote

     Parallel version (MPI), running on     5 processors

     MPI processes distributed on     1 nodes
     R & G space division:  proc/nbgrp/npool/nimage =       5
     Waiting for input...
     Reading input from standard input

     Current dimensions of program PWSCF are:
     Max number of different atomic species (ntypx) = 10
     Max number of k-points (npk) =  40000
     Max angular momentum in pseudopotentials (lmaxx) =  3
               file Ni.pbesol-spn-kjpaw_psl.1.0.0.UPF: wavefunction(s)  3P 3D renormalized

     Subspace diagonalization in iterative solution of the eigenvalue problem:
     a serial algorithm will be used


     Parallelization info
     --------------------
     sticks:   dense  smooth     PW     G-vecs:    dense   smooth      PW
     Min         111     111     33                 1688     1688     294
     Max         112     112     35                 1689     1689     295
     Sum         559     559    169                 8441     8441    1471



     bravais-lattice index     =            2
     lattice parameter (alat)  =       6.6500  a.u.
     unit-cell volume          =      73.5199 (a.u.)^3
     number of atoms/cell      =            1
     number of atomic types    =            1
     number of electrons       =        18.00
     number of Kohn-Sham states=           13
     kinetic-energy cutoff     =      90.0000  Ry
     charge density cutoff     =     360.0000  Ry
     convergence threshold     =      1.0E-08
     mixing beta               =       0.7000
     number of iterations used =            8  plain     mixing
     Exchange-correlation      = SLA PW PSX PSC ( 1  4 10  8 0 0)

     celldm(1)=   6.650000  celldm(2)=   0.000000  celldm(3)=   0.000000
     celldm(4)=   0.000000  celldm(5)=   0.000000  celldm(6)=   0.000000

     crystal axes: (cart. coord. in units of alat)
               a(1) = (  -0.500000   0.000000   0.500000 )  
               a(2) = (   0.000000   0.500000   0.500000 )  
               a(3) = (  -0.500000   0.500000   0.000000 )  

     reciprocal axes: (cart. coord. in units 2 pi/alat)
               b(1) = ( -1.000000 -1.000000  1.000000 )  
               b(2) = (  1.000000  1.000000  1.000000 )  
               b(3) = ( -1.000000  1.000000 -1.000000 )  


     PseudoPot. # 1 for Ni read from file:
     /home/lorenzo/pseudos/Ni/Ni.pbesol-spn-kjpaw_psl.1.0.0.UPF
     MD5 check sum: ef06ee83099c2673f0516457bd731f51
     Pseudo is Projector augmented-wave + core cor, Zval = 18.0
     Generated using "atomic" code by A. Dal Corso v.6.3
     Shape of augmentation charge: PSQ
     Using radial grid of 1195 points,  6 beta functions with: 
                l(1) =   0
                l(2) =   0
                l(3) =   1
                l(4) =   1
                l(5) =   2
                l(6) =   2
     Q(r) pseudized with 0 coefficients 


     atomic species   valence    mass     pseudopotential
        Ni            18.00    58.69340     Ni( 1.00)

     48 Sym. Ops., with inversion, found



   Cartesian axes

     site n.     atom                  positions (alat units)
         1           Ni  tau(   1) = (   0.0000000   0.0000000   0.0000000  )

     number of k points=    47  gaussian smearing, width (Ry)=  0.0100
                       cart. coord. in units 2pi/alat
        k(    1) = (   0.0000000   0.0000000   0.0000000), wk =   0.0020000
        k(    2) = (  -0.1000000   0.1000000  -0.1000000), wk =   0.0160000
        k(    3) = (  -0.2000000   0.2000000  -0.2000000), wk =   0.0160000
        k(    4) = (  -0.3000000   0.3000000  -0.3000000), wk =   0.0160000
        k(    5) = (  -0.4000000   0.4000000  -0.4000000), wk =   0.0160000
        k(    6) = (   0.5000000  -0.5000000   0.5000000), wk =   0.0080000
        k(    7) = (   0.0000000   0.2000000   0.0000000), wk =   0.0120000
        k(    8) = (  -0.1000000   0.3000000  -0.1000000), wk =   0.0480000
        k(    9) = (  -0.2000000   0.4000000  -0.2000000), wk =   0.0480000
        k(   10) = (  -0.3000000   0.5000000  -0.3000000), wk =   0.0480000
        k(   11) = (   0.6000000  -0.4000000   0.6000000), wk =   0.0480000
        k(   12) = (   0.5000000  -0.3000000   0.5000000), wk =   0.0480000
        k(   13) = (   0.4000000  -0.2000000   0.4000000), wk =   0.0480000
        k(   14) = (   0.3000000  -0.1000000   0.3000000), wk =   0.0480000
        k(   15) = (   0.2000000   0.0000000   0.2000000), wk =   0.0240000
        k(   16) = (   0.0000000   0.4000000   0.0000000), wk =   0.0120000
        k(   17) = (  -0.1000000   0.5000000  -0.1000000), wk =   0.0480000
        k(   18) = (  -0.2000000   0.6000000  -0.2000000), wk =   0.0480000
        k(   19) = (   0.7000000  -0.3000000   0.7000000), wk =   0.0480000
        k(   20) = (   0.6000000  -0.2000000   0.6000000), wk =   0.0480000
        k(   21) = (   0.5000000  -0.1000000   0.5000000), wk =   0.0480000
        k(   22) = (   0.4000000   0.0000000   0.4000000), wk =   0.0240000
        k(   23) = (   0.0000000   0.6000000   0.0000000), wk =   0.0120000
        k(   24) = (  -0.1000000   0.7000000  -0.1000000), wk =   0.0480000
        k(   25) = (   0.8000000  -0.2000000   0.8000000), wk =   0.0480000
        k(   26) = (   0.7000000  -0.1000000   0.7000000), wk =   0.0480000
        k(   27) = (   0.6000000  -0.0000000   0.6000000), wk =   0.0240000
        k(   28) = (   0.0000000   0.8000000   0.0000000), wk =   0.0120000
        k(   29) = (   0.9000000  -0.1000000   0.9000000), wk =   0.0480000
        k(   30) = (   0.8000000   0.0000000   0.8000000), wk =   0.0240000
        k(   31) = (   0.0000000  -1.0000000   0.0000000), wk =   0.0060000
        k(   32) = (  -0.2000000   0.4000000   0.0000000), wk =   0.0480000
        k(   33) = (  -0.3000000   0.5000000  -0.1000000), wk =   0.0960000
        k(   34) = (   0.6000000  -0.4000000   0.8000000), wk =   0.0960000
        k(   35) = (   0.5000000  -0.3000000   0.7000000), wk =   0.0480000
        k(   36) = (  -0.2000000   0.6000000   0.0000000), wk =   0.0480000
        k(   37) = (   0.7000000  -0.3000000   0.9000000), wk =   0.0960000
        k(   38) = (   0.6000000  -0.2000000   0.8000000), wk =   0.0960000
        k(   39) = (   0.5000000  -0.1000000   0.7000000), wk =   0.0960000
        k(   40) = (   0.4000000   0.0000000   0.6000000), wk =   0.0480000
        k(   41) = (   0.8000000  -0.2000000   1.0000000), wk =   0.0480000
        k(   42) = (   0.7000000  -0.1000000   0.9000000), wk =   0.0960000
        k(   43) = (   0.6000000   0.0000000   0.8000000), wk =   0.0480000
        k(   44) = (  -0.2000000  -1.0000000   0.0000000), wk =   0.0240000
        k(   45) = (   0.6000000  -0.2000000   1.0000000), wk =   0.0480000
        k(   46) = (   0.5000000  -0.1000000   0.9000000), wk =   0.0480000
        k(   47) = (  -0.4000000  -1.0000000   0.0000000), wk =   0.0240000

     Dense  grid:     8441 G-vectors     FFT dimensions: (  30,  30,  30)

     Estimated max dynamical RAM per process >       9.94 MB

     Estimated total dynamical RAM >      49.69 MB

     Check: negative/imaginary core charge=   -0.000002    0.000000

     Initial potential from superposition of free atoms

     starting charge   17.99977, renormalised to   18.00000
     Starting wfcs are   10 randomized atomic wfcs +    3 random wfcs
     Checking if some PAW data can be deallocated... 

     total cpu time spent up to now is        1.3 secs

     Self-consistent Calculation

     iteration #  1     ecut=    90.00 Ry     beta= 0.70
     Davidson diagonalization with overlap
     ethr =  1.00E-02,  avg # of iterations =  3.5

     Threshold (ethr) on eigenvalues was too large:
     Diagonalizing with lowered threshold

     Davidson diagonalization with overlap
     ethr =  1.29E-05,  avg # of iterations =  3.0

     total cpu time spent up to now is        3.3 secs

     total energy              =    -426.57625796 Ry
     Harris-Foulkes estimate   =    -426.57749214 Ry
     estimated scf accuracy    <       0.00227010 Ry

     iteration #  2     ecut=    90.00 Ry     beta= 0.70
     Davidson diagonalization with overlap
     ethr =  1.26E-05,  avg # of iterations =  2.1

     total cpu time spent up to now is        4.3 secs

     total energy              =    -426.57574113 Ry
     Harris-Foulkes estimate   =    -426.57786493 Ry
     estimated scf accuracy    <       0.00527167 Ry

     iteration #  3     ecut=    90.00 Ry     beta= 0.70
     Davidson diagonalization with overlap
     ethr =  1.26E-05,  avg # of iterations =  2.1

     total cpu time spent up to now is        5.3 secs

     total energy              =    -426.57683363 Ry
     Harris-Foulkes estimate   =    -426.57694685 Ry
     estimated scf accuracy    <       0.00034533 Ry

     iteration #  4     ecut=    90.00 Ry     beta= 0.70
     Davidson diagonalization with overlap
     ethr =  1.92E-06,  avg # of iterations =  1.4

     total cpu time spent up to now is        6.1 secs

     total energy              =    -426.57688408 Ry
     Harris-Foulkes estimate   =    -426.57688392 Ry
     estimated scf accuracy    <       0.00000025 Ry

     iteration #  5     ecut=    90.00 Ry     beta= 0.70
     Davidson diagonalization with overlap
     ethr =  1.41E-09,  avg # of iterations =  3.8

     total cpu time spent up to now is        7.4 secs

     total energy              =    -426.57688556 Ry
     Harris-Foulkes estimate   =    -426.57688563 Ry
     estimated scf accuracy    <       0.00000019 Ry

     iteration #  6     ecut=    90.00 Ry     beta= 0.70
     Davidson diagonalization with overlap
     ethr =  1.04E-09,  avg # of iterations =  1.0

     total cpu time spent up to now is        8.4 secs

     total energy              =    -426.57688555 Ry
     Harris-Foulkes estimate   =    -426.57688556 Ry
     estimated scf accuracy    <       0.00000003 Ry

     iteration #  7     ecut=    90.00 Ry     beta= 0.70
     Davidson diagonalization with overlap
     ethr =  1.55E-10,  avg # of iterations =  1.5

     total cpu time spent up to now is        9.3 secs

     End of self-consistent calculation

          k = 0.0000 0.0000 0.0000 (  1067 PWs)   bands (ev):

   -85.1543 -45.5619 -45.5619 -45.5619   8.6034  15.7244  15.7244  15.7244
    16.8504  16.8504  41.2797  45.1987  45.1987

          k =-0.1000 0.1000-0.1000 (  1040 PWs)   bands (ev):

   -85.1510 -45.5824 -45.5646 -45.5646   8.9930  15.6198  15.8087  15.8087
    16.8174  16.8174  39.5576  42.5847  44.3948

          k =-0.2000 0.2000-0.2000 (  1046 PWs)   bands (ev):

   -85.1424 -45.6393 -45.5726 -45.5726  10.1019  15.4004  15.9368  15.9368
    16.8373  16.8373  34.6409  41.8080  43.3815

          k =-0.3000 0.3000-0.3000 (  1059 PWs)   bands (ev):

   -85.1317 -45.7092 -45.5827 -45.5827  11.6546  15.3867  15.8813  15.8813
    17.1073  17.1073  29.7710  40.9108  42.7167

          k =-0.4000 0.4000-0.4000 (  1056 PWs)   bands (ev):

   -85.1231 -45.7645 -45.5909 -45.5909  12.8203  15.7448  15.7448  16.2593
    17.4458  17.4458  25.6412  40.0978  42.3981

          k = 0.5000-0.5000 0.5000 (  1068 PWs)   bands (ev):

   -85.1198 -45.7862 -45.5941 -45.5941  13.0979  15.6841  15.6841  17.3277
    17.5908  17.5908  23.5839  39.7836  42.3236

          k = 0.0000 0.2000 0.0000 (  1038 PWs)   bands (ev):

   -85.1499 -45.5820 -45.5693 -45.5693   9.1218  15.5321  15.8733  15.8733
    16.6765  16.9185  40.3538  42.2404  42.2404

          k =-0.1000 0.3000-0.1000 (  1039 PWs)   bands (ev):

   -85.1431 -45.6240 -45.5789 -45.5753   9.9896  15.3093  16.0086  16.0363
    16.5818  16.9963  36.5884  40.6546  40.7155

          k =-0.2000 0.4000-0.2000 (  1054 PWs)   bands (ev):

   -85.1331 -45.6876 -45.5895 -45.5855  11.4192  15.1423  15.8720  16.0651
    16.9413  17.2163  31.5829  39.6975  39.8705

          k =-0.3000 0.5000-0.3000 (  1059 PWs)   bands (ev):

   -85.1238 -45.7456 -45.5976 -45.5973  12.7968  15.4036  15.6892  15.9472
    17.5011  17.7039  27.1006  38.9092  39.4408

          k = 0.6000-0.4000 0.6000 (  1060 PWs)   bands (ev):

   -85.1187 -45.7770 -45.6068 -45.5988  13.3014  15.4897  15.8431  16.2181
    17.6006  18.8283  23.9409  37.9003  39.9978

          k = 0.5000-0.3000 0.5000 (  1060 PWs)   bands (ev):

   -85.1198 -45.7698 -45.6098 -45.5940  13.2277  15.5455  15.8446  16.0700
    17.4058  18.5728  24.7387  37.1888  41.4429

          k = 0.4000-0.2000 0.4000 (  1057 PWs)   bands (ev):

   -85.1267 -45.7275 -45.6047 -45.5844  12.4216  15.3221  15.7313  15.9621
    16.9972  17.7550  28.5204  37.0450  42.1243

          k = 0.3000-0.1000 0.3000 (  1052 PWs)   bands (ev):

   -85.1367 -45.6662 -45.5929 -45.5738  10.9065  15.2270  15.9116  16.0855
    16.6211  17.2349  33.2225  37.4981  43.8502

          k = 0.2000 0.0000 0.2000 (  1037 PWs)   bands (ev):

   -85.1459 -45.6103 -45.5776 -45.5661   9.6238  15.4448  15.9243  15.9403
    16.6477  16.9403  37.8975  38.9307  44.2559

          k = 0.0000 0.4000 0.0000 (  1054 PWs)   bands (ev):

   -85.1384 -45.6370 -45.5904 -45.5904  10.5759  15.0446  16.2898  16.2978
    16.2978  17.0985  38.5701  38.5701  39.0060

          k =-0.1000 0.5000-0.1000 (  1057 PWs)   bands (ev):

   -85.1303 -45.6808 -45.6029 -45.6026  11.7286  14.7906  15.9430  16.4691
    16.8973  17.2790  33.8787  37.2131  37.9602

          k =-0.2000 0.6000-0.2000 (  1060 PWs)   bands (ev):

   -85.1217 -45.7275 -45.6198 -45.6107  13.0328  14.7158  15.6412  16.4095
    17.5446  18.0088  29.1753  35.9162  36.6915

          k = 0.7000-0.3000 0.7000 (  1067 PWs)   bands (ev):

   -85.1159 -45.7562 -45.6380 -45.6120  13.7494  14.8681  15.6193  16.2823
    17.6269  19.8588  25.2052  34.1083  37.1087

          k = 0.6000-0.2000 0.6000 (  1073 PWs)   bands (ev):

   -85.1152 -45.7571 -45.6495 -45.6057  13.8813  15.0147  15.6159  16.2115
    17.4055  20.6039  24.2887  32.8660  38.4776

          k = 0.5000-0.1000 0.5000 (  1059 PWs)   bands (ev):

   -85.1199 -45.7325 -45.6465 -45.5941  13.4936  15.1299  15.3411  16.2494
    16.9612  18.9798  27.7996  32.3339  40.6694

          k = 0.4000 0.0000 0.4000 (  1057 PWs)   bands (ev):

   -85.1281 -45.6983 -45.6249 -45.5819  12.2352  15.0303  15.6767  16.3773
    16.4881  17.9173  32.0023  32.8532  42.9114

          k = 0.0000 0.6000 0.0000 (  1046 PWs)   bands (ev):

   -85.1243 -45.7021 -45.6163 -45.6163  12.4185  14.4722  16.3267  16.9124
    16.9124  17.3250  35.1195  35.4355  35.4355

          k =-0.1000 0.7000-0.1000 (  1050 PWs)   bands (ev):

   -85.1175 -45.7326 -45.6329 -45.6258  13.1730  14.2903  16.3018  17.0030
    17.5529  18.0403  31.6599  32.7301  34.5458

          k = 0.8000-0.2000 0.8000 (  1066 PWs)   bands (ev):

   -85.1124 -45.7472 -45.6593 -45.6277  13.7551  14.3144  16.0059  16.8798
    17.6630  20.3019  27.4880  30.6219  34.6965

          k = 0.7000-0.1000 0.7000 (  1060 PWs)   bands (ev):

   -85.1110 -45.7362 -45.6885 -45.6208  14.2030  14.4575  15.6377  16.7285
    17.4643  22.9267  24.2961  29.2109  35.8942

          k = 0.6000-0.0000 0.6000 (  1069 PWs)   bands (ev):

   -85.1139 -45.7242 -45.6908 -45.6080  14.2784  14.8093  15.2035  16.5502
    17.1249  20.8727  26.7984  29.0129  37.9671

          k = 0.0000 0.8000 0.0000 (  1058 PWs)   bands (ev):

   -85.1129 -45.7543 -45.6375 -45.6375  13.2285  14.0311  17.5105  17.5105
    17.5117  18.1612  29.9325  33.2535  33.2535

          k = 0.9000-0.1000 0.9000 (  1061 PWs)   bands (ev):

   -85.1096 -45.7638 -45.6522 -45.6405  13.4108  13.9918  17.0920  17.4073
    17.7099  20.2649  28.0089  30.4797  33.0489

          k = 0.8000 0.0000 0.8000 (  1059 PWs)   bands (ev):

   -85.1089 -45.7497 -45.6786 -45.6341  13.7729  14.1741  16.3391  17.1797
    17.6005  22.5480  26.5962  27.6213  33.9908

          k = 0.0000-1.0000 0.0000 (  1034 PWs)   bands (ev):

   -85.1085 -45.7732 -45.6450 -45.6450  13.2696  13.8676  17.5840  17.7717
    17.7717  20.0709  27.0460  32.4527  32.4527

          k =-0.2000 0.4000 0.0000 (  1054 PWs)   bands (ev):

   -85.1356 -45.6608 -45.5999 -45.5813  11.0254  15.0651  15.9250  16.3142
    16.5435  17.2623  35.0969  35.7678  41.7049

          k =-0.3000 0.5000-0.1000 (  1059 PWs)   bands (ev):

   -85.1263 -45.7094 -45.6193 -45.5911  12.4570  14.9380  15.6275  16.3229
    16.9195  17.8706  30.4958  34.8297  39.3723

          k = 0.6000-0.4000 0.8000 (  1059 PWs)   bands (ev):

   -85.1188 -45.7500 -45.6307 -45.6015  13.5004  15.1298  15.4901  16.1838
    17.3751  19.0205  26.2279  34.8312  37.3623

          k = 0.5000-0.3000 0.7000 (  1060 PWs)   bands (ev):

   -85.1159 -45.7660 -45.6340 -45.6060  13.7304  15.1166  15.7618  16.1079
    17.5294  20.3351  23.7883  35.2178  36.2796

          k =-0.2000 0.6000 0.0000 (  1052 PWs)   bands (ev):

   -85.1228 -45.7115 -45.6272 -45.6094  12.7863  14.5744  15.7526  16.9121
    16.9750  17.8747  32.6856  33.2324  35.8462

          k = 0.7000-0.3000 0.9000 (  1057 PWs)   bands (ev):

   -85.1159 -45.7367 -45.6495 -45.6187  13.7185  14.5546  15.5015  16.7710
    17.4234  19.3480  28.4445  32.7036  33.6591

          k = 0.6000-0.2000 0.8000 (  1060 PWs)   bands (ev):

   -85.1124 -45.7447 -45.6686 -45.6213  14.1962  14.6024  15.4325  16.5821
    17.5405  21.7097  24.7414  31.6434  33.6206

          k = 0.5000-0.1000 0.7000 (  1068 PWs)   bands (ev):

   -85.1135 -45.7367 -45.6753 -45.6143  14.2677  14.7524  15.2139  16.5393
    17.3339  21.0437  25.8071  30.6221  34.9827

          k = 0.4000 0.0000 0.6000 (  1063 PWs)   bands (ev):

   -85.1188 -45.7245 -45.6557 -45.6020  13.6489  14.8553  15.2224  16.6081
    16.9462  19.0854  29.4876  30.7276  36.9703

          k = 0.8000-0.2000 1.0000 (  1063 PWs)   bands (ev):

   -85.1124 -45.7487 -45.6494 -45.6355  13.5271  14.1876  16.3240  17.3297
    17.5083  19.5821  30.1823  30.9275  31.7348

          k = 0.7000-0.1000 0.9000 (  1064 PWs)   bands (ev):

   -85.1096 -45.7444 -45.6751 -45.6380  13.8850  14.3089  15.9524  17.0588
    17.6621  22.1016  27.1878  28.5990  31.8276

          k = 0.6000 0.0000 0.8000 (  1064 PWs)   bands (ev):

   -85.1100 -45.7187 -45.7070 -45.6289  14.2998  14.5059  15.4354  16.7973
    17.5150  23.7595  24.8349  28.0936  33.0867

          k =-0.2000-1.0000 0.0000 (  1058 PWs)   bands (ev):

   -85.1085 -45.7617 -45.6578 -45.6459  13.5349  14.0430  16.7686  17.3556
    17.7719  21.5075  27.1696  30.2595  31.0321

          k = 0.6000-0.2000 1.0000 (  1068 PWs)   bands (ev):

   -85.1113 -45.7322 -45.6806 -45.6311  14.1773  14.6614  15.2102  16.8700
    17.5046  21.4895  27.7133  29.3851  31.3953

          k = 0.5000-0.1000 0.9000 (  1066 PWs)   bands (ev):

   -85.1095 -45.7218 -45.6988 -45.6376  14.3000  14.7970  15.0883  16.7453
    17.6474  24.0650  24.8910  29.4611  30.1460

          k =-0.4000-1.0000 0.0000 (  1060 PWs)   bands (ev):

   -85.1085 -45.7296 -45.6898 -45.6470  14.0734  14.5812  15.5013  16.8712
    17.7726  24.0557  27.0410  27.5864  29.1709

     the Fermi energy is    17.6151 ev

!    total energy              =    -426.57688556 Ry
     Harris-Foulkes estimate   =    -426.57688556 Ry
     estimated scf accuracy    <          1.1E-09 Ry

     total all-electron energy =     -3039.035230 Ry

     The total energy is the sum of the following terms:

     one-electron contribution =    -184.98809520 Ry
     hartree contribution      =     104.56988585 Ry
     xc contribution           =     -33.92709326 Ry
     ewald contribution        =    -223.38275369 Ry
     one-center paw contrib.   =     -88.84666512 Ry
     smearing contrib. (-TS)   =      -0.00216413 Ry

     convergence has been achieved in   7 iterations

     Forces acting on atoms (cartesian axes, Ry/au):

     atom    1 type  1   force =     0.00000000    0.00000000    0.00000000

     Total force =     0.000000     Total SCF correction =     0.000000


     Computing stress (Cartesian axis) and pressure

          total   stress  (Ry/bohr**3)                   (kbar)     P= -131.00
  -0.00089054  -0.00000000  -0.00000000       -131.00     -0.00     -0.00
  -0.00000000  -0.00089054   0.00000000         -0.00   -131.00      0.00
  -0.00000000   0.00000000  -0.00089054         -0.00      0.00   -131.00


     Writing output data file Ni.save/

     init_run     :      0.54s CPU      0.57s WALL (       1 calls)
     electrons    :      7.60s CPU      7.96s WALL (       1 calls)
     forces       :      0.10s CPU      0.10s WALL (       1 calls)
     stress       :      0.32s CPU      0.32s WALL (       1 calls)

     Called by init_run:
     wfcinit      :      0.24s CPU      0.25s WALL (       1 calls)
     potinit      :      0.11s CPU      0.11s WALL (       1 calls)
     hinit0       :      0.16s CPU      0.16s WALL (       1 calls)

     Called by electrons:
     c_bands      :      5.65s CPU      5.86s WALL (       8 calls)
     sum_band     :      1.03s CPU      1.07s WALL (       8 calls)
     v_of_rho     :      0.04s CPU      0.04s WALL (       8 calls)
     newd         :      0.07s CPU      0.09s WALL (       8 calls)
     PAW_pot      :      0.90s CPU      1.00s WALL (       8 calls)
     mix_rho      :      0.00s CPU      0.00s WALL (       8 calls)

     Called by c_bands:
     init_us_2    :      0.13s CPU      0.14s WALL (     893 calls)
     cegterg      :      5.43s CPU      5.64s WALL (     376 calls)

     Called by sum_band:
     sum_band:bec :      0.00s CPU      0.01s WALL (     376 calls)
     addusdens    :      0.07s CPU      0.07s WALL (       8 calls)

     Called by *egterg:
     h_psi        :      4.21s CPU      4.38s WALL (    1283 calls)
     s_psi        :      0.11s CPU      0.12s WALL (    1283 calls)
     g_psi        :      0.01s CPU      0.01s WALL (     860 calls)
     cdiaghg      :      0.51s CPU      0.52s WALL (    1189 calls)

     Called by h_psi:
     h_psi:pot    :      4.19s CPU      4.36s WALL (    1283 calls)
     h_psi:calbec :      0.21s CPU      0.22s WALL (    1283 calls)
     vloc_psi     :      3.85s CPU      4.01s WALL (    1283 calls)
     add_vuspsi   :      0.12s CPU      0.12s WALL (    1283 calls)

     General routines
     calbec       :      0.35s CPU      0.36s WALL (    1894 calls)
     fft          :      0.03s CPU      0.03s WALL (     115 calls)
     ffts         :      0.00s CPU      0.00s WALL (       8 calls)
     fftw         :      4.38s CPU      4.55s WALL (   29824 calls)

     Parallel routines
     fft_scatt_xy :      0.34s CPU      0.36s WALL (   29947 calls)
     fft_scatt_yz :      1.53s CPU      1.57s WALL (   29947 calls)

     PWSCF        :     9.39s CPU         9.86s WALL


   This run was terminated on:  23: 0:26  26Mar2024            

=------------------------------------------------------------------------------=
   JOB DONE.
=------------------------------------------------------------------------------=
