
     Program PWSCF v.6.3MaX starts on 26Mar2024 at 23: 0:26 

     This program is part of the open-source Quantum ESPRESSO suite
     for quantum simulation of materials; please cite
         "P. Giannozzi et al., J. Phys.:Condens. Matter 21 395502 (2009);
         "P. Giannozzi et al., J. Phys.:Condens. Matter 29 465901 (2017);
          URL http://www.quantum-espresso.org", 
     in publications or presentations arising from this work. More details at
     http://www.quantum-espresso.org/quote

     Parallel version (MPI), running on     5 processors

     MPI processes distributed on     1 nodes
     R & G space division:  proc/nbgrp/npool/nimage =       5
     Waiting for input...
     Reading input from standard input

     Current dimensions of program PWSCF are:
     Max number of different atomic species (ntypx) = 10
     Max number of k-points (npk) =  40000
     Max angular momentum in pseudopotentials (lmaxx) =  3

     Subspace diagonalization in iterative solution of the eigenvalue problem:
     a serial algorithm will be used


     Parallelization info
     --------------------
     sticks:   dense  smooth     PW     G-vecs:    dense   smooth      PW
     Min         111     111     33                 1688     1688     294
     Max         112     112     35                 1689     1689     295
     Sum         559     559    169                 8441     8441    1471



     bravais-lattice index     =            2
     lattice parameter (alat)  =       6.6500  a.u.
     unit-cell volume          =      73.5199 (a.u.)^3
     number of atoms/cell      =            1
     number of atomic types    =            1
     number of electrons       =        18.00
     number of Kohn-Sham states=           13
     kinetic-energy cutoff     =      90.0000  Ry
     charge density cutoff     =     360.0000  Ry
     convergence threshold     =      1.0E-08
     mixing beta               =       0.7000
     number of iterations used =            8  plain     mixing
     Exchange-correlation      = PBESOL ( 1  4 10  8 0 0)

     celldm(1)=   6.650000  celldm(2)=   0.000000  celldm(3)=   0.000000
     celldm(4)=   0.000000  celldm(5)=   0.000000  celldm(6)=   0.000000

     crystal axes: (cart. coord. in units of alat)
               a(1) = (  -0.500000   0.000000   0.500000 )  
               a(2) = (   0.000000   0.500000   0.500000 )  
               a(3) = (  -0.500000   0.500000   0.000000 )  

     reciprocal axes: (cart. coord. in units 2 pi/alat)
               b(1) = ( -1.000000 -1.000000  1.000000 )  
               b(2) = (  1.000000  1.000000  1.000000 )  
               b(3) = ( -1.000000  1.000000 -1.000000 )  


     PseudoPot. # 1 for Ni read from file:
     /home/lorenzo/pseudos/Ni/Ni.pbesol-spn-rrkjus_psl.1.0.0.UPF
     MD5 check sum: 6fc0a587bf949a08f2faed986b854013
     Pseudo is Ultrasoft + core correction, Zval = 18.0
     Generated using "atomic" code by A. Dal Corso v.6.3
     Using radial grid of 1195 points,  6 beta functions with: 
                l(1) =   0
                l(2) =   0
                l(3) =   1
                l(4) =   1
                l(5) =   2
                l(6) =   2
     Q(r) pseudized with 0 coefficients 


     atomic species   valence    mass     pseudopotential
        Ni            18.00    58.69340     Ni( 1.00)

     48 Sym. Ops., with inversion, found



   Cartesian axes

     site n.     atom                  positions (alat units)
         1           Ni  tau(   1) = (   0.0000000   0.0000000   0.0000000  )

     number of k points=    47  gaussian smearing, width (Ry)=  0.0100
                       cart. coord. in units 2pi/alat
        k(    1) = (   0.0000000   0.0000000   0.0000000), wk =   0.0020000
        k(    2) = (  -0.1000000   0.1000000  -0.1000000), wk =   0.0160000
        k(    3) = (  -0.2000000   0.2000000  -0.2000000), wk =   0.0160000
        k(    4) = (  -0.3000000   0.3000000  -0.3000000), wk =   0.0160000
        k(    5) = (  -0.4000000   0.4000000  -0.4000000), wk =   0.0160000
        k(    6) = (   0.5000000  -0.5000000   0.5000000), wk =   0.0080000
        k(    7) = (   0.0000000   0.2000000   0.0000000), wk =   0.0120000
        k(    8) = (  -0.1000000   0.3000000  -0.1000000), wk =   0.0480000
        k(    9) = (  -0.2000000   0.4000000  -0.2000000), wk =   0.0480000
        k(   10) = (  -0.3000000   0.5000000  -0.3000000), wk =   0.0480000
        k(   11) = (   0.6000000  -0.4000000   0.6000000), wk =   0.0480000
        k(   12) = (   0.5000000  -0.3000000   0.5000000), wk =   0.0480000
        k(   13) = (   0.4000000  -0.2000000   0.4000000), wk =   0.0480000
        k(   14) = (   0.3000000  -0.1000000   0.3000000), wk =   0.0480000
        k(   15) = (   0.2000000   0.0000000   0.2000000), wk =   0.0240000
        k(   16) = (   0.0000000   0.4000000   0.0000000), wk =   0.0120000
        k(   17) = (  -0.1000000   0.5000000  -0.1000000), wk =   0.0480000
        k(   18) = (  -0.2000000   0.6000000  -0.2000000), wk =   0.0480000
        k(   19) = (   0.7000000  -0.3000000   0.7000000), wk =   0.0480000
        k(   20) = (   0.6000000  -0.2000000   0.6000000), wk =   0.0480000
        k(   21) = (   0.5000000  -0.1000000   0.5000000), wk =   0.0480000
        k(   22) = (   0.4000000   0.0000000   0.4000000), wk =   0.0240000
        k(   23) = (   0.0000000   0.6000000   0.0000000), wk =   0.0120000
        k(   24) = (  -0.1000000   0.7000000  -0.1000000), wk =   0.0480000
        k(   25) = (   0.8000000  -0.2000000   0.8000000), wk =   0.0480000
        k(   26) = (   0.7000000  -0.1000000   0.7000000), wk =   0.0480000
        k(   27) = (   0.6000000  -0.0000000   0.6000000), wk =   0.0240000
        k(   28) = (   0.0000000   0.8000000   0.0000000), wk =   0.0120000
        k(   29) = (   0.9000000  -0.1000000   0.9000000), wk =   0.0480000
        k(   30) = (   0.8000000   0.0000000   0.8000000), wk =   0.0240000
        k(   31) = (   0.0000000  -1.0000000   0.0000000), wk =   0.0060000
        k(   32) = (  -0.2000000   0.4000000   0.0000000), wk =   0.0480000
        k(   33) = (  -0.3000000   0.5000000  -0.1000000), wk =   0.0960000
        k(   34) = (   0.6000000  -0.4000000   0.8000000), wk =   0.0960000
        k(   35) = (   0.5000000  -0.3000000   0.7000000), wk =   0.0480000
        k(   36) = (  -0.2000000   0.6000000   0.0000000), wk =   0.0480000
        k(   37) = (   0.7000000  -0.3000000   0.9000000), wk =   0.0960000
        k(   38) = (   0.6000000  -0.2000000   0.8000000), wk =   0.0960000
        k(   39) = (   0.5000000  -0.1000000   0.7000000), wk =   0.0960000
        k(   40) = (   0.4000000   0.0000000   0.6000000), wk =   0.0480000
        k(   41) = (   0.8000000  -0.2000000   1.0000000), wk =   0.0480000
        k(   42) = (   0.7000000  -0.1000000   0.9000000), wk =   0.0960000
        k(   43) = (   0.6000000   0.0000000   0.8000000), wk =   0.0480000
        k(   44) = (  -0.2000000  -1.0000000   0.0000000), wk =   0.0240000
        k(   45) = (   0.6000000  -0.2000000   1.0000000), wk =   0.0480000
        k(   46) = (   0.5000000  -0.1000000   0.9000000), wk =   0.0480000
        k(   47) = (  -0.4000000  -1.0000000   0.0000000), wk =   0.0240000

     Dense  grid:     8441 G-vectors     FFT dimensions: (  30,  30,  30)

     Estimated max dynamical RAM per process >       9.94 MB

     Estimated total dynamical RAM >      49.69 MB

     Check: negative/imaginary core charge=   -0.000002    0.000000

     Initial potential from superposition of free atoms

     starting charge   17.99977, renormalised to   18.00000
     Starting wfcs are   10 randomized atomic wfcs +    3 random wfcs

     total cpu time spent up to now is        1.2 secs

     Self-consistent Calculation

     iteration #  1     ecut=    90.00 Ry     beta= 0.70
     Davidson diagonalization with overlap
     ethr =  1.00E-02,  avg # of iterations =  3.6

     Threshold (ethr) on eigenvalues was too large:
     Diagonalizing with lowered threshold

     Davidson diagonalization with overlap
     ethr =  1.24E-05,  avg # of iterations =  2.9

     total cpu time spent up to now is        3.1 secs

     total energy              =    -339.39964755 Ry
     Harris-Foulkes estimate   =    -339.40075033 Ry
     estimated scf accuracy    <       0.00217412 Ry

     iteration #  2     ecut=    90.00 Ry     beta= 0.70
     Davidson diagonalization with overlap
     ethr =  1.21E-05,  avg # of iterations =  2.1

     total cpu time spent up to now is        4.2 secs

     total energy              =    -339.39917141 Ry
     Harris-Foulkes estimate   =    -339.40101392 Ry
     estimated scf accuracy    <       0.00444303 Ry

     iteration #  3     ecut=    90.00 Ry     beta= 0.70
     Davidson diagonalization with overlap
     ethr =  1.21E-05,  avg # of iterations =  2.1

     total cpu time spent up to now is        5.2 secs

     total energy              =    -339.40012881 Ry
     Harris-Foulkes estimate   =    -339.40026285 Ry
     estimated scf accuracy    <       0.00041176 Ry

     iteration #  4     ecut=    90.00 Ry     beta= 0.70
     Davidson diagonalization with overlap
     ethr =  2.29E-06,  avg # of iterations =  1.6

     total cpu time spent up to now is        6.0 secs

     total energy              =    -339.40018873 Ry
     Harris-Foulkes estimate   =    -339.40018856 Ry
     estimated scf accuracy    <       0.00000026 Ry

     iteration #  5     ecut=    90.00 Ry     beta= 0.70
     Davidson diagonalization with overlap
     ethr =  1.46E-09,  avg # of iterations =  3.6

     total cpu time spent up to now is        7.0 secs

     total energy              =    -339.40019025 Ry
     Harris-Foulkes estimate   =    -339.40019032 Ry
     estimated scf accuracy    <       0.00000018 Ry

     iteration #  6     ecut=    90.00 Ry     beta= 0.70
     Davidson diagonalization with overlap
     ethr =  1.01E-09,  avg # of iterations =  1.0

     total cpu time spent up to now is        7.6 secs

     total energy              =    -339.40019024 Ry
     Harris-Foulkes estimate   =    -339.40019025 Ry
     estimated scf accuracy    <       0.00000002 Ry

     iteration #  7     ecut=    90.00 Ry     beta= 0.70
     Davidson diagonalization with overlap
     ethr =  1.35E-10,  avg # of iterations =  1.4

     total cpu time spent up to now is        8.3 secs

     End of self-consistent calculation

          k = 0.0000 0.0000 0.0000 (  1067 PWs)   bands (ev):

   -85.1444 -45.5553 -45.5553 -45.5553   8.6045  15.7266  15.7266  15.7266
    16.8508  16.8508  41.2807  45.1996  45.1996

          k =-0.1000 0.1000-0.1000 (  1040 PWs)   bands (ev):

   -85.1411 -45.5758 -45.5580 -45.5580   8.9941  15.6220  15.8108  15.8108
    16.8178  16.8178  39.5577  42.5856  44.3947

          k =-0.2000 0.2000-0.2000 (  1046 PWs)   bands (ev):

   -85.1325 -45.6328 -45.5660 -45.5660  10.1030  15.4025  15.9387  15.9387
    16.8379  16.8379  34.6410  41.8088  43.3811

          k =-0.3000 0.3000-0.3000 (  1059 PWs)   bands (ev):

   -85.1218 -45.7027 -45.5761 -45.5761  11.6559  15.3886  15.8828  15.8828
    17.1084  17.1084  29.7715  40.9116  42.7165

          k =-0.4000 0.4000-0.4000 (  1056 PWs)   bands (ev):

   -85.1132 -45.7579 -45.5843 -45.5843  12.8220  15.7460  15.7460  16.2607
    17.4470  17.4470  25.6420  40.0987  42.3985

          k = 0.5000-0.5000 0.5000 (  1068 PWs)   bands (ev):

   -85.1099 -45.7796 -45.5875 -45.5875  13.0997  15.6853  15.6853  17.3288
    17.5921  17.5921  23.5849  39.7846  42.3245

          k = 0.0000 0.2000 0.0000 (  1038 PWs)   bands (ev):

   -85.1400 -45.5754 -45.5628 -45.5628   9.1229  15.5342  15.8754  15.8754
    16.6769  16.9189  40.3540  42.2403  42.2403

          k =-0.1000 0.3000-0.1000 (  1039 PWs)   bands (ev):

   -85.1332 -45.6174 -45.5723 -45.5687   9.9908  15.3114  16.0105  16.0383
    16.5824  16.9968  36.5884  40.6545  40.7157

          k =-0.2000 0.4000-0.2000 (  1054 PWs)   bands (ev):

   -85.1232 -45.6811 -45.5830 -45.5790  11.4204  15.1443  15.8733  16.0668
    16.9426  17.2172  31.5833  39.6976  39.8707

          k =-0.3000 0.5000-0.3000 (  1059 PWs)   bands (ev):

   -85.1139 -45.7391 -45.5910 -45.5907  12.7982  15.4050  15.6907  15.9485
    17.5023  17.7052  27.1013  38.9094  39.4411

          k = 0.6000-0.4000 0.6000 (  1060 PWs)   bands (ev):

   -85.1088 -45.7705 -45.6003 -45.5922  13.3032  15.4907  15.8443  16.2198
    17.6019  18.8294  23.9419  37.9006  39.9981

          k = 0.5000-0.3000 0.5000 (  1060 PWs)   bands (ev):

   -85.1099 -45.7632 -45.6032 -45.5874  13.2294  15.5465  15.8457  16.0716
    17.4072  18.5739  24.7396  37.1890  40.9945

          k = 0.4000-0.2000 0.4000 (  1057 PWs)   bands (ev):

   -85.1168 -45.7210 -45.5981 -45.5778  12.4229  15.3240  15.7326  15.9633
    16.9985  17.7561  28.5209  37.0452  42.1252

          k = 0.3000-0.1000 0.3000 (  1052 PWs)   bands (ev):

   -85.1267 -45.6597 -45.5863 -45.5673  10.9076  15.2291  15.9132  16.0872
    16.6219  17.2358  33.2227  37.4982  43.8509

          k = 0.2000 0.0000 0.2000 (  1037 PWs)   bands (ev):

   -85.1360 -45.6038 -45.5710 -45.5595   9.6250  15.4469  15.9263  15.9424
    16.6481  16.9408  37.8973  38.9310  44.2568

          k = 0.0000 0.4000 0.0000 (  1054 PWs)   bands (ev):

   -85.1285 -45.6304 -45.5839 -45.5839  10.5771  15.0467  16.2903  16.2999
    16.2999  17.0988  38.5702  38.5702  39.0054

          k =-0.1000 0.5000-0.1000 (  1057 PWs)   bands (ev):

   -85.1204 -45.6743 -45.5963 -45.5960  11.7297  14.7927  15.9440  16.4709
    16.8989  17.2796  33.8789  37.2135  37.9601

          k =-0.2000 0.6000-0.2000 (  1060 PWs)   bands (ev):

   -85.1118 -45.7209 -45.6132 -45.6042  13.0340  14.7177  15.6425  16.4108
    17.5457  18.0102  29.1759  35.9162  36.6920

          k = 0.7000-0.3000 0.7000 (  1067 PWs)   bands (ev):

   -85.1060 -45.7497 -45.6314 -45.6054  13.7511  14.8691  15.6212  16.2834
    17.6282  19.8598  25.2060  34.1085  37.1092

          k = 0.6000-0.2000 0.6000 (  1073 PWs)   bands (ev):

   -85.1053 -45.7505 -45.6430 -45.5992  13.8832  15.0154  15.6178  16.2125
    17.4070  20.6048  24.2896  32.8663  38.4779

          k = 0.5000-0.1000 0.5000 (  1059 PWs)   bands (ev):

   -85.1100 -45.7259 -45.6400 -45.5876  13.4951  15.1316  15.3423  16.2502
    16.9629  18.9809  27.8002  32.3343  40.6694

          k = 0.4000 0.0000 0.4000 (  1057 PWs)   bands (ev):

   -85.1181 -45.6917 -45.6183 -45.5754  12.2364  15.0323  15.6780  16.3778
    16.4902  17.9184  32.0025  32.8537  42.9120

          k = 0.0000 0.6000 0.0000 (  1046 PWs)   bands (ev):

   -85.1144 -45.6956 -45.6097 -45.6097  12.4196  14.4743  16.3274  16.9145
    16.9145  17.3253  35.1194  35.4361  35.4361

          k =-0.1000 0.7000-0.1000 (  1050 PWs)   bands (ev):

   -85.1076 -45.7261 -45.6263 -45.6193  13.1740  14.2924  16.3032  17.0044
    17.5539  18.0417  31.6603  32.7303  34.5465

          k = 0.8000-0.2000 0.8000 (  1066 PWs)   bands (ev):

   -85.1025 -45.7407 -45.6527 -45.6212  13.7561  14.3163  16.0077  16.8808
    17.6645  20.3030  27.4887  30.6221  34.6972

          k = 0.7000-0.1000 0.7000 (  1060 PWs)   bands (ev):

   -85.1011 -45.7297 -45.6819 -45.6142  14.2045  14.4587  15.6397  16.7292
    17.4661  22.9276  24.2970  29.2113  35.8948

          k = 0.6000-0.0000 0.6000 (  1069 PWs)   bands (ev):

   -85.1040 -45.7176 -45.6842 -45.6014  14.2802  14.8102  15.2055  16.5507
    17.1270  20.8737  26.7992  29.0134  37.9675

          k = 0.0000 0.8000 0.0000 (  1058 PWs)   bands (ev):

   -85.1030 -45.7478 -45.6309 -45.6309  13.2294  14.0332  17.5119  17.5125
    17.5125  18.1621  29.9326  33.2544  33.2544

          k = 0.9000-0.1000 0.9000 (  1061 PWs)   bands (ev):

   -85.0997 -45.7572 -45.6456 -45.6339  13.4117  13.9938  17.0939  17.4079
    17.7117  20.2660  28.0090  30.4805  33.0498

          k = 0.8000 0.0000 0.8000 (  1059 PWs)   bands (ev):

   -85.0990 -45.7432 -45.6721 -45.6276  13.7738  14.1761  16.3410  17.1801
    17.6026  22.5491  26.5966  27.6218  33.9916

          k = 0.0000-1.0000 0.0000 (  1034 PWs)   bands (ev):

   -85.0986 -45.7666 -45.6384 -45.6384  13.2705  13.8697  17.5842  17.7737
    17.7737  20.0720  27.0460  32.4537  32.4537

          k =-0.2000 0.4000 0.0000 (  1054 PWs)   bands (ev):

   -85.1257 -45.6543 -45.5934 -45.5748  11.0266  15.0672  15.9263  16.3163
    16.5442  17.2631  35.0968  35.7682  41.7050

          k =-0.3000 0.5000-0.1000 (  1059 PWs)   bands (ev):

   -85.1164 -45.7028 -45.6127 -45.5846  12.4582  14.9400  15.6287  16.3242
    16.9208  17.8717  30.4962  34.8300  39.3725

          k = 0.6000-0.4000 0.8000 (  1059 PWs)   bands (ev):

   -85.1089 -45.7435 -45.6241 -45.5949  13.5021  15.1309  15.4919  16.1849
    17.3765  19.0217  26.2287  34.8315  37.3626

          k = 0.5000-0.3000 0.7000 (  1060 PWs)   bands (ev):

   -85.1060 -45.7595 -45.6274 -45.5995  13.7322  15.1174  15.7637  16.1090
    17.5308  20.3361  23.7893  35.2179  36.2801

          k =-0.2000 0.6000 0.0000 (  1052 PWs)   bands (ev):

   -85.1129 -45.7050 -45.6206 -45.6029  12.7874  14.5765  15.7538  16.9142
    16.9756  17.8759  32.6859  33.2329  35.8464

          k = 0.7000-0.3000 0.9000 (  1057 PWs)   bands (ev):

   -85.1060 -45.7301 -45.6430 -45.6122  13.7196  14.5565  15.5030  16.7720
    17.4249  19.3492  28.4451  32.7039  33.6596

          k = 0.6000-0.2000 0.8000 (  1060 PWs)   bands (ev):

   -85.1025 -45.7381 -45.6620 -45.6148  14.1978  14.6035  15.4344  16.5829
    17.5422  21.7106  24.7422  31.6437  33.6211

          k = 0.5000-0.1000 0.7000 (  1068 PWs)   bands (ev):

   -85.1036 -45.7301 -45.6687 -45.6078  14.2694  14.7533  15.2159  16.5399
    17.3357  21.0447  25.8079  30.6226  34.9830

          k = 0.4000 0.0000 0.6000 (  1063 PWs)   bands (ev):

   -85.1089 -45.7180 -45.6492 -45.5954  13.6502  14.8574  15.2236  16.6085
    16.9483  19.0865  29.4880  30.7281  36.9705

          k = 0.8000-0.2000 1.0000 (  1063 PWs)   bands (ev):

   -85.1025 -45.7421 -45.6429 -45.6290  13.5280  14.1897  16.3257  17.3300
    17.5103  19.5833  30.1824  30.9280  31.7356

          k = 0.7000-0.1000 0.9000 (  1064 PWs)   bands (ev):

   -85.0996 -45.7379 -45.6686 -45.6314  13.8858  14.3109  15.9543  17.0592
    17.6640  22.1026  27.1885  28.5993  31.8282

          k = 0.6000 0.0000 0.8000 (  1064 PWs)   bands (ev):

   -85.1000 -45.7122 -45.7005 -45.6224  14.3006  14.5079  15.4374  16.7977
    17.5170  23.7603  24.8358  28.0940  33.0872

          k =-0.2000-1.0000 0.0000 (  1058 PWs)   bands (ev):

   -85.0986 -45.7551 -45.6512 -45.6394  13.5358  14.0450  16.7706  17.3559
    17.7739  21.5086  27.1697  30.2602  31.0330

          k = 0.6000-0.2000 1.0000 (  1068 PWs)   bands (ev):

   -85.1014 -45.7256 -45.6740 -45.6245  14.1781  14.6634  15.2120  16.8705
    17.5067  21.4905  27.7140  29.3855  31.3958

          k = 0.5000-0.1000 0.9000 (  1066 PWs)   bands (ev):

   -85.0996 -45.7153 -45.6923 -45.6310  14.3008  14.7990  15.0903  16.7457
    17.6494  24.0657  24.8919  29.4613  30.1468

          k =-0.4000-1.0000 0.0000 (  1060 PWs)   bands (ev):

   -85.0985 -45.7231 -45.6833 -45.6405  14.0742  14.5833  15.5032  16.8716
    17.7746  24.0567  27.0418  27.5865  29.1716

     the Fermi energy is    17.6166 ev

!    total energy              =    -339.40019025 Ry
     Harris-Foulkes estimate   =    -339.40019025 Ry
     estimated scf accuracy    <          8.8E-10 Ry

     The total energy is the sum of the following terms:

     one-electron contribution =    -186.65977064 Ry
     hartree contribution      =     104.57188520 Ry
     xc contribution           =     -33.92738801 Ry
     ewald contribution        =    -223.38275369 Ry
     smearing contrib. (-TS)   =      -0.00216311 Ry

     convergence has been achieved in   7 iterations

     Forces acting on atoms (cartesian axes, Ry/au):

     atom    1 type  1   force =     0.00000000    0.00000000    0.00000000

     Total force =     0.000000     Total SCF correction =     0.000000


     Computing stress (Cartesian axis) and pressure

          total   stress  (Ry/bohr**3)                   (kbar)     P= -128.22
  -0.00087159  -0.00000000  -0.00000000       -128.22     -0.00     -0.00
  -0.00000000  -0.00087159   0.00000000         -0.00   -128.22      0.00
  -0.00000000   0.00000000  -0.00087159         -0.00      0.00   -128.22


     Writing output data file Ni.save/

     init_run     :      0.40s CPU      0.42s WALL (       1 calls)
     electrons    :      6.89s CPU      7.12s WALL (       1 calls)
     forces       :      0.10s CPU      0.10s WALL (       1 calls)
     stress       :      0.28s CPU      0.29s WALL (       1 calls)

     Called by init_run:
     wfcinit      :      0.21s CPU      0.22s WALL (       1 calls)
     potinit      :      0.01s CPU      0.01s WALL (       1 calls)
     hinit0       :      0.17s CPU      0.18s WALL (       1 calls)

     Called by electrons:
     c_bands      :      5.84s CPU      6.03s WALL (       8 calls)
     sum_band     :      0.91s CPU      0.95s WALL (       8 calls)
     v_of_rho     :      0.06s CPU      0.06s WALL (       8 calls)
     newd         :      0.07s CPU      0.08s WALL (       8 calls)
     mix_rho      :      0.01s CPU      0.01s WALL (       8 calls)

     Called by c_bands:
     init_us_2    :      0.13s CPU      0.14s WALL (     893 calls)
     cegterg      :      5.63s CPU      5.82s WALL (     376 calls)

     Called by sum_band:
     sum_band:bec :      0.00s CPU      0.00s WALL (     376 calls)
     addusdens    :      0.07s CPU      0.07s WALL (       8 calls)

     Called by *egterg:
     h_psi        :      4.34s CPU      4.48s WALL (    1279 calls)
     s_psi        :      0.12s CPU      0.12s WALL (    1279 calls)
     g_psi        :      0.01s CPU      0.01s WALL (     856 calls)
     cdiaghg      :      0.52s CPU      0.54s WALL (    1185 calls)

     Called by h_psi:
     h_psi:pot    :      4.32s CPU      4.46s WALL (    1279 calls)
     h_psi:calbec :      0.21s CPU      0.22s WALL (    1279 calls)
     vloc_psi     :      3.96s CPU      4.10s WALL (    1279 calls)
     add_vuspsi   :      0.13s CPU      0.13s WALL (    1279 calls)

     General routines
     calbec       :      0.32s CPU      0.33s WALL (    1890 calls)
     fft          :      0.04s CPU      0.04s WALL (     115 calls)
     ffts         :      0.00s CPU      0.00s WALL (       8 calls)
     fftw         :      4.38s CPU      4.54s WALL (   29796 calls)

     Parallel routines
     fft_scatt_xy :      0.35s CPU      0.36s WALL (   29919 calls)
     fft_scatt_yz :      1.42s CPU      1.46s WALL (   29919 calls)

     PWSCF        :     8.51s CPU         8.82s WALL


   This run was terminated on:  23: 0:35  26Mar2024            

=------------------------------------------------------------------------------=
   JOB DONE.
=------------------------------------------------------------------------------=
