
     Program PWSCF v.6.3MaX starts on 26Mar2024 at 23: 2:39 

     This program is part of the open-source Quantum ESPRESSO suite
     for quantum simulation of materials; please cite
         "P. Giannozzi et al., J. Phys.:Condens. Matter 21 395502 (2009);
         "P. Giannozzi et al., J. Phys.:Condens. Matter 29 465901 (2017);
          URL http://www.quantum-espresso.org", 
     in publications or presentations arising from this work. More details at
     http://www.quantum-espresso.org/quote

     Parallel version (MPI), running on     5 processors

     MPI processes distributed on     1 nodes
     R & G space division:  proc/nbgrp/npool/nimage =       5
     Waiting for input...
     Reading input from standard input

     Current dimensions of program PWSCF are:
     Max number of different atomic species (ntypx) = 10
     Max number of k-points (npk) =  40000
     Max angular momentum in pseudopotentials (lmaxx) =  3

     Subspace diagonalization in iterative solution of the eigenvalue problem:
     a serial algorithm will be used


     Parallelization info
     --------------------
     sticks:   dense  smooth     PW     G-vecs:    dense   smooth      PW
     Min         111     111     32                 1688     1688     290
     Max         112     112     33                 1689     1689     293
     Sum         559     559    163                 8441     8441    1459



     bravais-lattice index     =            2
     lattice parameter (alat)  =       6.6500  a.u.
     unit-cell volume          =      73.5199 (a.u.)^3
     number of atoms/cell      =            1
     number of atomic types    =            1
     number of electrons       =        18.00
     number of Kohn-Sham states=           13
     kinetic-energy cutoff     =      90.0000  Ry
     charge density cutoff     =     360.0000  Ry
     convergence threshold     =      1.0E-08
     mixing beta               =       0.7000
     number of iterations used =            8  plain     mixing
     Exchange-correlation      = PBESOL ( 1  4 10  8 0 0)

     celldm(1)=   6.650000  celldm(2)=   0.000000  celldm(3)=   0.000000
     celldm(4)=   0.000000  celldm(5)=   0.000000  celldm(6)=   0.000000

     crystal axes: (cart. coord. in units of alat)
               a(1) = (  -0.500000   0.000000   0.500000 )  
               a(2) = (   0.000000   0.500000   0.500000 )  
               a(3) = (  -0.500000   0.500000   0.000000 )  

     reciprocal axes: (cart. coord. in units 2 pi/alat)
               b(1) = ( -1.000000 -1.000000  1.000000 )  
               b(2) = (  1.000000  1.000000  1.000000 )  
               b(3) = ( -1.000000  1.000000 -1.000000 )  


     PseudoPot. # 1 for Ni read from file:
     /home/lorenzo/pseudos/Ni/Ni.pbesol-spn-rrkjus_psl.1.0.0.UPF
     MD5 check sum: 6fc0a587bf949a08f2faed986b854013
     Pseudo is Ultrasoft + core correction, Zval = 18.0
     Generated using "atomic" code by A. Dal Corso v.6.3
     Using radial grid of 1195 points,  6 beta functions with: 
                l(1) =   0
                l(2) =   0
                l(3) =   1
                l(4) =   1
                l(5) =   2
                l(6) =   2
     Q(r) pseudized with 0 coefficients 


     atomic species   valence    mass     pseudopotential
        Ni            18.00    58.69340     Ni( 1.00)

     48 Sym. Ops., with inversion, found



   Cartesian axes

     site n.     atom                  positions (alat units)
         1           Ni  tau(   1) = (   0.0000000   0.0000000   0.0000000  )

     number of k points=    20  gaussian smearing, width (Ry)=  0.0100
                       cart. coord. in units 2pi/alat
        k(    1) = (   0.0000000   0.0000000   0.0000000), wk =   0.0058309
        k(    2) = (  -0.1428571   0.1428571  -0.1428571), wk =   0.0466472
        k(    3) = (  -0.2857143   0.2857143  -0.2857143), wk =   0.0466472
        k(    4) = (  -0.4285714   0.4285714  -0.4285714), wk =   0.0466472
        k(    5) = (   0.0000000   0.2857143   0.0000000), wk =   0.0349854
        k(    6) = (  -0.1428571   0.4285714  -0.1428571), wk =   0.1399417
        k(    7) = (  -0.2857143   0.5714286  -0.2857143), wk =   0.1399417
        k(    8) = (   0.5714286  -0.2857143   0.5714286), wk =   0.1399417
        k(    9) = (   0.4285714  -0.1428571   0.4285714), wk =   0.1399417
        k(   10) = (   0.2857143  -0.0000000   0.2857143), wk =   0.0699708
        k(   11) = (   0.0000000   0.5714286   0.0000000), wk =   0.0349854
        k(   12) = (  -0.1428571   0.7142857  -0.1428571), wk =   0.1399417
        k(   13) = (   0.7142857  -0.1428571   0.7142857), wk =   0.1399417
        k(   14) = (   0.5714286   0.0000000   0.5714286), wk =   0.0699708
        k(   15) = (   0.0000000   0.8571429   0.0000000), wk =   0.0349854
        k(   16) = (   0.8571429  -0.0000000   0.8571429), wk =   0.0699708
        k(   17) = (  -0.2857143   0.5714286   0.0000000), wk =   0.1399417
        k(   18) = (   0.5714286  -0.2857143   0.8571429), wk =   0.2798834
        k(   19) = (   0.7142857  -0.1428571   1.0000000), wk =   0.1399417
        k(   20) = (   0.5714286   0.0000000   0.8571429), wk =   0.1399417

     Dense  grid:     8441 G-vectors     FFT dimensions: (  30,  30,  30)

     Estimated max dynamical RAM per process >       8.80 MB

     Estimated total dynamical RAM >      44.01 MB

     Check: negative/imaginary core charge=   -0.000002    0.000000

     Initial potential from superposition of free atoms

     starting charge   17.99977, renormalised to   18.00000
     Starting wfcs are   10 randomized atomic wfcs +    3 random wfcs

     total cpu time spent up to now is        1.0 secs

     Self-consistent Calculation

     iteration #  1     ecut=    90.00 Ry     beta= 0.70
     Davidson diagonalization with overlap
     ethr =  1.00E-02,  avg # of iterations =  3.5

     Threshold (ethr) on eigenvalues was too large:
     Diagonalizing with lowered threshold

     Davidson diagonalization with overlap
     ethr =  1.27E-05,  avg # of iterations =  3.6

     total cpu time spent up to now is        1.7 secs

     total energy              =    -339.40032883 Ry
     Harris-Foulkes estimate   =    -339.40142926 Ry
     estimated scf accuracy    <       0.00223999 Ry

     iteration #  2     ecut=    90.00 Ry     beta= 0.70
     Davidson diagonalization with overlap
     ethr =  1.24E-05,  avg # of iterations =  2.1

     total cpu time spent up to now is        2.0 secs

     total energy              =    -339.39988252 Ry
     Harris-Foulkes estimate   =    -339.40158966 Ry
     estimated scf accuracy    <       0.00393438 Ry

     iteration #  3     ecut=    90.00 Ry     beta= 0.70
     Davidson diagonalization with overlap
     ethr =  1.24E-05,  avg # of iterations =  2.1

     total cpu time spent up to now is        2.3 secs

     total energy              =    -339.40077217 Ry
     Harris-Foulkes estimate   =    -339.40092843 Ry
     estimated scf accuracy    <       0.00046762 Ry

     iteration #  4     ecut=    90.00 Ry     beta= 0.70
     Davidson diagonalization with overlap
     ethr =  2.60E-06,  avg # of iterations =  1.6

     total cpu time spent up to now is        2.5 secs

     total energy              =    -339.40084111 Ry
     Harris-Foulkes estimate   =    -339.40084094 Ry
     estimated scf accuracy    <       0.00000026 Ry

     iteration #  5     ecut=    90.00 Ry     beta= 0.70
     Davidson diagonalization with overlap
     ethr =  1.44E-09,  avg # of iterations =  3.5

     total cpu time spent up to now is        2.9 secs

     total energy              =    -339.40084272 Ry
     Harris-Foulkes estimate   =    -339.40084279 Ry
     estimated scf accuracy    <       0.00000020 Ry

     iteration #  6     ecut=    90.00 Ry     beta= 0.70
     Davidson diagonalization with overlap
     ethr =  1.09E-09,  avg # of iterations =  1.0

     total cpu time spent up to now is        3.1 secs

     total energy              =    -339.40084272 Ry
     Harris-Foulkes estimate   =    -339.40084273 Ry
     estimated scf accuracy    <       0.00000003 Ry

     iteration #  7     ecut=    90.00 Ry     beta= 0.70
     Davidson diagonalization with overlap
     ethr =  1.60E-10,  avg # of iterations =  1.4

     total cpu time spent up to now is        3.4 secs

     End of self-consistent calculation

          k = 0.0000 0.0000 0.0000 (  1067 PWs)   bands (ev):

   -85.1418 -45.5528 -45.5528 -45.5528   8.6046  15.7275  15.7275  15.7275
    16.8542  16.8542  41.2791  45.2004  45.2004

          k =-0.1429 0.1429-0.1429 (  1052 PWs)   bands (ev):

   -85.1353 -45.5949 -45.5587 -45.5587   9.3898  15.5304  15.8775  15.8775
    16.8077  16.8077  37.5418  42.2016  43.9262

          k =-0.2857 0.2857-0.2857 (  1056 PWs)   bands (ev):

   -85.1207 -45.6905 -45.5722 -45.5722  11.4307  15.3562  15.9027  15.9027
    17.0606  17.0606  30.4353  41.0475  42.7893

          k =-0.4286 0.4286-0.4286 (  1050 PWs)   bands (ev):

   -85.1090 -45.7655 -45.5832 -45.5832  12.9717  15.7194  15.7194  16.6793
    17.5182  17.5182  24.7276  39.9474  42.3592

          k = 0.0000 0.2857 0.0000 (  1054 PWs)   bands (ev):

   -85.1332 -45.5936 -45.5684 -45.5684   9.6464  15.3514  16.0273  16.0273
    16.5212  16.9887  39.7427  40.6312  40.6313

          k =-0.1429 0.4286-0.1429 (  1065 PWs)   bands (ev):

   -85.1213 -45.6642 -45.5845 -45.5819  11.2788  15.0160  15.9214  16.2233
    16.8310  17.2145  33.2252  38.6730  39.3493

          k =-0.2857 0.5714-0.2857 (  1064 PWs)   bands (ev):

   -85.1086 -45.7397 -45.6017 -45.5945  13.1558  15.1649  15.6244  16.0845
    17.5788  18.2398  26.7442  37.3285  38.2601

          k = 0.5714-0.2857 0.5714 (  1066 PWs)   bands (ev):

   -85.1047 -45.7619 -45.6152 -45.5914  13.5375  15.3164  15.9470  15.9732
    17.4921  19.6788  23.8945  35.5312  39.6542

          k = 0.4286-0.1429 0.4286 (  1054 PWs)   bands (ev):

   -85.1125 -45.7157 -45.6105 -45.5770  12.6959  15.1866  15.6273  16.0931
    16.9008  18.0888  28.7750  34.9787  42.0845

          k = 0.2857-0.0000 0.2857 (  1053 PWs)   bands (ev):

   -85.1262 -45.6412 -45.5856 -45.5626  10.6169  15.2409  15.9309  16.1495
    16.5084  17.2024  35.3306  36.1001  45.2859

          k = 0.0000 0.5714 0.0000 (  1046 PWs)   bands (ev):

   -85.1138 -45.6841 -45.6037 -45.6037  12.1851  14.5532  16.2443  16.8223
    16.8223  17.2969  35.8359  35.8359  35.8821

          k =-0.1429 0.7143-0.1429 (  1054 PWs)   bands (ev):

   -85.1039 -45.7282 -45.6298 -45.6161  13.3768  14.3333  16.0775  16.8920
    17.6172  18.5946  30.0752  32.4884  34.7543

          k = 0.7143-0.1429 0.7143 (  1065 PWs)   bands (ev):

   -85.0990 -45.7340 -45.6689 -45.6123  14.1201  14.4711  15.6835  16.6944
    17.5409  22.2268  24.6385  29.9858  35.7805

          k = 0.5714 0.0000 0.5714 (  1073 PWs)   bands (ev):

   -85.1029 -45.7171 -45.6722 -45.5950  14.1492  14.9539  15.1258  16.4939
    17.0419  20.2570  27.4880  29.4076  38.6768

          k = 0.0000 0.8571 0.0000 (  1066 PWs)   bands (ev):

   -85.0983 -45.7551 -45.6324 -45.6324  13.2657  13.9546  17.5502  17.6366
    17.6366  18.9185  28.6899  32.8680  32.8680

          k = 0.8571-0.0000 0.8571 (  1059 PWs)   bands (ev):

   -85.0961 -45.7524 -45.6547 -45.6305  13.5451  14.0378  16.8262  17.3640
    17.6868  21.5532  27.1412  28.8839  33.2573

          k =-0.2857 0.5714 0.0000 (  1052 PWs)   bands (ev):

   -85.1104 -45.7040 -45.6247 -45.5917  12.9206  14.7354  15.5235  16.7662
    16.8321  18.1852  31.5767  32.3805  37.0825

          k = 0.5714-0.2857 0.8571 (  1064 PWs)   bands (ev):

   -85.1017 -45.7343 -45.6526 -45.6066  14.1058  14.7647  15.2914  16.5271
    17.4307  20.5988  25.8261  32.2146  34.1235

          k = 0.7143-0.1429 1.0000 (  1059 PWs)   bands (ev):

   -85.0978 -45.7372 -45.6560 -45.6308  13.8012  14.2946  15.9766  17.1612
    17.6342  21.1675  29.1642  29.2156  30.4926

          k = 0.5714 0.0000 0.8571 (  1067 PWs)   bands (ev):

   -85.0968 -45.7096 -45.6960 -45.6274  14.2511  14.6272  15.3314  16.7986
    17.6313  24.4163  24.8576  28.0693  31.3761

     the Fermi energy is    17.6219 ev

!    total energy              =    -339.40084272 Ry
     Harris-Foulkes estimate   =    -339.40084272 Ry
     estimated scf accuracy    <          9.0E-10 Ry

     The total energy is the sum of the following terms:

     one-electron contribution =    -186.66220354 Ry
     hartree contribution      =     104.57458525 Ry
     xc contribution           =     -33.92780911 Ry
     ewald contribution        =    -223.38275369 Ry
     smearing contrib. (-TS)   =      -0.00266163 Ry

     convergence has been achieved in   7 iterations

     Forces acting on atoms (cartesian axes, Ry/au):

     atom    1 type  1   force =     0.00000000    0.00000000    0.00000000

     Total force =     0.000000     Total SCF correction =     0.000000


     Computing stress (Cartesian axis) and pressure

          total   stress  (Ry/bohr**3)                   (kbar)     P= -128.04
  -0.00087041   0.00000000   0.00000000       -128.04      0.00      0.00
   0.00000000  -0.00087041  -0.00000000          0.00   -128.04     -0.00
   0.00000000  -0.00000000  -0.00087041          0.00     -0.00   -128.04


     Writing output data file Ni.save/

     init_run     :      0.27s CPU      0.28s WALL (       1 calls)
     electrons    :      2.28s CPU      2.39s WALL (       1 calls)
     forces       :      0.04s CPU      0.04s WALL (       1 calls)
     stress       :      0.13s CPU      0.13s WALL (       1 calls)

     Called by init_run:
     wfcinit      :      0.08s CPU      0.09s WALL (       1 calls)
     potinit      :      0.01s CPU      0.01s WALL (       1 calls)
     hinit0       :      0.17s CPU      0.17s WALL (       1 calls)

     Called by electrons:
     c_bands      :      1.81s CPU      1.90s WALL (       8 calls)
     sum_band     :      0.37s CPU      0.39s WALL (       8 calls)
     v_of_rho     :      0.04s CPU      0.04s WALL (       8 calls)
     newd         :      0.06s CPU      0.07s WALL (       8 calls)
     mix_rho      :      0.00s CPU      0.00s WALL (       8 calls)

     Called by c_bands:
     init_us_2    :      0.05s CPU      0.05s WALL (     380 calls)
     cegterg      :      1.74s CPU      1.82s WALL (     160 calls)

     Called by sum_band:
     sum_band:bec :      0.00s CPU      0.00s WALL (     160 calls)
     addusdens    :      0.07s CPU      0.07s WALL (       8 calls)

     Called by *egterg:
     h_psi        :      1.33s CPU      1.40s WALL (     557 calls)
     s_psi        :      0.04s CPU      0.04s WALL (     557 calls)
     g_psi        :      0.00s CPU      0.00s WALL (     377 calls)
     cdiaghg      :      0.18s CPU      0.19s WALL (     517 calls)

     Called by h_psi:
     h_psi:pot    :      1.33s CPU      1.40s WALL (     557 calls)
     h_psi:calbec :      0.06s CPU      0.06s WALL (     557 calls)
     vloc_psi     :      1.22s CPU      1.28s WALL (     557 calls)
     add_vuspsi   :      0.04s CPU      0.05s WALL (     557 calls)

     General routines
     calbec       :      0.09s CPU      0.09s WALL (     817 calls)
     fft          :      0.02s CPU      0.03s WALL (     115 calls)
     ffts         :      0.00s CPU      0.00s WALL (       8 calls)
     fftw         :      1.37s CPU      1.44s WALL (   12712 calls)

     Parallel routines
     fft_scatt_xy :      0.12s CPU      0.13s WALL (   12835 calls)
     fft_scatt_yz :      0.33s CPU      0.35s WALL (   12835 calls)

     PWSCF        :     3.47s CPU         3.63s WALL


   This run was terminated on:  23: 2:43  26Mar2024            

=------------------------------------------------------------------------------=
   JOB DONE.
=------------------------------------------------------------------------------=
