
     Program PWSCF v.6.3MaX starts on 26Mar2024 at 22:25:54 

     This program is part of the open-source Quantum ESPRESSO suite
     for quantum simulation of materials; please cite
         "P. Giannozzi et al., J. Phys.:Condens. Matter 21 395502 (2009);
         "P. Giannozzi et al., J. Phys.:Condens. Matter 29 465901 (2017);
          URL http://www.quantum-espresso.org", 
     in publications or presentations arising from this work. More details at
     http://www.quantum-espresso.org/quote

     Parallel version (MPI), running on     5 processors

     MPI processes distributed on     1 nodes
     R & G space division:  proc/nbgrp/npool/nimage =       5
     Waiting for input...
     Reading input from standard input

     Current dimensions of program PWSCF are:
     Max number of different atomic species (ntypx) = 10
     Max number of k-points (npk) =  40000
     Max angular momentum in pseudopotentials (lmaxx) =  3
               file Ni.pbesol-spn-kjpaw_psl.1.0.0.UPF: wavefunction(s)  3P 3D renormalized

     Subspace diagonalization in iterative solution of the eigenvalue problem:
     a serial algorithm will be used


     Parallelization info
     --------------------
     sticks:   dense  smooth     PW     G-vecs:    dense   smooth      PW
     Min          24      24     11                  178      178      51
     Max          25      25     11                  181      181      52
     Sum         121     121     55                  893      893     259



     bravais-lattice index     =            2
     lattice parameter (alat)  =       6.6500  a.u.
     unit-cell volume          =      73.5199 (a.u.)^3
     number of atoms/cell      =            1
     number of atomic types    =            1
     number of electrons       =        18.00
     number of Kohn-Sham states=           13
     kinetic-energy cutoff     =      20.0000  Ry
     charge density cutoff     =      80.0000  Ry
     convergence threshold     =      1.0E-08
     mixing beta               =       0.7000
     number of iterations used =            8  plain     mixing
     Exchange-correlation      = SLA PW PSX PSC ( 1  4 10  8 0 0)

     celldm(1)=   6.650000  celldm(2)=   0.000000  celldm(3)=   0.000000
     celldm(4)=   0.000000  celldm(5)=   0.000000  celldm(6)=   0.000000

     crystal axes: (cart. coord. in units of alat)
               a(1) = (  -0.500000   0.000000   0.500000 )  
               a(2) = (   0.000000   0.500000   0.500000 )  
               a(3) = (  -0.500000   0.500000   0.000000 )  

     reciprocal axes: (cart. coord. in units 2 pi/alat)
               b(1) = ( -1.000000 -1.000000  1.000000 )  
               b(2) = (  1.000000  1.000000  1.000000 )  
               b(3) = ( -1.000000  1.000000 -1.000000 )  


     PseudoPot. # 1 for Ni read from file:
     /home/lorenzo/pseudos/Ni/Ni.pbesol-spn-kjpaw_psl.1.0.0.UPF
     MD5 check sum: ef06ee83099c2673f0516457bd731f51
     Pseudo is Projector augmented-wave + core cor, Zval = 18.0
     Generated using "atomic" code by A. Dal Corso v.6.3
     Shape of augmentation charge: PSQ
     Using radial grid of 1195 points,  6 beta functions with: 
                l(1) =   0
                l(2) =   0
                l(3) =   1
                l(4) =   1
                l(5) =   2
                l(6) =   2
     Q(r) pseudized with 0 coefficients 


     atomic species   valence    mass     pseudopotential
        Ni            18.00    58.69340     Ni( 1.00)

     48 Sym. Ops., with inversion, found



   Cartesian axes

     site n.     atom                  positions (alat units)
         1           Ni  tau(   1) = (   0.0000000   0.0000000   0.0000000  )

     number of k points=    56  gaussian smearing, width (Ry)=  0.0100
                       cart. coord. in units 2pi/alat
        k(    1) = (   0.0000000   0.0000000   0.0000000), wk =   0.0015026
        k(    2) = (  -0.0909091   0.0909091  -0.0909091), wk =   0.0120210
        k(    3) = (  -0.1818182   0.1818182  -0.1818182), wk =   0.0120210
        k(    4) = (  -0.2727273   0.2727273  -0.2727273), wk =   0.0120210
        k(    5) = (  -0.3636364   0.3636364  -0.3636364), wk =   0.0120210
        k(    6) = (  -0.4545455   0.4545455  -0.4545455), wk =   0.0120210
        k(    7) = (   0.0000000   0.1818182   0.0000000), wk =   0.0090158
        k(    8) = (  -0.0909091   0.2727273  -0.0909091), wk =   0.0360631
        k(    9) = (  -0.1818182   0.3636364  -0.1818182), wk =   0.0360631
        k(   10) = (  -0.2727273   0.4545455  -0.2727273), wk =   0.0360631
        k(   11) = (  -0.3636364   0.5454545  -0.3636364), wk =   0.0360631
        k(   12) = (   0.5454545  -0.3636364   0.5454545), wk =   0.0360631
        k(   13) = (   0.4545455  -0.2727273   0.4545455), wk =   0.0360631
        k(   14) = (   0.3636364  -0.1818182   0.3636364), wk =   0.0360631
        k(   15) = (   0.2727273  -0.0909091   0.2727273), wk =   0.0360631
        k(   16) = (   0.1818182  -0.0000000   0.1818182), wk =   0.0180316
        k(   17) = (   0.0000000   0.3636364   0.0000000), wk =   0.0090158
        k(   18) = (  -0.0909091   0.4545455  -0.0909091), wk =   0.0360631
        k(   19) = (  -0.1818182   0.5454545  -0.1818182), wk =   0.0360631
        k(   20) = (  -0.2727273   0.6363636  -0.2727273), wk =   0.0360631
        k(   21) = (   0.6363636  -0.2727273   0.6363636), wk =   0.0360631
        k(   22) = (   0.5454545  -0.1818182   0.5454545), wk =   0.0360631
        k(   23) = (   0.4545455  -0.0909091   0.4545455), wk =   0.0360631
        k(   24) = (   0.3636364   0.0000000   0.3636364), wk =   0.0180316
        k(   25) = (   0.0000000   0.5454545   0.0000000), wk =   0.0090158
        k(   26) = (  -0.0909091   0.6363636  -0.0909091), wk =   0.0360631
        k(   27) = (  -0.1818182   0.7272727  -0.1818182), wk =   0.0360631
        k(   28) = (   0.7272727  -0.1818182   0.7272727), wk =   0.0360631
        k(   29) = (   0.6363636  -0.0909091   0.6363636), wk =   0.0360631
        k(   30) = (   0.5454545   0.0000000   0.5454545), wk =   0.0180316
        k(   31) = (   0.0000000   0.7272727   0.0000000), wk =   0.0090158
        k(   32) = (  -0.0909091   0.8181818  -0.0909091), wk =   0.0360631
        k(   33) = (   0.8181818  -0.0909091   0.8181818), wk =   0.0360631
        k(   34) = (   0.7272727   0.0000000   0.7272727), wk =   0.0180316
        k(   35) = (   0.0000000   0.9090909   0.0000000), wk =   0.0090158
        k(   36) = (   0.9090909  -0.0000000   0.9090909), wk =   0.0180316
        k(   37) = (  -0.1818182   0.3636364   0.0000000), wk =   0.0360631
        k(   38) = (  -0.2727273   0.4545455  -0.0909091), wk =   0.0721262
        k(   39) = (  -0.3636364   0.5454545  -0.1818182), wk =   0.0721262
        k(   40) = (   0.5454545  -0.3636364   0.7272727), wk =   0.0721262
        k(   41) = (  -0.1818182   0.5454545   0.0000000), wk =   0.0360631
        k(   42) = (  -0.2727273   0.6363636  -0.0909091), wk =   0.0721262
        k(   43) = (   0.6363636  -0.2727273   0.8181818), wk =   0.0721262
        k(   44) = (   0.5454545  -0.1818182   0.7272727), wk =   0.0721262
        k(   45) = (   0.4545455  -0.0909091   0.6363636), wk =   0.0721262
        k(   46) = (   0.3636364   0.0000000   0.5454545), wk =   0.0360631
        k(   47) = (  -0.1818182   0.7272727   0.0000000), wk =   0.0360631
        k(   48) = (   0.7272727  -0.1818182   0.9090909), wk =   0.0721262
        k(   49) = (   0.6363636  -0.0909091   0.8181818), wk =   0.0721262
        k(   50) = (   0.5454545   0.0000000   0.7272727), wk =   0.0360631
        k(   51) = (   0.8181818  -0.0909091   1.0000000), wk =   0.0360631
        k(   52) = (   0.7272727   0.0000000   0.9090909), wk =   0.0360631
        k(   53) = (   0.6363636  -0.2727273   1.0000000), wk =   0.0360631
        k(   54) = (   0.5454545  -0.1818182   0.9090909), wk =   0.0721262
        k(   55) = (   0.6363636  -0.0909091   1.0000000), wk =   0.0360631
        k(   56) = (   0.5454545   0.0000000   0.9090909), wk =   0.0360631

     Dense  grid:      893 G-vectors     FFT dimensions: (  15,  15,  15)

     Estimated max dynamical RAM per process >       1.69 MB

     Estimated total dynamical RAM >       8.46 MB

     Check: negative/imaginary core charge=   -0.000642    0.000000

     Initial potential from superposition of free atoms
     Check: negative starting charge=   -0.021453

     starting charge   17.99977, renormalised to   18.00000

     negative rho (up, down):  2.145E-02 0.000E+00
     Starting wfcs are   10 randomized atomic wfcs +    3 random wfcs
     Checking if some PAW data can be deallocated... 

     total cpu time spent up to now is        1.2 secs

     Self-consistent Calculation

     iteration #  1     ecut=    20.00 Ry     beta= 0.70
     Davidson diagonalization with overlap
     ethr =  1.00E-02,  avg # of iterations =  3.4

     total cpu time spent up to now is        1.6 secs

     total energy              =    -384.13485869 Ry
     Harris-Foulkes estimate   =    -407.32004966 Ry
     estimated scf accuracy    <      27.07582680 Ry

     iteration #  2     ecut=    20.00 Ry     beta= 0.70
     Davidson diagonalization with overlap
     ethr =  1.00E-02,  avg # of iterations =  3.0

     total cpu time spent up to now is        2.1 secs

     total energy              =    -393.57306925 Ry
     Harris-Foulkes estimate   =    -400.21414745 Ry
     estimated scf accuracy    <      11.91732913 Ry

     iteration #  3     ecut=    20.00 Ry     beta= 0.70
     Davidson diagonalization with overlap
     ethr =  1.00E-02,  avg # of iterations =  2.1

     total cpu time spent up to now is        2.4 secs

     total energy              =    -395.08538571 Ry
     Harris-Foulkes estimate   =    -395.25276139 Ry
     estimated scf accuracy    <       0.25440168 Ry

     iteration #  4     ecut=    20.00 Ry     beta= 0.70
     Davidson diagonalization with overlap
     ethr =  1.41E-03,  avg # of iterations =  2.0

     total cpu time spent up to now is        2.7 secs

     total energy              =    -395.13409449 Ry
     Harris-Foulkes estimate   =    -395.16969658 Ry
     estimated scf accuracy    <       0.08121703 Ry

     iteration #  5     ecut=    20.00 Ry     beta= 0.70
     Davidson diagonalization with overlap
     ethr =  4.51E-04,  avg # of iterations =  1.2

     total cpu time spent up to now is        3.0 secs

     total energy              =    -395.14194787 Ry
     Harris-Foulkes estimate   =    -395.14342007 Ry
     estimated scf accuracy    <       0.00284458 Ry

     iteration #  6     ecut=    20.00 Ry     beta= 0.70
     Davidson diagonalization with overlap
     ethr =  1.58E-05,  avg # of iterations =  1.9

     total cpu time spent up to now is        3.3 secs

     total energy              =    -395.14255746 Ry
     Harris-Foulkes estimate   =    -395.14260355 Ry
     estimated scf accuracy    <       0.00008583 Ry

     iteration #  7     ecut=    20.00 Ry     beta= 0.70
     Davidson diagonalization with overlap
     ethr =  4.77E-07,  avg # of iterations =  1.8

     total cpu time spent up to now is        3.6 secs

     total energy              =    -395.14257591 Ry
     Harris-Foulkes estimate   =    -395.14257614 Ry
     estimated scf accuracy    <       0.00000035 Ry

     iteration #  8     ecut=    20.00 Ry     beta= 0.70
     Davidson diagonalization with overlap
     ethr =  1.96E-09,  avg # of iterations =  2.1

     total cpu time spent up to now is        3.9 secs

     total energy              =    -395.14257602 Ry
     Harris-Foulkes estimate   =    -395.14257606 Ry
     estimated scf accuracy    <       0.00000007 Ry

     iteration #  9     ecut=    20.00 Ry     beta= 0.70
     Davidson diagonalization with overlap
     ethr =  4.13E-10,  avg # of iterations =  1.5

     total cpu time spent up to now is        4.1 secs

     End of self-consistent calculation

          k = 0.0000 0.0000 0.0000 (   113 PWs)   bands (ev):

  -125.9781 -52.4394 -52.4394 -52.4394  10.5853  19.6265  19.6265  19.6265
    20.1113  20.1113  47.4517  47.7699  47.7700

          k =-0.0909 0.0909-0.0909 (   113 PWs)   bands (ev):

  -125.9395 -52.5110 -52.3754 -52.3754  10.8663  19.5019  19.7116  19.7116
    20.1529  20.1529  41.8549  45.3644  46.1557

          k =-0.1818 0.1818-0.1818 (   116 PWs)   bands (ev):

  -126.1131 -57.1498 -52.4989 -52.4989  11.5107  12.3808  18.2184  18.2184
    20.0275  20.0275  35.7073  45.0715  45.0715

          k =-0.2727 0.2727-0.2727 (   114 PWs)   bands (ev):

  -125.9870 -54.5231 -54.5231 -50.0691  12.8036  15.1056  15.1056  20.8751
    23.5537  23.5537  31.1545  42.7906  42.7906

          k =-0.3636 0.3636-0.3636 (   114 PWs)   bands (ev):

  -126.0805 -54.5349 -54.5349 -50.7725  14.2480  15.1434  15.1434  21.4954
    23.3441  23.3441  27.3129  42.7094  42.7094

          k =-0.4545 0.4545-0.4545 (   108 PWs)   bands (ev):

  -125.6048 -49.9779 -49.9779 -49.0720  17.0312  20.4157  21.3723  21.3723
    26.6517  27.5877  27.5877  44.4455  44.4455

          k = 0.0000 0.1818 0.0000 (   113 PWs)   bands (ev):

  -125.9266 -52.5305 -52.3561 -52.3561  10.9597  19.6374  19.6545  19.6545
    20.0806  20.2472  42.1192  44.6711  44.6711

          k =-0.0909 0.2727-0.0909 (   116 PWs)   bands (ev):

  -126.1098 -55.5606 -53.3845 -52.8747  11.6801  12.0369  16.0506  18.9920
    19.9111  21.9900  37.3491  42.1140  42.7799

          k =-0.1818 0.3636-0.1818 (   114 PWs)   bands (ev):

  -125.9367 -54.5953 -53.2288 -50.6964  12.7126  13.7945  16.2084  18.3002
    22.6005  26.4063  33.7021  40.6509  41.5474

          k =-0.2727 0.4545-0.2727 (   109 PWs)   bands (ev):

  -125.6431 -52.8906 -49.2131 -48.7667  14.0063  18.3197  20.0231  23.7027
    27.0818  27.6030  29.6020  40.5796  41.2397

          k =-0.3636 0.5455-0.3636 (   114 PWs)   bands (ev):

  -126.1219 -54.6239 -54.2923 -51.0285  14.8179  15.4491  16.3523  20.7095
    22.8972  22.9466  26.5374  39.7314  40.4867

          k = 0.5455-0.3636 0.5455 (   112 PWs)   bands (ev):

  -125.9599 -54.3330 -51.6143 -50.3446  16.2526  16.6509  18.7488  20.0674
    23.1407  25.6756  26.3721  39.1808  41.9066

          k = 0.4545-0.2727 0.4545 (   111 PWs)   bands (ev):

  -125.8276 -53.0936 -52.0602 -49.2925  15.3453  16.4919  19.3287  21.4705
    24.0329  26.0447  28.9771  38.5473  44.2827

          k = 0.3636-0.1818 0.3636 (   109 PWs)   bands (ev):

  -125.5784 -51.7534 -50.6047 -47.9932  13.9073  16.7913  21.8553  22.2538
    26.2571  29.4338  30.4164  38.5924  45.0903

          k = 0.2727-0.0909 0.2727 (   113 PWs)   bands (ev):

  -125.8468 -54.0198 -51.5861 -51.0279  12.3829  13.0341  19.1528  19.1882
    24.1131  25.4065  34.6923  39.2934  46.9919

          k = 0.1818-0.0000 0.1818 (   117 PWs)   bands (ev):

  -126.2237 -57.4249 -53.4930 -52.8773  11.2781  13.8680  14.4306  17.0524
    19.1737  20.1996  39.0387  40.5004  46.4013

          k = 0.0000 0.3636 0.0000 (   113 PWs)   bands (ev):

  -125.8290 -52.7088 -52.7088 -50.9955  12.2479  17.8214  17.8214  18.3028
    21.0531  24.9711  39.8716  40.9819  40.9819

          k =-0.0909 0.4545-0.0909 (   114 PWs)   bands (ev):

  -125.9409 -54.2650 -53.5234 -50.6599  13.0177  13.6269  18.2852  19.7709
    22.5492  23.5508  35.0813  39.1519  39.8148

          k =-0.1818 0.5455-0.1818 (   112 PWs)   bands (ev):

  -125.9163 -53.6690 -53.2656 -49.5379  13.7319  16.0987  18.7778  20.0859
    24.6984  27.0286  30.6651  37.5505  38.5210

          k =-0.2727 0.6364-0.2727 (   113 PWs)   bands (ev):

  -126.0665 -55.6978 -53.2462 -49.5641  12.3799  16.0817  18.7314  19.1992
    24.9532  26.8648  27.4761  35.3209  38.6030

          k = 0.6364-0.2727 0.6364 (   111 PWs)   bands (ev):

  -125.9246 -53.0475 -52.6733 -49.6615  14.3811  18.5204  19.5569  20.6176
    25.7907  26.1723  28.1362  34.2053  39.1930

          k = 0.5455-0.1818 0.5455 (   109 PWs)   bands (ev):

  -125.7371 -52.6824 -49.9917 -48.9812  17.0384  18.2314  21.3772  21.6093
    26.7034  27.4951  28.4947  33.6900  40.9823

          k = 0.4545-0.0909 0.4545 (   112 PWs)   bands (ev):

  -125.8853 -53.8130 -51.3144 -50.9529  15.0888  16.8357  17.6321  21.8943
    22.2998  27.0081  29.9581  33.7330  42.5116

          k = 0.3636 0.0000 0.3636 (   111 PWs)   bands (ev):

  -125.6899 -54.4865 -49.5928 -49.1644  13.8346  13.8888  17.6116  22.6942
    25.5404  28.6893  33.0859  35.1934  45.9806

          k = 0.0000 0.5455 0.0000 (   113 PWs)   bands (ev):

  -125.9879 -54.1044 -54.1044 -50.8257   8.9518  11.7157  17.5944  23.3278
    28.0977  28.0977  36.2062  36.5790  36.8090

          k =-0.0909 0.6364-0.0909 (   113 PWs)   bands (ev):

  -126.0304 -54.9714 -52.3443 -51.1826  10.5119  13.6943  18.8089  21.1094
    26.8158  27.4323  33.0078  34.0382  36.3001

          k =-0.1818 0.7273-0.1818 (   108 PWs)   bands (ev):

  -125.7070 -51.7352 -49.7937 -49.0819  15.0057  19.3108  23.5268  25.3242
    27.5543  27.7749  29.6033  32.6546  37.3329

          k = 0.7273-0.1818 0.7273 (   108 PWs)   bands (ev):

  -125.7423 -51.6597 -49.9347 -49.0422  15.8364  20.2314  22.9027  25.3332
    27.2897  27.3168  27.9992  31.6492  37.6898

          k = 0.6364-0.0909 0.6364 (   107 PWs)   bands (ev):

  -125.6204 -50.2321 -49.6658 -48.7476  19.3645  21.0126  22.5730  23.8909
    26.8752  28.0242  28.0307  31.0696  39.2833

          k = 0.5455 0.0000 0.5455 (   107 PWs)   bands (ev):

  -125.5579 -50.6077 -49.6115 -47.7956  17.8608  21.8161  22.8102  23.1929
    27.0122  28.2886  28.3111  31.8745  41.0551

          k = 0.0000 0.7273 0.0000 (   113 PWs)   bands (ev):

  -126.1341 -54.3352 -54.3352 -50.5644   8.7853  12.3444  19.3842  22.9469
    28.2007  28.2007  31.3387  35.4004  35.4004

          k =-0.0909 0.8182-0.0909 (   110 PWs)   bands (ev):

  -125.9218 -54.0084 -51.7303 -48.6675  11.2575  16.6633  22.4123  24.5952
    28.3735  29.3236  30.1203  31.4765  35.2406

          k = 0.8182-0.0909 0.8182 (   108 PWs)   bands (ev):

  -125.8012 -53.5829 -49.0922 -48.6372  12.5767  20.7282  23.3749  26.1786
    28.4159  28.5757  29.5032  29.8099  35.5409

          k = 0.7273 0.0000 0.7273 (   110 PWs)   bands (ev):

  -125.9496 -56.3471 -49.3462 -49.2808   9.2966  20.8162  23.8684  24.7388
    25.8039  26.3469  29.0870  29.9676  35.7625

          k = 0.0000 0.9091 0.0000 (   116 PWs)   bands (ev):

  -126.4885 -57.3406 -57.3406 -50.4692   2.5556  14.5218  22.1336  22.7620
    24.2404  24.2404  28.4235  33.8191  34.1094

          k = 0.9091-0.0000 0.9091 (   114 PWs)   bands (ev):

  -126.3148 -57.3129 -54.4719 -49.7812   5.6984  15.4322  22.5558  22.7349
    24.2797  27.9394  28.1020  30.9766  34.1983

          k =-0.1818 0.3636 0.0000 (   115 PWs)   bands (ev):

  -126.0245 -55.7407 -53.9791 -50.5565  11.7323  12.6256  15.0027  18.0956
    20.8574  27.7198  35.4256  37.4741  44.1450

          k =-0.2727 0.4545-0.0909 (   114 PWs)   bands (ev):

  -125.9976 -54.7994 -52.2441 -51.9972  12.3075  14.5499  17.1985  18.4592
    23.2020  26.7293  31.2356  36.2506  41.3533

          k =-0.3636 0.5455-0.1818 (   113 PWs)   bands (ev):

  -126.0132 -54.3802 -53.4188 -50.3336  13.4884  16.2202  17.4313  19.5150
    24.3247  26.1263  28.8117  35.8472  39.1825

          k = 0.5455-0.3636 0.7273 (   109 PWs)   bands (ev):

  -125.7090 -52.4394 -50.3696 -48.3744  16.9009  18.6392  20.7967  21.2203
    24.7242  28.2169  29.3778  36.8210  38.6680

          k =-0.1818 0.5455 0.0000 (   114 PWs)   bands (ev):

  -126.0370 -55.1852 -52.2868 -52.0099  11.4317  14.0156  14.8527  22.4116
    23.9022  26.5005  33.4680  35.0551  37.3223

          k =-0.2727 0.6364-0.0909 (   114 PWs)   bands (ev):

  -126.1359 -55.0882 -54.5101 -50.5727  10.8425  15.3539  16.9396  20.6068
    24.6636  26.3928  29.6790  33.7596  35.7450

          k = 0.6364-0.2727 0.8182 (   113 PWs)   bands (ev):

  -126.1212 -54.8890 -54.2145 -49.7916  11.6956  17.1560  18.5802  20.0896
    24.7916  26.8425  27.8269  32.9552  34.7749

          k = 0.5455-0.1818 0.7273 (   111 PWs)   bands (ev):

  -125.9700 -53.9959 -53.0009 -48.8139  14.6694  17.6412  19.2036  21.1636
    25.9637  26.2444  29.4781  32.1956  35.2638

          k = 0.4545-0.0909 0.6364 (   112 PWs)   bands (ev):

  -126.0351 -54.8976 -52.3273 -50.2727  13.6162  17.3264  19.3683  20.7283
    25.5320  26.4875  28.0757  31.7285  36.4113

          k = 0.3636 0.0000 0.5455 (   110 PWs)   bands (ev):

  -125.7438 -52.0423 -51.5200 -49.3403  15.5774  18.8023  19.1260  23.5788
    23.5803  28.7849  30.0752  32.6003  39.8540

          k =-0.1818 0.7273 0.0000 (   114 PWs)   bands (ev):

  -126.2050 -55.2112 -54.3966 -51.2367   8.0138  13.0505  19.1133  24.0513
    25.1574  26.8623  31.2148  31.4808  33.9881

          k = 0.7273-0.1818 0.9091 (   107 PWs)   bands (ev):

  -125.7155 -51.7699 -49.4740 -48.2704  16.0702  19.6991  22.8980  26.7712
    28.5639  28.9486  29.4258  31.3292  33.5016

          k = 0.6364-0.0909 0.8182 (   108 PWs)   bands (ev):

  -125.8214 -51.9810 -50.4743 -48.8225  15.8786  20.5107  22.3813  24.4762
    27.0939  28.6231  28.8846  30.1834  33.7948

          k = 0.5455 0.0000 0.7273 (   109 PWs)   bands (ev):

  -125.8697 -53.8095 -49.6787 -49.5559  16.2100  19.5116  21.8464  22.3834
    26.8918  27.8908  28.4900  30.3540  34.8447

          k = 0.8182-0.0909 1.0000 (   110 PWs)   bands (ev):

  -125.9640 -54.0031 -51.6360 -48.7961  12.2831  16.5726  22.4976  24.5871
    27.9893  28.8466  29.8297  30.5892  33.1181

          k = 0.7273 0.0000 0.9091 (   106 PWs)   bands (ev):

  -125.6816 -51.6627 -48.6017 -47.7231  16.1886  21.2102  23.2137  27.8699
    28.7385  28.9743  30.0186  30.3609  33.0647

          k = 0.6364-0.2727 1.0000 (   109 PWs)   bands (ev):

  -125.8297 -52.3611 -51.3172 -48.8250  14.9827  17.9922  18.6580  26.9534
    28.3226  28.6994  29.0496  30.9672  33.8519

          k = 0.5455-0.1818 0.9091 (   110 PWs)   bands (ev):

  -125.9748 -54.0726 -50.8594 -49.6804  15.2850  19.3303  20.2530  22.0128
    26.4918  27.9749  28.5453  30.6328  32.4626

          k = 0.6364-0.0909 1.0000 (   105 PWs)   bands (ev):

  -125.5954 -49.4041 -49.0975 -47.8774  20.6434  22.5710  22.7744  26.8620
    28.4070  29.3491  29.5192  30.4198  31.9093

          k = 0.5455 0.0000 0.9091 (   110 PWs)   bands (ev):

  -126.0217 -54.0890 -50.9925 -49.6918  15.7205  20.4139  21.0154  21.9709
    26.3763  26.8098  28.7558  29.2948  31.2813

     the Fermi energy is    26.6620 ev

!    total energy              =    -395.14257604 Ry
     Harris-Foulkes estimate   =    -395.14257604 Ry
     estimated scf accuracy    <          1.0E-10 Ry

     total all-electron energy =     -3007.600921 Ry

     The total energy is the sum of the following terms:

     one-electron contribution =    -122.13637200 Ry
     hartree contribution      =      68.14418889 Ry
     xc contribution           =     -29.53791031 Ry
     ewald contribution        =    -223.38275379 Ry
     one-center paw contrib.   =     -88.22903095 Ry
     smearing contrib. (-TS)   =      -0.00069789 Ry

     convergence has been achieved in   9 iterations

     Forces acting on atoms (cartesian axes, Ry/au):

     atom    1 type  1   force =     0.00000000    0.00000000    0.00000000

     Total force =     0.000000     Total SCF correction =     0.000000


     Computing stress (Cartesian axis) and pressure

          total   stress  (Ry/bohr**3)                   (kbar)     P=********
  -1.02006414   0.00000000   0.00000000    -150056.59      0.00      0.00
   0.00000000  -1.02006414  -0.00000000          0.00-150056.59     -0.00
   0.00000000  -0.00000000  -1.02006414          0.00     -0.00-150056.59


     Writing output data file Ni.save/

     init_run     :      0.25s CPU      0.27s WALL (       1 calls)
     electrons    :      2.61s CPU      3.01s WALL (       1 calls)
     forces       :      0.01s CPU      0.02s WALL (       1 calls)
     stress       :      0.04s CPU      0.04s WALL (       1 calls)

     Called by init_run:
     wfcinit      :      0.06s CPU      0.07s WALL (       1 calls)
     potinit      :      0.09s CPU      0.11s WALL (       1 calls)
     hinit0       :      0.08s CPU      0.08s WALL (       1 calls)

     Called by electrons:
     c_bands      :      1.60s CPU      1.81s WALL (       9 calls)
     sum_band     :      0.18s CPU      0.23s WALL (       9 calls)
     v_of_rho     :      0.01s CPU      0.01s WALL (      10 calls)
     newd         :      0.01s CPU      0.01s WALL (      10 calls)
     PAW_pot      :      0.88s CPU      1.03s WALL (      10 calls)
     mix_rho      :      0.00s CPU      0.00s WALL (       9 calls)

     Called by c_bands:
     init_us_2    :      0.02s CPU      0.03s WALL (    1176 calls)
     cegterg      :      1.56s CPU      1.77s WALL (     504 calls)

     Called by sum_band:
     sum_band:bec :      0.00s CPU      0.01s WALL (     504 calls)
     addusdens    :      0.01s CPU      0.01s WALL (       9 calls)

     Called by *egterg:
     h_psi        :      0.89s CPU      1.02s WALL (    1617 calls)
     s_psi        :      0.03s CPU      0.03s WALL (    1617 calls)
     g_psi        :      0.00s CPU      0.00s WALL (    1057 calls)
     cdiaghg      :      0.49s CPU      0.55s WALL (    1561 calls)

     Called by h_psi:
     h_psi:pot    :      0.89s CPU      1.01s WALL (    1617 calls)
     h_psi:calbec :      0.04s CPU      0.05s WALL (    1617 calls)
     vloc_psi     :      0.81s CPU      0.92s WALL (    1617 calls)
     add_vuspsi   :      0.03s CPU      0.03s WALL (    1617 calls)

     General routines
     calbec       :      0.06s CPU      0.07s WALL (    2401 calls)
     fft          :      0.01s CPU      0.01s WALL (     136 calls)
     ffts         :      0.00s CPU      0.00s WALL (       9 calls)
     fftw         :      0.86s CPU      0.99s WALL (   40198 calls)

     Parallel routines
     fft_scatt_xy :      0.09s CPU      0.11s WALL (   40343 calls)
     fft_scatt_yz :      0.35s CPU      0.41s WALL (   40343 calls)

     PWSCF        :     3.83s CPU         4.32s WALL


   This run was terminated on:  22:25:59  26Mar2024            

=------------------------------------------------------------------------------=
   JOB DONE.
=------------------------------------------------------------------------------=
