
     Program PWSCF v.6.3MaX starts on 26Mar2024 at 22:36:18 

     This program is part of the open-source Quantum ESPRESSO suite
     for quantum simulation of materials; please cite
         "P. Giannozzi et al., J. Phys.:Condens. Matter 21 395502 (2009);
         "P. Giannozzi et al., J. Phys.:Condens. Matter 29 465901 (2017);
          URL http://www.quantum-espresso.org", 
     in publications or presentations arising from this work. More details at
     http://www.quantum-espresso.org/quote

     Parallel version (MPI), running on     5 processors

     MPI processes distributed on     1 nodes
     R & G space division:  proc/nbgrp/npool/nimage =       5
     Waiting for input...
     Reading input from standard input

     Current dimensions of program PWSCF are:
     Max number of different atomic species (ntypx) = 10
     Max number of k-points (npk) =  40000
     Max angular momentum in pseudopotentials (lmaxx) =  3
               file Ni.pbe-spn-kjpaw_psl.1.0.0.UPF: wavefunction(s)  3P 3D renormalized

     Subspace diagonalization in iterative solution of the eigenvalue problem:
     a serial algorithm will be used


     Parallelization info
     --------------------
     sticks:   dense  smooth     PW     G-vecs:    dense   smooth      PW
     Min          53      53     18                  595      595     121
     Max          56      56     19                  595      595     123
     Sum         271     271     91                 2975     2975     609



     bravais-lattice index     =            2
     lattice parameter (alat)  =       6.6500  a.u.
     unit-cell volume          =      73.5199 (a.u.)^3
     number of atoms/cell      =            1
     number of atomic types    =            1
     number of electrons       =        18.00
     number of Kohn-Sham states=           13
     kinetic-energy cutoff     =      45.0000  Ry
     charge density cutoff     =     180.0000  Ry
     convergence threshold     =      1.0E-08
     mixing beta               =       0.7000
     number of iterations used =            8  plain     mixing
     Exchange-correlation      = SLA PW PBX PBC ( 1  4  3  4 0 0)

     celldm(1)=   6.650000  celldm(2)=   0.000000  celldm(3)=   0.000000
     celldm(4)=   0.000000  celldm(5)=   0.000000  celldm(6)=   0.000000

     crystal axes: (cart. coord. in units of alat)
               a(1) = (  -0.500000   0.000000   0.500000 )  
               a(2) = (   0.000000   0.500000   0.500000 )  
               a(3) = (  -0.500000   0.500000   0.000000 )  

     reciprocal axes: (cart. coord. in units 2 pi/alat)
               b(1) = ( -1.000000 -1.000000  1.000000 )  
               b(2) = (  1.000000  1.000000  1.000000 )  
               b(3) = ( -1.000000  1.000000 -1.000000 )  


     PseudoPot. # 1 for Ni read from file:
     /home/lorenzo/pseudos/Ni/Ni.pbe-spn-kjpaw_psl.1.0.0.UPF
     MD5 check sum: 6e86b733589c3ad8389697b807d86aa7
     Pseudo is Projector augmented-wave + core cor, Zval = 18.0
     Generated using "atomic" code by A. Dal Corso v.6.3
     Shape of augmentation charge: PSQ
     Using radial grid of 1195 points,  6 beta functions with: 
                l(1) =   0
                l(2) =   0
                l(3) =   1
                l(4) =   1
                l(5) =   2
                l(6) =   2
     Q(r) pseudized with 0 coefficients 


     atomic species   valence    mass     pseudopotential
        Ni            18.00    58.69340     Ni( 1.00)

     48 Sym. Ops., with inversion, found



   Cartesian axes

     site n.     atom                  positions (alat units)
         1           Ni  tau(   1) = (   0.0000000   0.0000000   0.0000000  )

     number of k points=    56  gaussian smearing, width (Ry)=  0.0100
                       cart. coord. in units 2pi/alat
        k(    1) = (   0.0000000   0.0000000   0.0000000), wk =   0.0015026
        k(    2) = (  -0.0909091   0.0909091  -0.0909091), wk =   0.0120210
        k(    3) = (  -0.1818182   0.1818182  -0.1818182), wk =   0.0120210
        k(    4) = (  -0.2727273   0.2727273  -0.2727273), wk =   0.0120210
        k(    5) = (  -0.3636364   0.3636364  -0.3636364), wk =   0.0120210
        k(    6) = (  -0.4545455   0.4545455  -0.4545455), wk =   0.0120210
        k(    7) = (   0.0000000   0.1818182   0.0000000), wk =   0.0090158
        k(    8) = (  -0.0909091   0.2727273  -0.0909091), wk =   0.0360631
        k(    9) = (  -0.1818182   0.3636364  -0.1818182), wk =   0.0360631
        k(   10) = (  -0.2727273   0.4545455  -0.2727273), wk =   0.0360631
        k(   11) = (  -0.3636364   0.5454545  -0.3636364), wk =   0.0360631
        k(   12) = (   0.5454545  -0.3636364   0.5454545), wk =   0.0360631
        k(   13) = (   0.4545455  -0.2727273   0.4545455), wk =   0.0360631
        k(   14) = (   0.3636364  -0.1818182   0.3636364), wk =   0.0360631
        k(   15) = (   0.2727273  -0.0909091   0.2727273), wk =   0.0360631
        k(   16) = (   0.1818182  -0.0000000   0.1818182), wk =   0.0180316
        k(   17) = (   0.0000000   0.3636364   0.0000000), wk =   0.0090158
        k(   18) = (  -0.0909091   0.4545455  -0.0909091), wk =   0.0360631
        k(   19) = (  -0.1818182   0.5454545  -0.1818182), wk =   0.0360631
        k(   20) = (  -0.2727273   0.6363636  -0.2727273), wk =   0.0360631
        k(   21) = (   0.6363636  -0.2727273   0.6363636), wk =   0.0360631
        k(   22) = (   0.5454545  -0.1818182   0.5454545), wk =   0.0360631
        k(   23) = (   0.4545455  -0.0909091   0.4545455), wk =   0.0360631
        k(   24) = (   0.3636364   0.0000000   0.3636364), wk =   0.0180316
        k(   25) = (   0.0000000   0.5454545   0.0000000), wk =   0.0090158
        k(   26) = (  -0.0909091   0.6363636  -0.0909091), wk =   0.0360631
        k(   27) = (  -0.1818182   0.7272727  -0.1818182), wk =   0.0360631
        k(   28) = (   0.7272727  -0.1818182   0.7272727), wk =   0.0360631
        k(   29) = (   0.6363636  -0.0909091   0.6363636), wk =   0.0360631
        k(   30) = (   0.5454545   0.0000000   0.5454545), wk =   0.0180316
        k(   31) = (   0.0000000   0.7272727   0.0000000), wk =   0.0090158
        k(   32) = (  -0.0909091   0.8181818  -0.0909091), wk =   0.0360631
        k(   33) = (   0.8181818  -0.0909091   0.8181818), wk =   0.0360631
        k(   34) = (   0.7272727   0.0000000   0.7272727), wk =   0.0180316
        k(   35) = (   0.0000000   0.9090909   0.0000000), wk =   0.0090158
        k(   36) = (   0.9090909  -0.0000000   0.9090909), wk =   0.0180316
        k(   37) = (  -0.1818182   0.3636364   0.0000000), wk =   0.0360631
        k(   38) = (  -0.2727273   0.4545455  -0.0909091), wk =   0.0721262
        k(   39) = (  -0.3636364   0.5454545  -0.1818182), wk =   0.0721262
        k(   40) = (   0.5454545  -0.3636364   0.7272727), wk =   0.0721262
        k(   41) = (  -0.1818182   0.5454545   0.0000000), wk =   0.0360631
        k(   42) = (  -0.2727273   0.6363636  -0.0909091), wk =   0.0721262
        k(   43) = (   0.6363636  -0.2727273   0.8181818), wk =   0.0721262
        k(   44) = (   0.5454545  -0.1818182   0.7272727), wk =   0.0721262
        k(   45) = (   0.4545455  -0.0909091   0.6363636), wk =   0.0721262
        k(   46) = (   0.3636364   0.0000000   0.5454545), wk =   0.0360631
        k(   47) = (  -0.1818182   0.7272727   0.0000000), wk =   0.0360631
        k(   48) = (   0.7272727  -0.1818182   0.9090909), wk =   0.0721262
        k(   49) = (   0.6363636  -0.0909091   0.8181818), wk =   0.0721262
        k(   50) = (   0.5454545   0.0000000   0.7272727), wk =   0.0360631
        k(   51) = (   0.8181818  -0.0909091   1.0000000), wk =   0.0360631
        k(   52) = (   0.7272727   0.0000000   0.9090909), wk =   0.0360631
        k(   53) = (   0.6363636  -0.2727273   1.0000000), wk =   0.0360631
        k(   54) = (   0.5454545  -0.1818182   0.9090909), wk =   0.0721262
        k(   55) = (   0.6363636  -0.0909091   1.0000000), wk =   0.0360631
        k(   56) = (   0.5454545   0.0000000   0.9090909), wk =   0.0360631

     Dense  grid:     2975 G-vectors     FFT dimensions: (  24,  24,  24)

     Estimated max dynamical RAM per process >       4.28 MB

     Estimated total dynamical RAM >      21.39 MB

     Check: negative/imaginary core charge=   -0.000034    0.000000

     Initial potential from superposition of free atoms

     starting charge   17.99975, renormalised to   18.00000
     Starting wfcs are   10 randomized atomic wfcs +    3 random wfcs
     Checking if some PAW data can be deallocated... 

     total cpu time spent up to now is        1.1 secs

     Self-consistent Calculation

     iteration #  1     ecut=    45.00 Ry     beta= 0.70
     Davidson diagonalization with overlap
     ethr =  1.00E-02,  avg # of iterations =  4.0

     Threshold (ethr) on eigenvalues was too large:
     Diagonalizing with lowered threshold

     Davidson diagonalization with overlap
     ethr =  3.23E-05,  avg # of iterations =  1.8

     total cpu time spent up to now is        2.1 secs

     total energy              =    -428.99037785 Ry
     Harris-Foulkes estimate   =    -428.99189751 Ry
     estimated scf accuracy    <       0.00590309 Ry

     iteration #  2     ecut=    45.00 Ry     beta= 0.70
     Davidson diagonalization with overlap
     ethr =  3.28E-05,  avg # of iterations =  1.0

     total cpu time spent up to now is        2.6 secs

     total energy              =    -428.99077020 Ry
     Harris-Foulkes estimate   =    -428.99072372 Ry
     estimated scf accuracy    <       0.00028971 Ry

     iteration #  3     ecut=    45.00 Ry     beta= 0.70
     Davidson diagonalization with overlap
     ethr =  1.61E-06,  avg # of iterations =  2.2

     total cpu time spent up to now is        3.1 secs

     total energy              =    -428.99075783 Ry
     Harris-Foulkes estimate   =    -428.99084320 Ry
     estimated scf accuracy    <       0.00019334 Ry

     iteration #  4     ecut=    45.00 Ry     beta= 0.70
     Davidson diagonalization with overlap
     ethr =  1.07E-06,  avg # of iterations =  2.0

     total cpu time spent up to now is        3.6 secs

     total energy              =    -428.99080642 Ry
     Harris-Foulkes estimate   =    -428.99081658 Ry
     estimated scf accuracy    <       0.00004091 Ry

     iteration #  5     ecut=    45.00 Ry     beta= 0.70
     Davidson diagonalization with overlap
     ethr =  2.27E-07,  avg # of iterations =  1.4

     total cpu time spent up to now is        4.1 secs

     total energy              =    -428.99081232 Ry
     Harris-Foulkes estimate   =    -428.99081234 Ry
     estimated scf accuracy    <       0.00000005 Ry

     iteration #  6     ecut=    45.00 Ry     beta= 0.70
     Davidson diagonalization with overlap
     ethr =  2.56E-10,  avg # of iterations =  3.0

     total cpu time spent up to now is        4.7 secs

     total energy              =    -428.99081246 Ry
     Harris-Foulkes estimate   =    -428.99081247 Ry
     estimated scf accuracy    <       0.00000001 Ry

     iteration #  7     ecut=    45.00 Ry     beta= 0.70
     Davidson diagonalization with overlap
     ethr =  5.66E-11,  avg # of iterations =  1.0

     total cpu time spent up to now is        5.2 secs

     End of self-consistent calculation

          k = 0.0000 0.0000 0.0000 (   339 PWs)   bands (ev):

   -85.4179 -45.3381 -45.3381 -45.3381   8.9641  15.9828  15.9828  15.9828
    17.1115  17.1115  41.4805  45.4274  45.4274

          k =-0.0909 0.0909-0.0909 (   363 PWs)   bands (ev):

   -85.4157 -45.4993 -45.4192 -45.4192   9.2605  15.8593  16.0185  16.0185
    16.9929  16.9929  40.1101  42.9510  44.7044

          k =-0.1818 0.1818-0.1818 (   362 PWs)   bands (ev):

   -85.4085 -45.5357 -45.4320 -45.4320  10.1818  15.6736  16.1501  16.1501
    16.9749  16.9749  35.7789  42.1707  43.7377

          k =-0.2727 0.2727-0.2727 (   368 PWs)   bands (ev):

   -85.3991 -45.6428 -45.4446 -45.4446  11.5399  15.5399  16.1382  16.1382
    17.1613  17.1613  31.2768  41.3908  43.0560

          k =-0.3636 0.3636-0.3636 (   362 PWs)   bands (ev):

   -85.3901 -45.6611 -45.4287 -45.4287  12.8223  16.0194  16.0194  16.0198
    17.5090  17.5090  27.2751  40.5643  42.6837

          k =-0.4545 0.4545-0.4545 (   374 PWs)   bands (ev):

   -85.3852 -45.7645 -45.4689 -45.4689  13.3399  15.9112  15.9112  17.2277
    17.6923  17.6923  24.3359  40.0604  42.5546

          k = 0.0000 0.1818 0.0000 (   355 PWs)   bands (ev):

   -85.4146 -45.4900 -45.3782 -45.3782   9.3747  15.8221  16.0538  16.0538
    16.8971  17.1476  40.6670  42.7833  42.7833

          k =-0.0909 0.2727-0.0909 (   366 PWs)   bands (ev):

   -85.4092 -45.5266 -45.4759 -45.4316  10.0815  15.6046  16.1800  16.1936
    16.7655  17.1361  37.5103  41.2035  41.3075

          k =-0.1818 0.3636-0.1818 (   370 PWs)   bands (ev):

   -85.4005 -45.6033 -45.4957 -45.4478  11.3015  15.4109  16.1269  16.2566
    16.9638  17.2827  32.9444  40.3360  40.4427

          k =-0.2727 0.4545-0.2727 (   368 PWs)   bands (ev):

   -85.3914 -45.6150 -45.5080 -45.4579  12.6651  15.5254  15.9476  16.1572
    17.5350  17.5637  28.7311  39.6293  39.9096

          k =-0.3636 0.5455-0.3636 (   371 PWs)   bands (ev):

   -85.3851 -45.7107 -45.4900 -45.4692  13.4269  15.7468  16.0527  16.2348
    17.7395  18.4026  25.2456  38.7931  40.1088

          k = 0.5455-0.3636 0.5455 (   376 PWs)   bands (ev):

   -85.3834 -45.7560 -45.5163 -45.4684  13.5528  15.7372  15.9929  16.5605
    17.6951  18.9857  23.9593  38.0667  41.0146

          k = 0.4545-0.2727 0.4545 (   368 PWs)   bands (ev):

   -85.3867 -45.6880 -45.4863 -45.4428  13.2772  15.8394  16.0168  16.0582
    17.4535  18.2698  26.2792  37.6897  41.5933

          k = 0.3636-0.1818 0.3636 (   373 PWs)   bands (ev):

   -85.3944 -45.6447 -45.5124 -45.4649  12.2412  15.4501  16.0238  16.1685
    17.0467  17.6731  30.0739  37.7766  42.7806

          k = 0.2727-0.0909 0.2727 (   368 PWs)   bands (ev):

   -85.4036 -45.5715 -45.4738 -45.4576  10.8536  15.4965  16.1668  16.2454
    16.7679  17.2798  34.4515  38.3381  44.2220

          k = 0.1818-0.0000 0.1818 (   363 PWs)   bands (ev):

   -85.4115 -45.5036 -45.4430 -45.4327   9.7805  15.7120  16.1077  16.1364
    16.8338  17.1013  38.6028  39.8104  44.3213

          k = 0.0000 0.3636 0.0000 (   367 PWs)   bands (ev):

   -85.4053 -45.5319 -45.4680 -45.4680  10.5730  15.3870  16.4064  16.4064
    16.5271  17.2154  39.3900  39.4052  39.4052

          k =-0.0909 0.4545-0.0909 (   370 PWs)   bands (ev):

   -85.3981 -45.5930 -45.4917 -45.4660  11.5712  15.1375  16.1910  16.5686
    16.8762  17.3746  34.9972  38.0872  39.0063

          k =-0.1818 0.5455-0.1818 (   374 PWs)   bands (ev):

   -85.3898 -45.6279 -45.5285 -45.4969  12.8111  15.0157  15.9013  16.5341
    17.6040  17.6831  30.6272  37.3972  37.4193

          k =-0.2727 0.6364-0.2727 (   379 PWs)   bands (ev):

   -85.3834 -45.7062 -45.5517 -45.5175  13.7228  15.1118  15.7884  16.4149
    17.7594  19.0108  26.7386  35.7306  37.4802

          k = 0.6364-0.2727 0.6364 (   374 PWs)   bands (ev):

   -85.3804 -45.7064 -45.5392 -45.4982  14.0052  15.2463  15.9401  16.3225
    17.7189  20.5900  24.1671  34.4106  38.3223

          k = 0.5455-0.1818 0.5455 (   376 PWs)   bands (ev):

   -85.3821 -45.7164 -45.5453 -45.4904  13.9413  15.4070  15.7410  16.2985
    17.4083  19.7938  25.6769  33.6041  39.9075

          k = 0.4545-0.0909 0.4545 (   375 PWs)   bands (ev):

   -85.3879 -45.6526 -45.5567 -45.4780  13.2751  15.2800  15.7222  16.3884
    16.9826  18.5775  29.2989  33.3903  42.1082

          k = 0.3636 0.0000 0.3636 (   371 PWs)   bands (ev):

   -85.3959 -45.6121 -45.5075 -45.4670  12.0047  15.2973  16.0098  16.5548
    16.5593  17.7913  33.2074  34.1014  43.8563

          k = 0.0000 0.5455 0.0000 (   371 PWs)   bands (ev):

   -85.3927 -45.5884 -45.5026 -45.5026  12.2451  14.8641  16.3989  16.9186
    16.9186  17.4115  36.4134  36.4134  36.7314

          k =-0.0909 0.6364-0.0909 (   371 PWs)   bands (ev):

   -85.3859 -45.6539 -45.4966 -45.4893  13.1058  14.6747  16.3114  17.0416
    17.6203  17.6788  32.8271  34.6081  35.4327

          k =-0.1818 0.7273-0.1818 (   378 PWs)   bands (ev):

   -85.3802 -45.6840 -45.5692 -45.5179  13.8050  14.6118  16.0901  16.9438
    17.7947  19.3142  28.8475  32.5806  35.2560

          k = 0.7273-0.1818 0.7273 (   379 PWs)   bands (ev):

   -85.3771 -45.6838 -45.6088 -45.5283  14.2641  14.6828  15.8875  16.8005
    17.7465  21.6324  25.4004  31.0248  35.9377

          k = 0.6364-0.0909 0.6364 (   379 PWs)   bands (ev):

   -85.3776 -45.6863 -45.6016 -45.5315  14.4965  14.8805  15.6032  16.6841
    17.4611  21.8970  25.2926  30.0456  37.4141

          k = 0.5455 0.0000 0.5455 (   377 PWs)   bands (ev):

   -85.3816 -45.6748 -45.5995 -45.4887  14.2222  15.2630  15.2900  16.5935
    17.1268  19.9329  28.2953  30.1235  39.5324

          k = 0.0000 0.7273 0.0000 (   375 PWs)   bands (ev):

   -85.3811 -45.6819 -45.5191 -45.5191  13.3411  14.4156  17.4769  17.4875
    17.4875  17.6006  31.9319  34.1163  34.1163

          k =-0.0909 0.8182-0.0909 (   374 PWs)   bands (ev):

   -85.3768 -45.7017 -45.5258 -45.5218  13.6120  14.3169  17.0920  17.4792
    17.8045  19.3666  29.8328  31.4304  33.6387

          k = 0.8182-0.0909 0.8182 (   376 PWs)   bands (ev):

   -85.3745 -45.6909 -45.5812 -45.5315  13.9292  14.3770  16.5848  17.3371
    17.7915  21.7533  27.6188  28.6689  34.0905

          k = 0.7273 0.0000 0.7273 (   377 PWs)   bands (ev):

   -85.3748 -45.6638 -45.6485 -45.5121  14.3442  14.5592  15.9914  17.0801
    17.6212  24.1356  24.5476  28.1698  35.4098

          k = 0.0000 0.9091 0.0000 (   380 PWs)   bands (ev):

   -85.3744 -45.7079 -45.5640 -45.5640  13.4949  14.1446  17.6879  17.8645
    17.8645  19.7439  28.0362  32.8332  32.8332

          k = 0.9091-0.0000 0.9091 (   375 PWs)   bands (ev):

   -85.3734 -45.7177 -45.5634 -45.5111  13.6209  14.1875  17.4490  17.6480
    17.8626  20.9637  27.3584  30.8363  32.9937

          k =-0.1818 0.3636 0.0000 (   370 PWs)   bands (ev):

   -85.4028 -45.5665 -45.4905 -45.4702  10.9495  15.3754  16.1715  16.4070
    16.6848  17.3233  36.0582  36.8519  42.7499

          k =-0.2727 0.4545-0.0909 (   372 PWs)   bands (ev):

   -85.3943 -45.6067 -45.5090 -45.4906  12.2194  15.2119  15.9401  16.4664
    16.9587  17.7543  31.8825  35.7989  40.7349

          k =-0.3636 0.5455-0.1818 (   377 PWs)   bands (ev):

   -85.3865 -45.6839 -45.5424 -45.4976  13.3911  15.3249  15.7256  16.3317
    17.3988  18.5204  27.8039  35.5861  38.8337

          k = 0.5455-0.3636 0.7273 (   376 PWs)   bands (ev):

   -85.3819 -45.7229 -45.5318 -45.5014  13.8434  15.4097  15.9738  16.2349
    17.6538  19.8247  24.6362  35.8496  37.4565

          k =-0.1818 0.5455 0.0000 (   369 PWs)   bands (ev):

   -85.3910 -45.6078 -45.4975 -45.4755  12.5689  14.9318  16.0043  16.9353
    17.0126  17.7471  33.7828  34.3694  37.5821

          k =-0.2727 0.6364-0.0909 (   371 PWs)   bands (ev):

   -85.3840 -45.6478 -45.5150 -45.4950  13.5946  14.8449  15.7608  16.8639
    17.4580  18.7151  29.8306  33.7001  35.4835

          k = 0.6364-0.2727 0.8182 (   377 PWs)   bands (ev):

   -85.3793 -45.6947 -45.5700 -45.5175  14.2000  14.8881  15.6586  16.6872
    17.6793  20.4923  26.1335  33.2894  34.4005

          k = 0.5455-0.1818 0.7273 (   379 PWs)   bands (ev):

   -85.3782 -45.7103 -45.5792 -45.5338  14.3904  14.9383  15.6480  16.5766
    17.6192  21.7838  24.4255  32.2168  35.1609

          k = 0.4545-0.0909 0.6364 (   380 PWs)   bands (ev):

   -85.3810 -45.6973 -45.5777 -45.5273  14.2021  15.1204  15.3848  16.6242
    17.3409  20.0227  27.2816  31.5891  36.6393

          k = 0.3636 0.0000 0.5455 (   376 PWs)   bands (ev):

   -85.3870 -45.6455 -45.5402 -45.5156  13.3737  15.0777  15.6140  16.7249
    16.9539  18.6289  30.8215  31.9499  38.5877

          k =-0.1818 0.7273 0.0000 (   375 PWs)   bands (ev):

   -85.3805 -45.6888 -45.5220 -45.5139  13.6157  14.5271  16.3450  17.4442
    17.4690  18.8107  31.9440  31.9479  33.0150

          k = 0.7273-0.1818 0.9091 (   379 PWs)   bands (ev):

   -85.3765 -45.6869 -45.5974 -45.5329  14.0227  14.5382  16.0907  17.2105
    17.7471  20.8241  28.3822  30.4214  32.5565

          k = 0.6364-0.0909 0.8182 (   378 PWs)   bands (ev):

   -85.3750 -45.6694 -45.6304 -45.5326  14.4092  14.6568  15.7621  16.9758
    17.7167  23.3786  25.1254  29.1731  33.3423

          k = 0.5455 0.0000 0.7273 (   383 PWs)   bands (ev):

   -85.3768 -45.6801 -45.6501 -45.5444  14.6598  14.8179  15.3612  16.8190
    17.4854  22.1205  26.3172  28.9682  34.7589

          k = 0.8182-0.0909 1.0000 (   374 PWs)   bands (ev):

   -85.3742 -45.7010 -45.5705 -45.5026  13.7317  14.3002  16.9638  17.5510
    17.8540  20.9400  28.1808  30.8814  31.6611

          k = 0.7273 0.0000 0.9091 (   374 PWs)   bands (ev):

   -85.3735 -45.6847 -45.5857 -45.5210  14.0047  14.4525  16.4035  17.3080
    17.8651  22.7472  27.3095  28.2373  32.0272

          k = 0.6364-0.2727 1.0000 (   381 PWs)   bands (ev):

   -85.3789 -45.6880 -45.5930 -45.5415  14.2307  14.8320  15.4620  17.0309
    17.4581  20.3140  28.9819  30.4185  33.3334

          k = 0.5455-0.1818 0.9091 (   380 PWs)   bands (ev):

   -85.3758 -45.6773 -45.6113 -45.5601  14.5408  14.8832  15.3490  16.8723
    17.6932  22.5884  25.9052  30.3805  31.7711

          k = 0.6364-0.0909 1.0000 (   379 PWs)   bands (ev):

   -85.3741 -45.6614 -45.5921 -45.5919  14.2290  14.6901  15.8103  17.0956
    17.8636  22.9576  27.9339  28.5987  30.0212

          k = 0.5455 0.0000 0.9091 (   378 PWs)   bands (ev):

   -85.3738 -45.6492 -45.6349 -45.5613  14.4181  14.9670  15.3996  16.9319
    17.8605  25.1603  25.2205  28.3045  30.3127

     the Fermi energy is    17.7434 ev

!    total energy              =    -428.99081246 Ry
     Harris-Foulkes estimate   =    -428.99081246 Ry
     estimated scf accuracy    <          1.1E-09 Ry

     total all-electron energy =     -3041.422920 Ry

     The total energy is the sum of the following terms:

     one-electron contribution =    -184.88830016 Ry
     hartree contribution      =     104.64223072 Ry
     xc contribution           =     -34.32296096 Ry
     ewald contribution        =    -223.38275378 Ry
     one-center paw contrib.   =     -91.03619853 Ry
     smearing contrib. (-TS)   =      -0.00282974 Ry

     convergence has been achieved in   7 iterations

     Forces acting on atoms (cartesian axes, Ry/au):

     atom    1 type  1   force =     0.00000000    0.00000000    0.00000000

     Total force =     0.000000     Total SCF correction =     0.000000


     Computing stress (Cartesian axis) and pressure

          total   stress  (Ry/bohr**3)                   (kbar)     P=-2387.94
  -0.01623286  -0.00000000   0.00000000      -2387.94     -0.00      0.00
  -0.00000000  -0.01623286   0.00000000         -0.00  -2387.94      0.00
  -0.00000000   0.00000000  -0.01623286         -0.00      0.00  -2387.94


     Writing output data file Ni.save/

     init_run     :      0.34s CPU      0.37s WALL (       1 calls)
     electrons    :      3.76s CPU      4.07s WALL (       1 calls)
     forces       :      0.03s CPU      0.03s WALL (       1 calls)
     stress       :      0.09s CPU      0.09s WALL (       1 calls)

     Called by init_run:
     wfcinit      :      0.11s CPU      0.13s WALL (       1 calls)
     potinit      :      0.09s CPU      0.11s WALL (       1 calls)
     hinit0       :      0.12s CPU      0.12s WALL (       1 calls)

     Called by electrons:
     c_bands      :      2.64s CPU      2.84s WALL (       8 calls)
     sum_band     :      0.47s CPU      0.49s WALL (       8 calls)
     v_of_rho     :      0.02s CPU      0.02s WALL (       8 calls)
     newd         :      0.02s CPU      0.02s WALL (       8 calls)
     PAW_pot      :      0.68s CPU      0.79s WALL (       8 calls)
     mix_rho      :      0.00s CPU      0.00s WALL (       8 calls)

     Called by c_bands:
     init_us_2    :      0.05s CPU      0.06s WALL (    1064 calls)
     cegterg      :      2.56s CPU      2.75s WALL (     448 calls)

     Called by sum_band:
     sum_band:bec :      0.00s CPU      0.01s WALL (     448 calls)
     addusdens    :      0.02s CPU      0.03s WALL (       8 calls)

     Called by *egterg:
     h_psi        :      1.86s CPU      2.01s WALL (    1428 calls)
     s_psi        :      0.05s CPU      0.05s WALL (    1428 calls)
     g_psi        :      0.00s CPU      0.00s WALL (     924 calls)
     cdiaghg      :      0.43s CPU      0.46s WALL (    1316 calls)

     Called by h_psi:
     h_psi:pot    :      1.85s CPU      2.00s WALL (    1428 calls)
     h_psi:calbec :      0.07s CPU      0.08s WALL (    1428 calls)
     vloc_psi     :      1.72s CPU      1.86s WALL (    1428 calls)
     add_vuspsi   :      0.05s CPU      0.05s WALL (    1428 calls)

     General routines
     calbec       :      0.12s CPU      0.13s WALL (    2156 calls)
     fft          :      0.01s CPU      0.01s WALL (     115 calls)
     ffts         :      0.00s CPU      0.00s WALL (       8 calls)
     fftw         :      1.92s CPU      2.06s WALL (   35230 calls)

     Parallel routines
     fft_scatt_xy :      0.18s CPU      0.19s WALL (   35353 calls)
     fft_scatt_yz :      0.53s CPU      0.57s WALL (   35353 calls)

     PWSCF        :     5.01s CPU         5.43s WALL


   This run was terminated on:  22:36:23  26Mar2024            

=------------------------------------------------------------------------------=
   JOB DONE.
=------------------------------------------------------------------------------=
