
     Program PWSCF v.6.3MaX starts on 26Mar2024 at 22:29:21 

     This program is part of the open-source Quantum ESPRESSO suite
     for quantum simulation of materials; please cite
         "P. Giannozzi et al., J. Phys.:Condens. Matter 21 395502 (2009);
         "P. Giannozzi et al., J. Phys.:Condens. Matter 29 465901 (2017);
          URL http://www.quantum-espresso.org", 
     in publications or presentations arising from this work. More details at
     http://www.quantum-espresso.org/quote

     Parallel version (MPI), running on     5 processors

     MPI processes distributed on     1 nodes
     R & G space division:  proc/nbgrp/npool/nimage =       5
     Waiting for input...
     Reading input from standard input

     Current dimensions of program PWSCF are:
     Max number of different atomic species (ntypx) = 10
     Max number of k-points (npk) =  40000
     Max angular momentum in pseudopotentials (lmaxx) =  3
               file Ni.pbe-spn-kjpaw_psl.1.0.0.UPF: wavefunction(s)  3P 3D renormalized

     Subspace diagonalization in iterative solution of the eigenvalue problem:
     a serial algorithm will be used


     Parallelization info
     --------------------
     sticks:   dense  smooth     PW     G-vecs:    dense   smooth      PW
     Min          30      30     12                  248      248      61
     Max          31      31     13                  250      250      62
     Sum         151     151     61                 1243     1243     307



     bravais-lattice index     =            2
     lattice parameter (alat)  =       6.6500  a.u.
     unit-cell volume          =      73.5199 (a.u.)^3
     number of atoms/cell      =            1
     number of atomic types    =            1
     number of electrons       =        18.00
     number of Kohn-Sham states=           13
     kinetic-energy cutoff     =      25.0000  Ry
     charge density cutoff     =     100.0000  Ry
     convergence threshold     =      1.0E-08
     mixing beta               =       0.7000
     number of iterations used =            8  plain     mixing
     Exchange-correlation      = SLA PW PBX PBC ( 1  4  3  4 0 0)

     celldm(1)=   6.650000  celldm(2)=   0.000000  celldm(3)=   0.000000
     celldm(4)=   0.000000  celldm(5)=   0.000000  celldm(6)=   0.000000

     crystal axes: (cart. coord. in units of alat)
               a(1) = (  -0.500000   0.000000   0.500000 )  
               a(2) = (   0.000000   0.500000   0.500000 )  
               a(3) = (  -0.500000   0.500000   0.000000 )  

     reciprocal axes: (cart. coord. in units 2 pi/alat)
               b(1) = ( -1.000000 -1.000000  1.000000 )  
               b(2) = (  1.000000  1.000000  1.000000 )  
               b(3) = ( -1.000000  1.000000 -1.000000 )  


     PseudoPot. # 1 for Ni read from file:
     /home/lorenzo/pseudos/Ni/Ni.pbe-spn-kjpaw_psl.1.0.0.UPF
     MD5 check sum: 6e86b733589c3ad8389697b807d86aa7
     Pseudo is Projector augmented-wave + core cor, Zval = 18.0
     Generated using "atomic" code by A. Dal Corso v.6.3
     Shape of augmentation charge: PSQ
     Using radial grid of 1195 points,  6 beta functions with: 
                l(1) =   0
                l(2) =   0
                l(3) =   1
                l(4) =   1
                l(5) =   2
                l(6) =   2
     Q(r) pseudized with 0 coefficients 


     atomic species   valence    mass     pseudopotential
        Ni            18.00    58.69340     Ni( 1.00)

     48 Sym. Ops., with inversion, found



   Cartesian axes

     site n.     atom                  positions (alat units)
         1           Ni  tau(   1) = (   0.0000000   0.0000000   0.0000000  )

     number of k points=    29  gaussian smearing, width (Ry)=  0.0100
                       cart. coord. in units 2pi/alat
        k(    1) = (   0.0000000   0.0000000   0.0000000), wk =   0.0039062
        k(    2) = (  -0.1250000   0.1250000  -0.1250000), wk =   0.0312500
        k(    3) = (  -0.2500000   0.2500000  -0.2500000), wk =   0.0312500
        k(    4) = (  -0.3750000   0.3750000  -0.3750000), wk =   0.0312500
        k(    5) = (   0.5000000  -0.5000000   0.5000000), wk =   0.0156250
        k(    6) = (   0.0000000   0.2500000   0.0000000), wk =   0.0234375
        k(    7) = (  -0.1250000   0.3750000  -0.1250000), wk =   0.0937500
        k(    8) = (  -0.2500000   0.5000000  -0.2500000), wk =   0.0937500
        k(    9) = (   0.6250000  -0.3750000   0.6250000), wk =   0.0937500
        k(   10) = (   0.5000000  -0.2500000   0.5000000), wk =   0.0937500
        k(   11) = (   0.3750000  -0.1250000   0.3750000), wk =   0.0937500
        k(   12) = (   0.2500000   0.0000000   0.2500000), wk =   0.0468750
        k(   13) = (   0.0000000   0.5000000   0.0000000), wk =   0.0234375
        k(   14) = (  -0.1250000   0.6250000  -0.1250000), wk =   0.0937500
        k(   15) = (   0.7500000  -0.2500000   0.7500000), wk =   0.0937500
        k(   16) = (   0.6250000  -0.1250000   0.6250000), wk =   0.0937500
        k(   17) = (   0.5000000   0.0000000   0.5000000), wk =   0.0468750
        k(   18) = (   0.0000000   0.7500000   0.0000000), wk =   0.0234375
        k(   19) = (   0.8750000  -0.1250000   0.8750000), wk =   0.0937500
        k(   20) = (   0.7500000   0.0000000   0.7500000), wk =   0.0468750
        k(   21) = (   0.0000000  -1.0000000   0.0000000), wk =   0.0117188
        k(   22) = (  -0.2500000   0.5000000   0.0000000), wk =   0.0937500
        k(   23) = (   0.6250000  -0.3750000   0.8750000), wk =   0.1875000
        k(   24) = (   0.5000000  -0.2500000   0.7500000), wk =   0.0937500
        k(   25) = (   0.7500000  -0.2500000   1.0000000), wk =   0.0937500
        k(   26) = (   0.6250000  -0.1250000   0.8750000), wk =   0.1875000
        k(   27) = (   0.5000000   0.0000000   0.7500000), wk =   0.0937500
        k(   28) = (  -0.2500000  -1.0000000   0.0000000), wk =   0.0468750
        k(   29) = (  -0.5000000  -1.0000000   0.0000000), wk =   0.0234375

     Dense  grid:     1243 G-vectors     FFT dimensions: (  15,  15,  15)

     Estimated max dynamical RAM per process >       1.95 MB

     Estimated total dynamical RAM >       9.77 MB

     Check: negative/imaginary core charge=   -0.000244    0.000000

     Initial potential from superposition of free atoms
     Check: negative starting charge=   -0.002907

     starting charge   17.99975, renormalised to   18.00000

     negative rho (up, down):  2.907E-03 0.000E+00
     Starting wfcs are   10 randomized atomic wfcs +    3 random wfcs
     Checking if some PAW data can be deallocated... 

     total cpu time spent up to now is        1.1 secs

     Self-consistent Calculation

     iteration #  1     ecut=    25.00 Ry     beta= 0.70
     Davidson diagonalization with overlap
     ethr =  1.00E-02,  avg # of iterations =  4.0

     total cpu time spent up to now is        1.4 secs

     total energy              =    -413.39013167 Ry
     Harris-Foulkes estimate   =    -419.49805959 Ry
     estimated scf accuracy    <       7.21321503 Ry

     iteration #  2     ecut=    25.00 Ry     beta= 0.70
     Davidson diagonalization with overlap
     ethr =  1.00E-02,  avg # of iterations =  2.0

     total cpu time spent up to now is        1.6 secs

     total energy              =    -415.93895334 Ry
     Harris-Foulkes estimate   =    -420.82713687 Ry
     estimated scf accuracy    <      10.08511531 Ry

     iteration #  3     ecut=    25.00 Ry     beta= 0.70
     Davidson diagonalization with overlap
     ethr =  1.00E-02,  avg # of iterations =  2.0

     negative rho (up, down):  8.851E-04 0.000E+00

     total cpu time spent up to now is        1.8 secs

     total energy              =    -417.10321513 Ry
     Harris-Foulkes estimate   =    -417.20748805 Ry
     estimated scf accuracy    <       0.15844136 Ry

     iteration #  4     ecut=    25.00 Ry     beta= 0.70
     Davidson diagonalization with overlap
     ethr =  8.80E-04,  avg # of iterations =  2.0

     negative rho (up, down):  3.148E-04 0.000E+00

     total cpu time spent up to now is        2.0 secs

     total energy              =    -417.14889361 Ry
     Harris-Foulkes estimate   =    -417.22271037 Ry
     estimated scf accuracy    <       0.24121801 Ry

     iteration #  5     ecut=    25.00 Ry     beta= 0.70
     Davidson diagonalization with overlap
     ethr =  8.80E-04,  avg # of iterations =  1.3

     negative rho (up, down):  1.789E-05 0.000E+00

     total cpu time spent up to now is        2.2 secs

     total energy              =    -417.15873359 Ry
     Harris-Foulkes estimate   =    -417.16798068 Ry
     estimated scf accuracy    <       0.02329304 Ry

     iteration #  6     ecut=    25.00 Ry     beta= 0.70
     Davidson diagonalization with overlap
     ethr =  1.29E-04,  avg # of iterations =  1.6

     negative rho (up, down):  1.375E-06 0.000E+00

     total cpu time spent up to now is        2.4 secs

     total energy              =    -417.16241456 Ry
     Harris-Foulkes estimate   =    -417.16242171 Ry
     estimated scf accuracy    <       0.00001789 Ry

     iteration #  7     ecut=    25.00 Ry     beta= 0.70
     Davidson diagonalization with overlap
     ethr =  9.94E-08,  avg # of iterations =  2.1

     total cpu time spent up to now is        2.6 secs

     total energy              =    -417.16241928 Ry
     Harris-Foulkes estimate   =    -417.16241951 Ry
     estimated scf accuracy    <       0.00000064 Ry

     iteration #  8     ecut=    25.00 Ry     beta= 0.70
     Davidson diagonalization with overlap
     ethr =  3.58E-09,  avg # of iterations =  2.0

     total cpu time spent up to now is        2.8 secs

     total energy              =    -417.16241941 Ry
     Harris-Foulkes estimate   =    -417.16241945 Ry
     estimated scf accuracy    <       0.00000008 Ry

     iteration #  9     ecut=    25.00 Ry     beta= 0.70
     Davidson diagonalization with overlap
     ethr =  4.30E-10,  avg # of iterations =  2.0

     total cpu time spent up to now is        3.1 secs

     End of self-consistent calculation

          k = 0.0000 0.0000 0.0000 (   169 PWs)   bands (ev):

   -99.6798 -49.2545 -49.2545 -49.2545   9.9185  13.0972  13.0972  14.4299
    14.4299  14.4299  42.6492  46.1660  46.1660

          k =-0.1250 0.1250-0.1250 (   159 PWs)   bands (ev):

   -99.4148 -47.4414 -47.4414 -45.8199  10.5902  15.1778  15.1778  16.2013
    17.6187  17.6187  38.9496  43.7048  44.5181

          k =-0.2500 0.2500-0.2500 (   150 PWs)   bands (ev):

   -99.2036 -45.6502 -45.6502 -42.9662  12.3674  17.1801  17.1801  19.0187
    20.0606  20.0606  33.9447  42.7138  43.6713

          k =-0.3750 0.3750-0.3750 (   153 PWs)   bands (ev):

   -99.2496 -46.0192 -46.0192 -44.0838  14.7852  16.8459  16.8459  17.6471
    19.2386  19.2386  28.9973  41.6651  43.2589

          k = 0.5000-0.5000 0.5000 (   156 PWs)   bands (ev):

   -99.2914 -47.4130 -45.2935 -45.2935  12.7232  17.5007  17.5007  18.3714
    19.6484  19.6484  22.6997  41.1696  43.5446

          k = 0.0000 0.2500 0.0000 (   161 PWs)   bands (ev):

   -99.4628 -48.1734 -48.1734 -45.8029  10.7149  13.3125  15.7518  16.5176
    16.8505  16.8505  40.4098  41.8022  41.8022

          k =-0.1250 0.3750-0.1250 (   157 PWs)   bands (ev):

   -99.3498 -47.5621 -46.8375 -44.7116  12.0291  15.2374  15.6763  17.1402
    17.9034  18.6439  35.5697  40.2267  40.5321

          k =-0.2500 0.5000-0.2500 (   151 PWs)   bands (ev):

   -99.1970 -45.8117 -45.4198 -43.3359  14.3163  16.2794  17.9770  18.2292
    20.0596  20.2784  30.8751  39.3241  39.9079

          k = 0.6250-0.3750 0.6250 (   157 PWs)   bands (ev):

   -99.2986 -47.1501 -45.6695 -45.5687  13.6318  17.0224  17.2234  17.3640
    18.5784  19.5642  24.8016  37.8042  40.2139

          k = 0.5000-0.2500 0.5000 (   154 PWs)   bands (ev):

   -99.2417 -45.9354 -45.5413 -44.9035  14.5863  17.1594  17.4132  17.6025
    18.8348  20.0724  27.1699  37.1053  42.3754

          k = 0.3750-0.1250 0.3750 (   150 PWs)   bands (ev):

   -99.1822 -45.5758 -45.4266 -42.9578  13.5296  16.4871  17.8701  18.6935
    19.8835  21.1790  32.5798  36.9390  44.2400

          k = 0.2500 0.0000 0.2500 (   157 PWs)   bands (ev):

   -99.3689 -47.1576 -46.8580 -45.2790  11.5301  15.3345  16.2202  16.8769
    17.3096  18.5771  36.8664  38.3861  46.0709

          k = 0.0000 0.5000 0.0000 (   149 PWs)   bands (ev):

   -99.1438 -44.8860 -44.8860 -43.1802  13.0721  16.4664  19.2641  19.5072
    20.4432  20.4432  38.2306  38.2306  38.4132

          k =-0.1250 0.6250-0.1250 (   153 PWs)   bands (ev):

   -99.2015 -46.4140 -45.6972 -43.4150  14.5416  16.0663  16.4338  18.4912
    19.7574  20.6352  33.2299  35.9885  36.9307

          k = 0.7500-0.2500 0.7500 (   154 PWs)   bands (ev):

   -99.2009 -46.5399 -44.7695 -44.5154  14.2082  16.8025  18.0324  18.5077
    20.0617  20.4788  27.8180  33.3328  37.3869

          k = 0.6250-0.1250 0.6250 (   156 PWs)   bands (ev):

   -99.2418 -46.2664 -46.0029 -44.8823  14.9300  16.8359  17.2817  17.3499
    18.0950  22.0804  26.2745  31.9846  38.8319

          k = 0.5000 0.0000 0.5000 (   156 PWs)   bands (ev):

   -99.2757 -46.6041 -45.5377 -45.5222  13.9145  16.2187  16.7068  18.0997
    18.4144  18.8729  31.6809  31.8546  41.5735

          k = 0.0000 0.7500 0.0000 (   154 PWs)   bands (ev):

   -99.1920 -45.4378 -45.4378 -44.8143  15.3753  16.0555  18.2580  18.4792
    19.5972  19.5972  32.4054  35.1430  35.1430

          k = 0.8750-0.1250 0.8750 (   154 PWs)   bands (ev):

   -99.1659 -45.6624 -45.2270 -44.4714  15.3758  16.9105  17.7934  18.6494
    19.8076  21.9597  29.3329  31.3272  34.4374

          k = 0.7500 0.0000 0.7500 (   150 PWs)   bands (ev):

   -99.0666 -45.0013 -43.7674 -43.6215  17.1618  17.4514  18.4228  19.4412
    20.2519  24.9284  26.5254  29.9526  36.1306

          k = 0.0000-1.0000 0.0000 (   150 PWs)   bands (ev):

   -99.0995 -44.3060 -44.3060 -44.1682  16.0840  17.7453  19.4755  20.7889
    20.7889  21.3600  28.2768  33.7468  33.7468

          k =-0.2500 0.5000 0.0000 (   152 PWs)   bands (ev):

   -99.2138 -46.0263 -45.6259 -43.5328  13.6225  16.4329  16.9977  18.9708
    19.2048  20.2180  34.3375  34.8842  40.3544

          k = 0.6250-0.3750 0.8750 (   153 PWs)   bands (ev):

   -99.2043 -45.4976 -45.3470 -44.6021  14.9270  17.2719  17.9884  18.2899
    19.0422  19.6256  29.5151  34.2975  37.5445

          k = 0.5000-0.2500 0.7500 (   164 PWs)   bands (ev):

   -99.4247 -48.5493 -47.1929 -47.0446  13.6183  14.5871  15.2619  15.5061
    17.2020  21.1975  23.8542  33.9283  35.8951

          k = 0.7500-0.2500 1.0000 (   153 PWs)   bands (ev):

   -99.1824 -45.8280 -44.9715 -44.3642  14.6337  17.2043  18.2111  19.0933
    19.1947  20.6497  31.7403  32.3656  33.4740

          k = 0.6250-0.1250 0.8750 (   157 PWs)   bands (ev):

   -99.2547 -46.8519 -45.7547 -45.2424  15.0944  16.5770  16.7678  17.3586
    17.8968  23.1240  27.2134  30.6998  32.9736

          k = 0.5000 0.0000 0.7500 (   156 PWs)   bands (ev):

   -99.2417 -46.8741 -45.4790 -44.8804  14.6070  17.0525  17.1270  17.4586
    18.6573  21.8212  28.3234  30.2301  34.5877

          k =-0.2500-1.0000 0.0000 (   156 PWs)   bands (ev):

   -99.2046 -46.7221 -45.4509 -44.6213  15.2110  16.6344  16.6442  17.8519
    19.9561  22.5845  28.4717  30.7125  32.0709

          k =-0.5000-1.0000 0.0000 (   156 PWs)   bands (ev):

   -99.2442 -45.8928 -45.8928 -45.3721  16.1068  16.5952  16.5952  17.1073
    17.7154  27.0013  27.0013  28.9314  30.4242

     the Fermi energy is    19.7450 ev

!    total energy              =    -417.16241941 Ry
     Harris-Foulkes estimate   =    -417.16241942 Ry
     estimated scf accuracy    <          8.1E-09 Ry

     total all-electron energy =     -3029.594527 Ry

     The total energy is the sum of the following terms:

     one-electron contribution =    -162.23453393 Ry
     hartree contribution      =      92.05664843 Ry
     xc contribution           =     -33.06755925 Ry
     ewald contribution        =    -223.38275373 Ry
     one-center paw contrib.   =     -90.53324631 Ry
     smearing contrib. (-TS)   =      -0.00097464 Ry

     convergence has been achieved in   9 iterations

     Forces acting on atoms (cartesian axes, Ry/au):

     atom    1 type  1   force =     0.00000000    0.00000000    0.00000000

     Total force =     0.000000     Total SCF correction =     0.000000


     Computing stress (Cartesian axis) and pressure

          total   stress  (Ry/bohr**3)                   (kbar)     P=********
  -0.54591930  -0.00000000   0.00000000     -80307.49     -0.00      0.00
  -0.00000000  -0.54591930  -0.00000000         -0.00 -80307.49     -0.00
   0.00000000   0.00000000  -0.54591930          0.00      0.00 -80307.49


     Writing output data file Ni.save/

     init_run     :      0.23s CPU      0.26s WALL (       1 calls)
     electrons    :      1.76s CPU      2.01s WALL (       1 calls)
     forces       :      0.01s CPU      0.01s WALL (       1 calls)
     stress       :      0.03s CPU      0.03s WALL (       1 calls)

     Called by init_run:
     wfcinit      :      0.03s CPU      0.04s WALL (       1 calls)
     potinit      :      0.10s CPU      0.11s WALL (       1 calls)
     hinit0       :      0.09s CPU      0.09s WALL (       1 calls)

     Called by electrons:
     c_bands      :      0.82s CPU      0.92s WALL (       9 calls)
     sum_band     :      0.12s CPU      0.13s WALL (       9 calls)
     v_of_rho     :      0.01s CPU      0.01s WALL (      10 calls)
     newd         :      0.01s CPU      0.01s WALL (      10 calls)
     PAW_pot      :      0.90s CPU      1.02s WALL (      10 calls)
     mix_rho      :      0.00s CPU      0.00s WALL (       9 calls)

     Called by c_bands:
     init_us_2    :      0.01s CPU      0.02s WALL (     609 calls)
     cegterg      :      0.80s CPU      0.90s WALL (     261 calls)

     Called by sum_band:
     sum_band:bec :      0.00s CPU      0.00s WALL (     261 calls)
     addusdens    :      0.01s CPU      0.01s WALL (       9 calls)

     Called by *egterg:
     h_psi        :      0.46s CPU      0.53s WALL (     840 calls)
     s_psi        :      0.02s CPU      0.02s WALL (     840 calls)
     g_psi        :      0.00s CPU      0.00s WALL (     550 calls)
     cdiaghg      :      0.24s CPU      0.26s WALL (     811 calls)

     Called by h_psi:
     h_psi:pot    :      0.46s CPU      0.52s WALL (     840 calls)
     h_psi:calbec :      0.02s CPU      0.03s WALL (     840 calls)
     vloc_psi     :      0.41s CPU      0.47s WALL (     840 calls)
     add_vuspsi   :      0.02s CPU      0.02s WALL (     840 calls)

     General routines
     calbec       :      0.04s CPU      0.04s WALL (    1246 calls)
     fft          :      0.01s CPU      0.01s WALL (     136 calls)
     ffts         :      0.00s CPU      0.00s WALL (       9 calls)
     fftw         :      0.44s CPU      0.51s WALL (   21065 calls)

     Parallel routines
     fft_scatt_xy :      0.05s CPU      0.06s WALL (   21210 calls)
     fft_scatt_yz :      0.18s CPU      0.20s WALL (   21210 calls)

     PWSCF        :     2.86s CPU         3.18s WALL


   This run was terminated on:  22:29:24  26Mar2024            

=------------------------------------------------------------------------------=
   JOB DONE.
=------------------------------------------------------------------------------=
