
     Program PWSCF v.6.3MaX starts on 26Mar2024 at 22:26:42 

     This program is part of the open-source Quantum ESPRESSO suite
     for quantum simulation of materials; please cite
         "P. Giannozzi et al., J. Phys.:Condens. Matter 21 395502 (2009);
         "P. Giannozzi et al., J. Phys.:Condens. Matter 29 465901 (2017);
          URL http://www.quantum-espresso.org", 
     in publications or presentations arising from this work. More details at
     http://www.quantum-espresso.org/quote

     Parallel version (MPI), running on     5 processors

     MPI processes distributed on     1 nodes
     R & G space division:  proc/nbgrp/npool/nimage =       5
     Waiting for input...
     Reading input from standard input

     Current dimensions of program PWSCF are:
     Max number of different atomic species (ntypx) = 10
     Max number of k-points (npk) =  40000
     Max angular momentum in pseudopotentials (lmaxx) =  3

     Subspace diagonalization in iterative solution of the eigenvalue problem:
     a serial algorithm will be used


     Parallelization info
     --------------------
     sticks:   dense  smooth     PW     G-vecs:    dense   smooth      PW
     Min          24      24      8                  178      178      36
     Max          25      25      9                  181      181      37
     Sum         121     121     43                  893      893     181



     bravais-lattice index     =            2
     lattice parameter (alat)  =       6.6500  a.u.
     unit-cell volume          =      73.5199 (a.u.)^3
     number of atoms/cell      =            1
     number of atomic types    =            1
     number of electrons       =        18.00
     number of Kohn-Sham states=           13
     kinetic-energy cutoff     =      20.0000  Ry
     charge density cutoff     =      80.0000  Ry
     convergence threshold     =      1.0E-08
     mixing beta               =       0.7000
     number of iterations used =            8  plain     mixing
     Exchange-correlation      = PBE ( 1  4  3  4 0 0)

     celldm(1)=   6.650000  celldm(2)=   0.000000  celldm(3)=   0.000000
     celldm(4)=   0.000000  celldm(5)=   0.000000  celldm(6)=   0.000000

     crystal axes: (cart. coord. in units of alat)
               a(1) = (  -0.500000   0.000000   0.500000 )  
               a(2) = (   0.000000   0.500000   0.500000 )  
               a(3) = (  -0.500000   0.500000   0.000000 )  

     reciprocal axes: (cart. coord. in units 2 pi/alat)
               b(1) = ( -1.000000 -1.000000  1.000000 )  
               b(2) = (  1.000000  1.000000  1.000000 )  
               b(3) = ( -1.000000  1.000000 -1.000000 )  


     PseudoPot. # 1 for Ni read from file:
     /home/lorenzo/pseudos/Ni/Ni.pbe-spn-rrkjus_psl.1.0.0.UPF
     MD5 check sum: 8b3fc9aac6dafe35f580d41bb18c3945
     Pseudo is Ultrasoft + core correction, Zval = 18.0
     Generated using "atomic" code by A. Dal Corso v.6.3
     Using radial grid of 1195 points,  6 beta functions with: 
                l(1) =   0
                l(2) =   0
                l(3) =   1
                l(4) =   1
                l(5) =   2
                l(6) =   2
     Q(r) pseudized with 0 coefficients 


     atomic species   valence    mass     pseudopotential
        Ni            18.00    58.69340     Ni( 1.00)

     48 Sym. Ops., with inversion, found



   Cartesian axes

     site n.     atom                  positions (alat units)
         1           Ni  tau(   1) = (   0.0000000   0.0000000   0.0000000  )

     number of k points=     8  gaussian smearing, width (Ry)=  0.0100
                       cart. coord. in units 2pi/alat
        k(    1) = (   0.0000000   0.0000000   0.0000000), wk =   0.0312500
        k(    2) = (  -0.2500000   0.2500000  -0.2500000), wk =   0.2500000
        k(    3) = (   0.5000000  -0.5000000   0.5000000), wk =   0.1250000
        k(    4) = (   0.0000000   0.5000000   0.0000000), wk =   0.1875000
        k(    5) = (   0.7500000  -0.2500000   0.7500000), wk =   0.7500000
        k(    6) = (   0.5000000   0.0000000   0.5000000), wk =   0.3750000
        k(    7) = (   0.0000000  -1.0000000   0.0000000), wk =   0.0937500
        k(    8) = (  -0.5000000  -1.0000000   0.0000000), wk =   0.1875000

     Dense  grid:      893 G-vectors     FFT dimensions: (  15,  15,  15)

     Estimated max dynamical RAM per process >       1.48 MB

     Estimated total dynamical RAM >       7.42 MB

     Check: negative/imaginary core charge=   -0.000640    0.000000

     Initial potential from superposition of free atoms
     Check: negative starting charge=   -0.021646

     starting charge   17.99975, renormalised to   18.00000

     negative rho (up, down):  2.165E-02 0.000E+00
     Starting wfcs are   10 randomized atomic wfcs +    3 random wfcs

     total cpu time spent up to now is        0.8 secs

     Self-consistent Calculation

     iteration #  1     ecut=    20.00 Ry     beta= 0.70
     Davidson diagonalization with overlap
     ethr =  1.00E-02,  avg # of iterations =  3.5

     total cpu time spent up to now is        0.9 secs

     total energy              =    -298.49357771 Ry
     Harris-Foulkes estimate   =    -320.51002337 Ry
     estimated scf accuracy    <      26.83880789 Ry

     iteration #  2     ecut=    20.00 Ry     beta= 0.70
     Davidson diagonalization with overlap
     ethr =  1.00E-02,  avg # of iterations =  3.1

     total cpu time spent up to now is        0.9 secs

     total energy              =    -307.64915254 Ry
     Harris-Foulkes estimate   =    -313.91569446 Ry
     estimated scf accuracy    <      11.17294217 Ry

     iteration #  3     ecut=    20.00 Ry     beta= 0.70
     Davidson diagonalization with overlap
     ethr =  1.00E-02,  avg # of iterations =  2.0

     total cpu time spent up to now is        0.9 secs

     total energy              =    -309.02435558 Ry
     Harris-Foulkes estimate   =    -309.18547558 Ry
     estimated scf accuracy    <       0.29823018 Ry

     iteration #  4     ecut=    20.00 Ry     beta= 0.70
     Davidson diagonalization with overlap
     ethr =  1.66E-03,  avg # of iterations =  2.0

     total cpu time spent up to now is        1.0 secs

     total energy              =    -309.06111450 Ry
     Harris-Foulkes estimate   =    -309.10873515 Ry
     estimated scf accuracy    <       0.09458224 Ry

     iteration #  5     ecut=    20.00 Ry     beta= 0.70
     Davidson diagonalization with overlap
     ethr =  5.25E-04,  avg # of iterations =  1.6

     total cpu time spent up to now is        1.0 secs

     total energy              =    -309.07804703 Ry
     Harris-Foulkes estimate   =    -309.07805112 Ry
     estimated scf accuracy    <       0.00011425 Ry

     iteration #  6     ecut=    20.00 Ry     beta= 0.70
     Davidson diagonalization with overlap
     ethr =  6.35E-07,  avg # of iterations =  2.0

     total cpu time spent up to now is        1.0 secs

     total energy              =    -309.07801475 Ry
     Harris-Foulkes estimate   =    -309.07806169 Ry
     estimated scf accuracy    <       0.00009114 Ry

     iteration #  7     ecut=    20.00 Ry     beta= 0.70
     Davidson diagonalization with overlap
     ethr =  5.06E-07,  avg # of iterations =  1.5

     total cpu time spent up to now is        1.1 secs

     total energy              =    -309.07803100 Ry
     Harris-Foulkes estimate   =    -309.07803105 Ry
     estimated scf accuracy    <       0.00000008 Ry

     iteration #  8     ecut=    20.00 Ry     beta= 0.70
     Davidson diagonalization with overlap
     ethr =  4.49E-10,  avg # of iterations =  2.4

     total cpu time spent up to now is        1.1 secs

     End of self-consistent calculation

          k = 0.0000 0.0000 0.0000 (   113 PWs)   bands (ev):

  -123.1895 -50.3342 -50.3342 -50.3342  10.8959  19.0714  19.0714  19.0714
    19.6650  19.6650  43.9899  48.2673  48.2673

          k =-0.2500 0.2500-0.2500 (   113 PWs)   bands (ev):

  -123.0792 -52.3508 -52.3508 -46.0330  12.9902  15.1872  15.1872  22.3330
    22.7628  22.7628  34.2609  43.1786  43.1786

          k = 0.5000-0.5000 0.5000 (   108 PWs)   bands (ev):

  -122.8477 -47.9637 -47.9637 -47.0895  16.9186  20.3070  20.6193  20.6193
    26.2875  26.2875  26.7918  44.9701  44.9701

          k = 0.0000 0.5000 0.0000 (   125 PWs)   bands (ev):

  -124.0699 -56.7857 -56.7857 -56.7541   8.3634  10.5558  12.3791  12.3791
    14.7171  14.9430  36.9338  37.6166  37.6166

          k = 0.7500-0.2500 0.7500 (   110 PWs)   bands (ev):

  -123.0946 -50.5353 -49.9233 -47.0807  14.2405  18.2372  19.5399  22.6436
    26.0896  26.6487  28.3699  33.0254  38.2151

          k = 0.5000 0.0000 0.5000 (   107 PWs)   bands (ev):

  -122.7613 -48.6870 -47.4851 -45.8088  16.9642  21.2633  21.8913  22.4889
    25.5665  27.1635  29.6697  32.9893  42.4592

          k = 0.0000-1.0000 0.0000 (   116 PWs)   bands (ev):

  -123.6839 -55.1303 -55.1303 -48.4306   3.5946  14.2148  22.0536  22.7683
    23.4139  23.4139  28.5922  33.7150  34.4155

          k =-0.5000-1.0000 0.0000 (   108 PWs)   bands (ev):

  -123.1002 -50.5259 -47.5214 -47.5214  19.9186  20.1510  21.0857  21.0857
    27.2787  27.2787  27.8842  30.0604  31.2259

     the Fermi energy is    26.1269 ev

!    total energy              =    -309.07803104 Ry
     Harris-Foulkes estimate   =    -309.07803104 Ry
     estimated scf accuracy    <          4.3E-09 Ry

     The total energy is the sum of the following terms:

     one-electron contribution =    -123.98151839 Ry
     hartree contribution      =      68.10318261 Ry
     xc contribution           =     -29.81480374 Ry
     ewald contribution        =    -223.38275379 Ry
     smearing contrib. (-TS)   =      -0.00213774 Ry

     convergence has been achieved in   8 iterations

     Forces acting on atoms (cartesian axes, Ry/au):

     atom    1 type  1   force =     0.00000000    0.00000000    0.00000000

     Total force =     0.000000     Total SCF correction =     0.000000


     Computing stress (Cartesian axis) and pressure

          total   stress  (Ry/bohr**3)                   (kbar)     P=********
  -0.95170418  -0.00000000  -0.00000000    -140000.49     -0.00     -0.00
  -0.00000000  -0.95170418   0.00000000         -0.00-140000.49      0.00
  -0.00000000   0.00000000  -0.95170418         -0.00      0.00-140000.49


     Writing output data file Ni.save/

     init_run     :      0.10s CPU      0.10s WALL (       1 calls)
     electrons    :      0.26s CPU      0.30s WALL (       1 calls)
     forces       :      0.01s CPU      0.01s WALL (       1 calls)
     stress       :      0.02s CPU      0.02s WALL (       1 calls)

     Called by init_run:
     wfcinit      :      0.01s CPU      0.01s WALL (       1 calls)
     potinit      :      0.00s CPU      0.00s WALL (       1 calls)
     hinit0       :      0.08s CPU      0.09s WALL (       1 calls)

     Called by electrons:
     c_bands      :      0.21s CPU      0.24s WALL (       8 calls)
     sum_band     :      0.03s CPU      0.04s WALL (       8 calls)
     v_of_rho     :      0.01s CPU      0.01s WALL (       9 calls)
     newd         :      0.01s CPU      0.01s WALL (       9 calls)
     mix_rho      :      0.00s CPU      0.00s WALL (       8 calls)

     Called by c_bands:
     init_us_2    :      0.00s CPU      0.00s WALL (     152 calls)
     cegterg      :      0.20s CPU      0.23s WALL (      64 calls)

     Called by sum_band:
     sum_band:bec :      0.00s CPU      0.00s WALL (      64 calls)
     addusdens    :      0.01s CPU      0.01s WALL (       8 calls)

     Called by *egterg:
     h_psi        :      0.12s CPU      0.13s WALL (     217 calls)
     s_psi        :      0.00s CPU      0.00s WALL (     217 calls)
     g_psi        :      0.00s CPU      0.00s WALL (     145 calls)
     cdiaghg      :      0.06s CPU      0.07s WALL (     209 calls)

     Called by h_psi:
     h_psi:pot    :      0.11s CPU      0.13s WALL (     217 calls)
     h_psi:calbec :      0.01s CPU      0.01s WALL (     217 calls)
     vloc_psi     :      0.10s CPU      0.12s WALL (     217 calls)
     add_vuspsi   :      0.00s CPU      0.00s WALL (     217 calls)

     General routines
     calbec       :      0.01s CPU      0.01s WALL (     321 calls)
     fft          :      0.01s CPU      0.01s WALL (     125 calls)
     ffts         :      0.00s CPU      0.00s WALL (       8 calls)
     fftw         :      0.11s CPU      0.12s WALL (    5290 calls)

     Parallel routines
     fft_scatt_xy :      0.01s CPU      0.01s WALL (    5423 calls)
     fft_scatt_yz :      0.04s CPU      0.05s WALL (    5423 calls)

     PWSCF        :     1.08s CPU         1.17s WALL


   This run was terminated on:  22:26:43  26Mar2024            

=------------------------------------------------------------------------------=
   JOB DONE.
=------------------------------------------------------------------------------=
