
     Program PWSCF v.6.3MaX starts on 26Mar2024 at 23: 5:30 

     This program is part of the open-source Quantum ESPRESSO suite
     for quantum simulation of materials; please cite
         "P. Giannozzi et al., J. Phys.:Condens. Matter 21 395502 (2009);
         "P. Giannozzi et al., J. Phys.:Condens. Matter 29 465901 (2017);
          URL http://www.quantum-espresso.org", 
     in publications or presentations arising from this work. More details at
     http://www.quantum-espresso.org/quote

     Parallel version (MPI), running on     5 processors

     MPI processes distributed on     1 nodes
     R & G space division:  proc/nbgrp/npool/nimage =       5
     Waiting for input...
     Reading input from standard input

     Current dimensions of program PWSCF are:
     Max number of different atomic species (ntypx) = 10
     Max number of k-points (npk) =  40000
     Max angular momentum in pseudopotentials (lmaxx) =  3

     Subspace diagonalization in iterative solution of the eigenvalue problem:
     a serial algorithm will be used


     Parallelization info
     --------------------
     sticks:   dense  smooth     PW     G-vecs:    dense   smooth      PW
     Min         116     116     33                 1850     1850     294
     Max         117     117     35                 1853     1853     295
     Sum         583     583    169                 9257     9257    1471



     bravais-lattice index     =            2
     lattice parameter (alat)  =       6.6500  a.u.
     unit-cell volume          =      73.5199 (a.u.)^3
     number of atoms/cell      =            1
     number of atomic types    =            1
     number of electrons       =        18.00
     number of Kohn-Sham states=           13
     kinetic-energy cutoff     =      95.0000  Ry
     charge density cutoff     =     380.0000  Ry
     convergence threshold     =      1.0E-08
     mixing beta               =       0.7000
     number of iterations used =            8  plain     mixing
     Exchange-correlation      = PBE ( 1  4  3  4 0 0)

     celldm(1)=   6.650000  celldm(2)=   0.000000  celldm(3)=   0.000000
     celldm(4)=   0.000000  celldm(5)=   0.000000  celldm(6)=   0.000000

     crystal axes: (cart. coord. in units of alat)
               a(1) = (  -0.500000   0.000000   0.500000 )  
               a(2) = (   0.000000   0.500000   0.500000 )  
               a(3) = (  -0.500000   0.500000   0.000000 )  

     reciprocal axes: (cart. coord. in units 2 pi/alat)
               b(1) = ( -1.000000 -1.000000  1.000000 )  
               b(2) = (  1.000000  1.000000  1.000000 )  
               b(3) = ( -1.000000  1.000000 -1.000000 )  


     PseudoPot. # 1 for Ni read from file:
     /home/lorenzo/pseudos/Ni/Ni.pbe-spn-rrkjus_psl.1.0.0.UPF
     MD5 check sum: 8b3fc9aac6dafe35f580d41bb18c3945
     Pseudo is Ultrasoft + core correction, Zval = 18.0
     Generated using "atomic" code by A. Dal Corso v.6.3
     Using radial grid of 1195 points,  6 beta functions with: 
                l(1) =   0
                l(2) =   0
                l(3) =   1
                l(4) =   1
                l(5) =   2
                l(6) =   2
     Q(r) pseudized with 0 coefficients 


     atomic species   valence    mass     pseudopotential
        Ni            18.00    58.69340     Ni( 1.00)

     48 Sym. Ops., with inversion, found



   Cartesian axes

     site n.     atom                  positions (alat units)
         1           Ni  tau(   1) = (   0.0000000   0.0000000   0.0000000  )

     number of k points=     8  gaussian smearing, width (Ry)=  0.0100
                       cart. coord. in units 2pi/alat
        k(    1) = (   0.0000000   0.0000000   0.0000000), wk =   0.0312500
        k(    2) = (  -0.2500000   0.2500000  -0.2500000), wk =   0.2500000
        k(    3) = (   0.5000000  -0.5000000   0.5000000), wk =   0.1250000
        k(    4) = (   0.0000000   0.5000000   0.0000000), wk =   0.1875000
        k(    5) = (   0.7500000  -0.2500000   0.7500000), wk =   0.7500000
        k(    6) = (   0.5000000   0.0000000   0.5000000), wk =   0.3750000
        k(    7) = (   0.0000000  -1.0000000   0.0000000), wk =   0.0937500
        k(    8) = (  -0.5000000  -1.0000000   0.0000000), wk =   0.1875000

     Dense  grid:     9257 G-vectors     FFT dimensions: (  30,  30,  30)

     Estimated max dynamical RAM per process >       8.95 MB

     Estimated total dynamical RAM >      44.74 MB

     Check: negative/imaginary core charge=   -0.000003    0.000000

     Initial potential from superposition of free atoms

     starting charge   17.99975, renormalised to   18.00000
     Starting wfcs are   10 randomized atomic wfcs +    3 random wfcs

     total cpu time spent up to now is        1.0 secs

     Self-consistent Calculation

     iteration #  1     ecut=    95.00 Ry     beta= 0.70
     Davidson diagonalization with overlap
     ethr =  1.00E-02,  avg # of iterations =  3.9

     Threshold (ethr) on eigenvalues was too large:
     Diagonalizing with lowered threshold

     Davidson diagonalization with overlap
     ethr =  1.66E-05,  avg # of iterations =  3.0

     total cpu time spent up to now is        1.3 secs

     total energy              =    -339.61072216 Ry
     Harris-Foulkes estimate   =    -339.61209069 Ry
     estimated scf accuracy    <       0.00297431 Ry

     iteration #  2     ecut=    95.00 Ry     beta= 0.70
     Davidson diagonalization with overlap
     ethr =  1.65E-05,  avg # of iterations =  2.2

     total cpu time spent up to now is        1.4 secs

     total energy              =    -339.61021225 Ry
     Harris-Foulkes estimate   =    -339.61287096 Ry
     estimated scf accuracy    <       0.00665078 Ry

     iteration #  3     ecut=    95.00 Ry     beta= 0.70
     Davidson diagonalization with overlap
     ethr =  1.65E-05,  avg # of iterations =  2.2

     total cpu time spent up to now is        1.6 secs

     total energy              =    -339.61152510 Ry
     Harris-Foulkes estimate   =    -339.61160407 Ry
     estimated scf accuracy    <       0.00027604 Ry

     iteration #  4     ecut=    95.00 Ry     beta= 0.70
     Davidson diagonalization with overlap
     ethr =  1.53E-06,  avg # of iterations =  1.4

     total cpu time spent up to now is        1.7 secs

     total energy              =    -339.61156415 Ry
     Harris-Foulkes estimate   =    -339.61156385 Ry
     estimated scf accuracy    <       0.00000056 Ry

     iteration #  5     ecut=    95.00 Ry     beta= 0.70
     Davidson diagonalization with overlap
     ethr =  3.09E-09,  avg # of iterations =  3.4

     total cpu time spent up to now is        1.9 secs

     total energy              =    -339.61156527 Ry
     Harris-Foulkes estimate   =    -339.61156532 Ry
     estimated scf accuracy    <       0.00000012 Ry

     iteration #  6     ecut=    95.00 Ry     beta= 0.70
     Davidson diagonalization with overlap
     ethr =  6.61E-10,  avg # of iterations =  1.0

     total cpu time spent up to now is        2.1 secs

     total energy              =    -339.61156527 Ry
     Harris-Foulkes estimate   =    -339.61156527 Ry
     estimated scf accuracy    <       0.00000001 Ry

     iteration #  7     ecut=    95.00 Ry     beta= 0.70
     Davidson diagonalization with overlap
     ethr =  6.78E-11,  avg # of iterations =  2.0

     total cpu time spent up to now is        2.2 secs

     End of self-consistent calculation

          k = 0.0000 0.0000 0.0000 (  1139 PWs)   bands (ev):

   -85.3679 -45.6322 -45.6322 -45.6322   8.8183  15.8397  15.8397  15.8397
    16.9509  16.9509  41.4846  45.4334  45.4334

          k =-0.2500 0.2500-0.2500 (  1152 PWs)   bands (ev):

   -85.3510 -45.7427 -45.6486 -45.6486  11.0684  15.4625  16.0457  16.0457
    17.0448  17.0448  32.3385  41.5916  43.2210

          k = 0.5000-0.5000 0.5000 (  1158 PWs)   bands (ev):

   -85.3341 -45.8529 -45.6644 -45.6644  13.2573  15.7987  15.7987  17.5421
    17.6860  17.6860  23.7391  39.9955  42.5604

          k = 0.0000 0.5000 0.0000 (  1174 PWs)   bands (ev):

   -85.3455 -45.7387 -45.6740 -45.6740  11.7322  14.8800  16.2946  16.6989
    16.6989  17.3080  37.1292  37.1292  37.9000

          k = 0.7500-0.2500 0.7500 (  1150 PWs)   bands (ev):

   -85.3286 -45.8156 -45.7214 -45.6896  14.0040  14.6872  15.8074  16.6793
    17.7389  20.3021  26.4205  32.4701  36.0472

          k = 0.5000 0.0000 0.5000 (  1135 PWs)   bands (ev):

   -85.3342 -45.7901 -45.7257 -45.6642  13.7378  15.1389  15.4113  16.4985
    16.9171  19.1403  29.4728  30.8163  40.7854

          k = 0.0000-1.0000 0.0000 (  1162 PWs)   bands (ev):

   -85.3231 -45.8411 -45.7152 -45.7152  13.4184  14.0012  17.6771  17.8662
    17.8662  20.2856  27.2096  32.6833  32.6833

          k =-0.5000-1.0000 0.0000 (  1144 PWs)   bands (ev):

   -85.3230 -45.7781 -45.7781 -45.7164  14.3287  15.1260  15.1260  16.8702
    17.8673  25.6901  25.6901  27.9300  29.0024

     the Fermi energy is    17.7839 ev

!    total energy              =    -339.61156527 Ry
     Harris-Foulkes estimate   =    -339.61156527 Ry
     estimated scf accuracy    <          9.6E-10 Ry

     The total energy is the sum of the following terms:

     one-electron contribution =    -186.61112979 Ry
     hartree contribution      =     104.70489773 Ry
     xc contribution           =     -34.31937531 Ry
     ewald contribution        =    -223.38275369 Ry
     smearing contrib. (-TS)   =      -0.00320421 Ry

     convergence has been achieved in   7 iterations

     Forces acting on atoms (cartesian axes, Ry/au):

     atom    1 type  1   force =     0.00000000    0.00000000    0.00000000

     Total force =     0.000000     Total SCF correction =     0.000000


     Computing stress (Cartesian axis) and pressure

          total   stress  (Ry/bohr**3)                   (kbar)     P=  -40.74
  -0.00027696   0.00000000  -0.00000000        -40.74      0.00     -0.00
   0.00000000  -0.00027696  -0.00000000          0.00    -40.74     -0.00
  -0.00000000  -0.00000000  -0.00027696         -0.00     -0.00    -40.74


     Writing output data file Ni.save/

     init_run     :      0.23s CPU      0.24s WALL (       1 calls)
     electrons    :      1.16s CPU      1.20s WALL (       1 calls)
     forces       :      0.04s CPU      0.04s WALL (       1 calls)
     stress       :      0.11s CPU      0.11s WALL (       1 calls)

     Called by init_run:
     wfcinit      :      0.03s CPU      0.04s WALL (       1 calls)
     potinit      :      0.01s CPU      0.01s WALL (       1 calls)
     hinit0       :      0.17s CPU      0.17s WALL (       1 calls)

     Called by electrons:
     c_bands      :      0.82s CPU      0.85s WALL (       8 calls)
     sum_band     :      0.23s CPU      0.23s WALL (       8 calls)
     v_of_rho     :      0.05s CPU      0.05s WALL (       8 calls)
     newd         :      0.08s CPU      0.08s WALL (       8 calls)
     mix_rho      :      0.00s CPU      0.00s WALL (       8 calls)

     Called by c_bands:
     init_us_2    :      0.02s CPU      0.03s WALL (     152 calls)
     cegterg      :      0.79s CPU      0.82s WALL (      64 calls)

     Called by sum_band:
     sum_band:bec :      0.00s CPU      0.00s WALL (      64 calls)
     addusdens    :      0.08s CPU      0.08s WALL (       8 calls)

     Called by *egterg:
     h_psi        :      0.62s CPU      0.64s WALL (     225 calls)
     s_psi        :      0.02s CPU      0.02s WALL (     225 calls)
     g_psi        :      0.00s CPU      0.00s WALL (     153 calls)
     cdiaghg      :      0.07s CPU      0.07s WALL (     209 calls)

     Called by h_psi:
     h_psi:pot    :      0.61s CPU      0.64s WALL (     225 calls)
     h_psi:calbec :      0.03s CPU      0.03s WALL (     225 calls)
     vloc_psi     :      0.57s CPU      0.58s WALL (     225 calls)
     add_vuspsi   :      0.02s CPU      0.02s WALL (     225 calls)

     General routines
     calbec       :      0.04s CPU      0.04s WALL (     329 calls)
     fft          :      0.03s CPU      0.03s WALL (     115 calls)
     ffts         :      0.00s CPU      0.00s WALL (       8 calls)
     fftw         :      0.64s CPU      0.66s WALL (    5066 calls)

     Parallel routines
     fft_scatt_xy :      0.06s CPU      0.06s WALL (    5189 calls)
     fft_scatt_yz :      0.19s CPU      0.20s WALL (    5189 calls)

     PWSCF        :     2.29s CPU         2.36s WALL


   This run was terminated on:  23: 5:33  26Mar2024            

=------------------------------------------------------------------------------=
   JOB DONE.
=------------------------------------------------------------------------------=
