
     Program PWSCF v.6.3MaX starts on 26Mar2024 at 22:50: 1 

     This program is part of the open-source Quantum ESPRESSO suite
     for quantum simulation of materials; please cite
         "P. Giannozzi et al., J. Phys.:Condens. Matter 21 395502 (2009);
         "P. Giannozzi et al., J. Phys.:Condens. Matter 29 465901 (2017);
          URL http://www.quantum-espresso.org", 
     in publications or presentations arising from this work. More details at
     http://www.quantum-espresso.org/quote

     Parallel version (MPI), running on     5 processors

     MPI processes distributed on     1 nodes
     R & G space division:  proc/nbgrp/npool/nimage =       5
     Waiting for input...
     Reading input from standard input

     Current dimensions of program PWSCF are:
     Max number of different atomic species (ntypx) = 10
     Max number of k-points (npk) =  40000
     Max angular momentum in pseudopotentials (lmaxx) =  3

     Subspace diagonalization in iterative solution of the eigenvalue problem:
     a serial algorithm will be used


     Parallelization info
     --------------------
     sticks:   dense  smooth     PW     G-vecs:    dense   smooth      PW
     Min          85      85     27                 1163     1163     213
     Max          87      87     28                 1164     1164     214
     Sum         433     433    139                 5817     5817    1067



     bravais-lattice index     =            2
     lattice parameter (alat)  =       6.6500  a.u.
     unit-cell volume          =      73.5199 (a.u.)^3
     number of atoms/cell      =            1
     number of atomic types    =            1
     number of electrons       =        18.00
     number of Kohn-Sham states=           13
     kinetic-energy cutoff     =      70.0000  Ry
     charge density cutoff     =     280.0000  Ry
     convergence threshold     =      1.0E-08
     mixing beta               =       0.7000
     number of iterations used =            8  plain     mixing
     Exchange-correlation      = PBE ( 1  4  3  4 0 0)

     celldm(1)=   6.650000  celldm(2)=   0.000000  celldm(3)=   0.000000
     celldm(4)=   0.000000  celldm(5)=   0.000000  celldm(6)=   0.000000

     crystal axes: (cart. coord. in units of alat)
               a(1) = (  -0.500000   0.000000   0.500000 )  
               a(2) = (   0.000000   0.500000   0.500000 )  
               a(3) = (  -0.500000   0.500000   0.000000 )  

     reciprocal axes: (cart. coord. in units 2 pi/alat)
               b(1) = ( -1.000000 -1.000000  1.000000 )  
               b(2) = (  1.000000  1.000000  1.000000 )  
               b(3) = ( -1.000000  1.000000 -1.000000 )  


     PseudoPot. # 1 for Ni read from file:
     /home/lorenzo/pseudos/Ni/Ni.pbe-spn-rrkjus_psl.1.0.0.UPF
     MD5 check sum: 8b3fc9aac6dafe35f580d41bb18c3945
     Pseudo is Ultrasoft + core correction, Zval = 18.0
     Generated using "atomic" code by A. Dal Corso v.6.3
     Using radial grid of 1195 points,  6 beta functions with: 
                l(1) =   0
                l(2) =   0
                l(3) =   1
                l(4) =   1
                l(5) =   2
                l(6) =   2
     Q(r) pseudized with 0 coefficients 


     atomic species   valence    mass     pseudopotential
        Ni            18.00    58.69340     Ni( 1.00)

     48 Sym. Ops., with inversion, found



   Cartesian axes

     site n.     atom                  positions (alat units)
         1           Ni  tau(   1) = (   0.0000000   0.0000000   0.0000000  )

     number of k points=    16  gaussian smearing, width (Ry)=  0.0100
                       cart. coord. in units 2pi/alat
        k(    1) = (   0.0000000   0.0000000   0.0000000), wk =   0.0092593
        k(    2) = (  -0.1666667   0.1666667  -0.1666667), wk =   0.0740741
        k(    3) = (  -0.3333333   0.3333333  -0.3333333), wk =   0.0740741
        k(    4) = (   0.5000000  -0.5000000   0.5000000), wk =   0.0370370
        k(    5) = (   0.0000000   0.3333333   0.0000000), wk =   0.0555556
        k(    6) = (  -0.1666667   0.5000000  -0.1666667), wk =   0.2222222
        k(    7) = (   0.6666667  -0.3333333   0.6666667), wk =   0.2222222
        k(    8) = (   0.5000000  -0.1666667   0.5000000), wk =   0.2222222
        k(    9) = (   0.3333333   0.0000000   0.3333333), wk =   0.1111111
        k(   10) = (   0.0000000   0.6666667   0.0000000), wk =   0.0555556
        k(   11) = (   0.8333333  -0.1666667   0.8333333), wk =   0.2222222
        k(   12) = (   0.6666667  -0.0000000   0.6666667), wk =   0.1111111
        k(   13) = (   0.0000000  -1.0000000   0.0000000), wk =   0.0277778
        k(   14) = (   0.6666667  -0.3333333   1.0000000), wk =   0.2222222
        k(   15) = (   0.5000000  -0.1666667   0.8333333), wk =   0.2222222
        k(   16) = (  -0.3333333  -1.0000000   0.0000000), wk =   0.1111111

     Dense  grid:     5817 G-vectors     FFT dimensions: (  25,  25,  25)

     Estimated max dynamical RAM per process >       6.22 MB

     Estimated total dynamical RAM >      31.10 MB

     Check: negative/imaginary core charge=   -0.000011    0.000000

     Initial potential from superposition of free atoms

     starting charge   17.99975, renormalised to   18.00000
     Starting wfcs are   10 randomized atomic wfcs +    3 random wfcs

     total cpu time spent up to now is        0.9 secs

     Self-consistent Calculation

     iteration #  1     ecut=    70.00 Ry     beta= 0.70
     Davidson diagonalization with overlap
     ethr =  1.00E-02,  avg # of iterations =  3.7

     Threshold (ethr) on eigenvalues was too large:
     Diagonalizing with lowered threshold

     Davidson diagonalization with overlap
     ethr =  1.44E-05,  avg # of iterations =  3.3

     total cpu time spent up to now is        1.3 secs

     total energy              =    -339.59746755 Ry
     Harris-Foulkes estimate   =    -339.59862066 Ry
     estimated scf accuracy    <       0.00262966 Ry

     iteration #  2     ecut=    70.00 Ry     beta= 0.70
     Davidson diagonalization with overlap
     ethr =  1.46E-05,  avg # of iterations =  2.1

     total cpu time spent up to now is        1.5 secs

     total energy              =    -339.59693420 Ry
     Harris-Foulkes estimate   =    -339.59974692 Ry
     estimated scf accuracy    <       0.00754729 Ry

     iteration #  3     ecut=    70.00 Ry     beta= 0.70
     Davidson diagonalization with overlap
     ethr =  1.46E-05,  avg # of iterations =  2.1

     total cpu time spent up to now is        1.6 secs

     total energy              =    -339.59829353 Ry
     Harris-Foulkes estimate   =    -339.59833761 Ry
     estimated scf accuracy    <       0.00019526 Ry

     iteration #  4     ecut=    70.00 Ry     beta= 0.70
     Davidson diagonalization with overlap
     ethr =  1.08E-06,  avg # of iterations =  1.2

     total cpu time spent up to now is        1.8 secs

     total energy              =    -339.59832152 Ry
     Harris-Foulkes estimate   =    -339.59832129 Ry
     estimated scf accuracy    <       0.00000090 Ry

     iteration #  5     ecut=    70.00 Ry     beta= 0.70
     Davidson diagonalization with overlap
     ethr =  5.01E-09,  avg # of iterations =  3.0

     total cpu time spent up to now is        2.0 secs

     total energy              =    -339.59832226 Ry
     Harris-Foulkes estimate   =    -339.59832229 Ry
     estimated scf accuracy    <       0.00000004 Ry

     iteration #  6     ecut=    70.00 Ry     beta= 0.70
     Davidson diagonalization with overlap
     ethr =  2.45E-10,  avg # of iterations =  1.9

     total cpu time spent up to now is        2.1 secs

     End of self-consistent calculation

          k = 0.0000 0.0000 0.0000 (   725 PWs)   bands (ev):

   -85.3786 -45.6299 -45.6299 -45.6299   8.8214  15.8454  15.8454  15.8454
    16.9519  16.9519  41.4913  45.4350  45.4350

          k =-0.1667 0.1667-0.1667 (   718 PWs)   bands (ev):

   -85.3700 -45.6852 -45.6378 -45.6378   9.8797  15.5984  16.0261  16.0261
    16.9108  16.9108  36.5421  42.2589  43.9096

          k =-0.3333 0.3333-0.3333 (   745 PWs)   bands (ev):

   -85.3537 -45.7957 -45.6544 -45.6544  12.3442  15.6981  15.9502  15.9502
    17.3300  17.3300  28.4692  40.8172  42.8026

          k = 0.5000-0.5000 0.5000 (   718 PWs)   bands (ev):

   -85.3447 -45.8494 -45.6618 -45.6618  13.2628  15.8013  15.8013  17.5457
    17.6907  17.6907  23.7463  39.9989  42.5652

          k = 0.0000 0.3333 0.0000 (   709 PWs)   bands (ev):

   -85.3670 -45.6833 -45.6503 -45.6503  10.2220  15.3547  16.2481  16.2481
    16.5277  17.1294  39.6159  39.9782  39.9782

          k =-0.1667 0.5000-0.1667 (   731 PWs)   bands (ev):

   -85.3535 -45.7644 -45.6694 -45.6689  12.2657  15.0036  15.8993  16.4179
    17.3107  17.4581  31.6611  37.9608  38.3915

          k = 0.6667-0.3333 0.6667 (   732 PWs)   bands (ev):

   -85.3423 -45.8277 -45.6940 -45.6748  13.7653  15.2452  15.8606  16.2238
    17.7157  19.7319  24.8420  35.5915  38.2595

          k = 0.5000-0.1667 0.5000 (   726 PWs)   bands (ev):

   -85.3450 -45.8100 -45.7008 -45.6621  13.5884  15.4525  15.5810  16.2137
    17.2261  19.0335  26.8119  34.1149  41.0721

          k = 0.3333 0.0000 0.3333 (   732 PWs)   bands (ev):

   -85.3591 -45.7384 -45.6739 -45.6439  11.4814  15.2654  15.9737  16.3980
    16.5435  17.5490  34.1141  34.8773  44.4746

          k = 0.0000 0.6667 0.0000 (   717 PWs)   bands (ev):

   -85.3449 -45.7872 -45.6916 -45.6916  13.0402  14.4371  16.8603  17.2376
    17.2376  17.4922  33.5192  34.8082  34.8082

          k = 0.8333-0.1667 0.8333 (   729 PWs)   bands (ev):

   -85.3367 -45.8156 -45.7254 -45.6999  13.7868  14.3295  16.4736  17.1817
    17.7761  20.5028  28.5889  29.8667  34.2765

          k = 0.6667-0.0000 0.6667 (   718 PWs)   bands (ev):

   -85.3365 -45.7786 -45.7778 -45.6846  14.4928  14.6487  15.6094  16.8350
    17.4176  22.7392  25.4517  28.4783  36.6596

          k = 0.0000-1.0000 0.0000 (   740 PWs)   bands (ev):

   -85.3342 -45.8379 -45.7129 -45.7129  13.4189  14.0060  17.6775  17.8726
    17.8726  20.2904  27.2129  32.6864  32.6864

          k = 0.6667-0.3333 1.0000 (   728 PWs)   bands (ev):

   -85.3422 -45.7940 -45.7206 -45.6808  13.8907  14.7778  15.4516  16.9761
    17.2384  19.3391  30.0221  31.1185  34.7711

          k = 0.5000-0.1667 0.8333 (   730 PWs)   bands (ev):

   -85.3367 -45.8013 -45.7470 -45.6936  14.6370  14.6404  15.3859  16.7348
    17.6394  22.9265  24.5552  31.4219  32.1262

          k =-0.3333-1.0000 0.0000 (   718 PWs)   bands (ev):

   -85.3337 -45.8063 -45.7437 -45.7133  14.0492  14.4997  16.0275  17.1277
    17.8742  23.3367  27.5886  28.3021  29.9096

     the Fermi energy is    17.6799 ev

!    total energy              =    -339.59832227 Ry
     Harris-Foulkes estimate   =    -339.59832227 Ry
     estimated scf accuracy    <          1.2E-09 Ry

     The total energy is the sum of the following terms:

     one-electron contribution =    -186.59442725 Ry
     hartree contribution      =     104.69386609 Ry
     xc contribution           =     -34.31288085 Ry
     ewald contribution        =    -223.38275369 Ry
     smearing contrib. (-TS)   =      -0.00212657 Ry

     convergence has been achieved in   6 iterations

     Forces acting on atoms (cartesian axes, Ry/au):

     atom    1 type  1   force =     0.00000000    0.00000000    0.00000000

     Total force =     0.000000     Total SCF correction =     0.000000


     Computing stress (Cartesian axis) and pressure

          total   stress  (Ry/bohr**3)                   (kbar)     P=  -59.97
  -0.00040770  -0.00000000  -0.00000000        -59.97     -0.00     -0.00
  -0.00000000  -0.00040770   0.00000000         -0.00    -59.97      0.00
  -0.00000000   0.00000000  -0.00040770         -0.00      0.00    -59.97


     Writing output data file Ni.save/

     init_run     :      0.20s CPU      0.21s WALL (       1 calls)
     electrons    :      1.17s CPU      1.24s WALL (       1 calls)
     forces       :      0.03s CPU      0.03s WALL (       1 calls)
     stress       :      0.08s CPU      0.08s WALL (       1 calls)

     Called by init_run:
     wfcinit      :      0.04s CPU      0.05s WALL (       1 calls)
     potinit      :      0.01s CPU      0.01s WALL (       1 calls)
     hinit0       :      0.14s CPU      0.14s WALL (       1 calls)

     Called by electrons:
     c_bands      :      0.92s CPU      0.97s WALL (       7 calls)
     sum_band     :      0.19s CPU      0.21s WALL (       7 calls)
     v_of_rho     :      0.02s CPU      0.02s WALL (       7 calls)
     newd         :      0.04s CPU      0.04s WALL (       7 calls)
     mix_rho      :      0.00s CPU      0.00s WALL (       7 calls)

     Called by c_bands:
     init_us_2    :      0.03s CPU      0.03s WALL (     272 calls)
     cegterg      :      0.89s CPU      0.94s WALL (     112 calls)

     Called by sum_band:
     sum_band:bec :      0.00s CPU      0.00s WALL (     112 calls)
     addusdens    :      0.04s CPU      0.04s WALL (       7 calls)

     Called by *egterg:
     h_psi        :      0.65s CPU      0.69s WALL (     407 calls)
     s_psi        :      0.02s CPU      0.02s WALL (     407 calls)
     g_psi        :      0.00s CPU      0.00s WALL (     279 calls)
     cdiaghg      :      0.13s CPU      0.13s WALL (     375 calls)

     Called by h_psi:
     h_psi:pot    :      0.64s CPU      0.69s WALL (     407 calls)
     h_psi:calbec :      0.03s CPU      0.03s WALL (     407 calls)
     vloc_psi     :      0.59s CPU      0.63s WALL (     407 calls)
     add_vuspsi   :      0.02s CPU      0.02s WALL (     407 calls)

     General routines
     calbec       :      0.05s CPU      0.05s WALL (     599 calls)
     fft          :      0.02s CPU      0.02s WALL (     104 calls)
     ffts         :      0.00s CPU      0.00s WALL (       7 calls)
     fftw         :      0.67s CPU      0.72s WALL (    8982 calls)

     Parallel routines
     fft_scatt_xy :      0.06s CPU      0.06s WALL (    9093 calls)
     fft_scatt_yz :      0.16s CPU      0.17s WALL (    9093 calls)

     PWSCF        :     2.18s CPU         2.31s WALL


   This run was terminated on:  22:50: 4  26Mar2024            

=------------------------------------------------------------------------------=
   JOB DONE.
=------------------------------------------------------------------------------=
