
     Program PWSCF v.6.3MaX starts on 26Mar2024 at 23: 5: 3 

     This program is part of the open-source Quantum ESPRESSO suite
     for quantum simulation of materials; please cite
         "P. Giannozzi et al., J. Phys.:Condens. Matter 21 395502 (2009);
         "P. Giannozzi et al., J. Phys.:Condens. Matter 29 465901 (2017);
          URL http://www.quantum-espresso.org", 
     in publications or presentations arising from this work. More details at
     http://www.quantum-espresso.org/quote

     Parallel version (MPI), running on     5 processors

     MPI processes distributed on     1 nodes
     R & G space division:  proc/nbgrp/npool/nimage =       5
     Waiting for input...
     Reading input from standard input

     Current dimensions of program PWSCF are:
     Max number of different atomic species (ntypx) = 10
     Max number of k-points (npk) =  40000
     Max angular momentum in pseudopotentials (lmaxx) =  3
               file Ni.pbe-spn-kjpaw_psl.1.0.0.UPF: wavefunction(s)  3P 3D renormalized

     Subspace diagonalization in iterative solution of the eigenvalue problem:
     a serial algorithm will be used


     Parallelization info
     --------------------
     sticks:   dense  smooth     PW     G-vecs:    dense   smooth      PW
     Min         116     116     33                 1850     1850     294
     Max         117     117     35                 1853     1853     295
     Sum         583     583    169                 9257     9257    1471



     bravais-lattice index     =            2
     lattice parameter (alat)  =       6.6500  a.u.
     unit-cell volume          =      73.5199 (a.u.)^3
     number of atoms/cell      =            1
     number of atomic types    =            1
     number of electrons       =        18.00
     number of Kohn-Sham states=           13
     kinetic-energy cutoff     =      95.0000  Ry
     charge density cutoff     =     380.0000  Ry
     convergence threshold     =      1.0E-08
     mixing beta               =       0.7000
     number of iterations used =            8  plain     mixing
     Exchange-correlation      = SLA PW PBX PBC ( 1  4  3  4 0 0)

     celldm(1)=   6.650000  celldm(2)=   0.000000  celldm(3)=   0.000000
     celldm(4)=   0.000000  celldm(5)=   0.000000  celldm(6)=   0.000000

     crystal axes: (cart. coord. in units of alat)
               a(1) = (  -0.500000   0.000000   0.500000 )  
               a(2) = (   0.000000   0.500000   0.500000 )  
               a(3) = (  -0.500000   0.500000   0.000000 )  

     reciprocal axes: (cart. coord. in units 2 pi/alat)
               b(1) = ( -1.000000 -1.000000  1.000000 )  
               b(2) = (  1.000000  1.000000  1.000000 )  
               b(3) = ( -1.000000  1.000000 -1.000000 )  


     PseudoPot. # 1 for Ni read from file:
     /home/lorenzo/pseudos/Ni/Ni.pbe-spn-kjpaw_psl.1.0.0.UPF
     MD5 check sum: 6e86b733589c3ad8389697b807d86aa7
     Pseudo is Projector augmented-wave + core cor, Zval = 18.0
     Generated using "atomic" code by A. Dal Corso v.6.3
     Shape of augmentation charge: PSQ
     Using radial grid of 1195 points,  6 beta functions with: 
                l(1) =   0
                l(2) =   0
                l(3) =   1
                l(4) =   1
                l(5) =   2
                l(6) =   2
     Q(r) pseudized with 0 coefficients 


     atomic species   valence    mass     pseudopotential
        Ni            18.00    58.69340     Ni( 1.00)

     48 Sym. Ops., with inversion, found



   Cartesian axes

     site n.     atom                  positions (alat units)
         1           Ni  tau(   1) = (   0.0000000   0.0000000   0.0000000  )

     number of k points=     3  gaussian smearing, width (Ry)=  0.0100
                       cart. coord. in units 2pi/alat
        k(    1) = (   0.0000000   0.0000000   0.0000000), wk =   0.2500000
        k(    2) = (   0.5000000  -0.5000000   0.5000000), wk =   1.0000000
        k(    3) = (   0.0000000  -1.0000000   0.0000000), wk =   0.7500000

     Dense  grid:     9257 G-vectors     FFT dimensions: (  30,  30,  30)

     Estimated max dynamical RAM per process >       8.72 MB

     Estimated total dynamical RAM >      43.59 MB

     Check: negative/imaginary core charge=   -0.000003    0.000000

     Initial potential from superposition of free atoms

     starting charge   17.99975, renormalised to   18.00000
     Starting wfcs are   10 randomized atomic wfcs +    3 random wfcs
     Checking if some PAW data can be deallocated... 

     total cpu time spent up to now is        1.1 secs

     Self-consistent Calculation

     iteration #  1     ecut=    95.00 Ry     beta= 0.70
     Davidson diagonalization with overlap
     ethr =  1.00E-02,  avg # of iterations =  5.7

     Threshold (ethr) on eigenvalues was too large:
     Diagonalizing with lowered threshold

     Davidson diagonalization with overlap
     ethr =  4.65E-05,  avg # of iterations =  3.0

     total cpu time spent up to now is        1.4 secs

     total energy              =    -428.96875946 Ry
     Harris-Foulkes estimate   =    -428.97010510 Ry
     estimated scf accuracy    <       0.00833214 Ry

     iteration #  2     ecut=    95.00 Ry     beta= 0.70
     Davidson diagonalization with overlap
     ethr =  4.63E-05,  avg # of iterations =  1.0

     total cpu time spent up to now is        1.5 secs

     total energy              =    -428.96781920 Ry
     Harris-Foulkes estimate   =    -428.96907610 Ry
     estimated scf accuracy    <       0.00192940 Ry

     iteration #  3     ecut=    95.00 Ry     beta= 0.70
     Davidson diagonalization with overlap
     ethr =  1.07E-05,  avg # of iterations =  3.0

     total cpu time spent up to now is        1.7 secs

     total energy              =    -428.95425829 Ry
     Harris-Foulkes estimate   =    -428.98095399 Ry
     estimated scf accuracy    <       0.38927840 Ry

     iteration #  4     ecut=    95.00 Ry     beta= 0.70
     Davidson diagonalization with overlap
     ethr =  1.07E-05,  avg # of iterations =  3.0

     total cpu time spent up to now is        1.9 secs

     total energy              =    -428.96894152 Ry
     Harris-Foulkes estimate   =    -428.96898268 Ry
     estimated scf accuracy    <       0.00083450 Ry

     iteration #  5     ecut=    95.00 Ry     beta= 0.70
     Davidson diagonalization with overlap
     ethr =  4.64E-06,  avg # of iterations =  1.0

     total cpu time spent up to now is        2.1 secs

     total energy              =    -428.96891315 Ry
     Harris-Foulkes estimate   =    -428.96894827 Ry
     estimated scf accuracy    <       0.00040368 Ry

     iteration #  6     ecut=    95.00 Ry     beta= 0.70
     Davidson diagonalization with overlap
     ethr =  2.24E-06,  avg # of iterations =  1.0

     total cpu time spent up to now is        2.3 secs

     total energy              =    -428.96892008 Ry
     Harris-Foulkes estimate   =    -428.96892361 Ry
     estimated scf accuracy    <       0.00005118 Ry

     iteration #  7     ecut=    95.00 Ry     beta= 0.70
     Davidson diagonalization with overlap
     ethr =  2.84E-07,  avg # of iterations =  1.0

     total cpu time spent up to now is        2.5 secs

     total energy              =    -428.96891918 Ry
     Harris-Foulkes estimate   =    -428.96892116 Ry
     estimated scf accuracy    <       0.00001015 Ry

     iteration #  8     ecut=    95.00 Ry     beta= 0.70
     Davidson diagonalization with overlap
     ethr =  5.64E-08,  avg # of iterations =  1.3

     total cpu time spent up to now is        2.6 secs

     total energy              =    -428.96892030 Ry
     Harris-Foulkes estimate   =    -428.96892101 Ry
     estimated scf accuracy    <       0.00000629 Ry

     iteration #  9     ecut=    95.00 Ry     beta= 0.70
     Davidson diagonalization with overlap
     ethr =  3.49E-08,  avg # of iterations =  1.0

     total cpu time spent up to now is        2.8 secs

     total energy              =    -428.96892064 Ry
     Harris-Foulkes estimate   =    -428.96892064 Ry
     estimated scf accuracy    <       0.00000001 Ry

     iteration # 10     ecut=    95.00 Ry     beta= 0.70
     Davidson diagonalization with overlap
     ethr =  8.31E-11,  avg # of iterations =  3.0

     total cpu time spent up to now is        3.0 secs

     End of self-consistent calculation

          k = 0.0000 0.0000 0.0000 (  1139 PWs)   bands (ev):

   -85.5180 -45.7791 -45.7791 -45.7791   8.7983  15.7008  15.7008  15.7008
    16.8452  16.8452  41.4240  45.4432  45.4432

          k = 0.5000-0.5000 0.5000 (  1158 PWs)   bands (ev):

   -85.4843 -45.9991 -45.8112 -45.8112  13.1569  15.6849  15.6849  17.5352
    17.5541  17.5541  23.6550  40.0015  42.5181

          k = 0.0000-1.0000 0.0000 (  1162 PWs)   bands (ev):

   -85.4733 -45.9873 -45.8619 -45.8619  13.3557  13.8747  17.5691  17.7162
    17.7162  20.2483  27.1699  32.6614  32.6614

     the Fermi energy is    17.6858 ev

!    total energy              =    -428.96892064 Ry
     Harris-Foulkes estimate   =    -428.96892065 Ry
     estimated scf accuracy    <          4.6E-09 Ry

     total all-electron energy =     -3041.401028 Ry

     The total energy is the sum of the following terms:

     one-electron contribution =    -184.70115067 Ry
     hartree contribution      =     104.54441944 Ry
     xc contribution           =     -34.31526510 Ry
     ewald contribution        =    -223.38275369 Ry
     one-center paw contrib.   =     -91.10609355 Ry
     smearing contrib. (-TS)   =      -0.00807707 Ry

     convergence has been achieved in  10 iterations

     Forces acting on atoms (cartesian axes, Ry/au):

     atom    1 type  1   force =     0.00000000    0.00000000    0.00000000

     Total force =     0.000000     Total SCF correction =     0.000000


     Computing stress (Cartesian axis) and pressure

          total   stress  (Ry/bohr**3)                   (kbar)     P=  317.98
   0.00216158  -0.00000000  -0.00000000        317.98     -0.00     -0.00
  -0.00000000   0.00216158   0.00000000         -0.00    317.98      0.00
  -0.00000000   0.00000000   0.00216158         -0.00      0.00    317.98


     Writing output data file Ni.save/

     init_run     :      0.30s CPU      0.32s WALL (       1 calls)
     electrons    :      1.81s CPU      1.98s WALL (       1 calls)
     forces       :      0.04s CPU      0.04s WALL (       1 calls)
     stress       :      0.10s CPU      0.10s WALL (       1 calls)

     Called by init_run:
     wfcinit      :      0.01s CPU      0.01s WALL (       1 calls)
     potinit      :      0.09s CPU      0.10s WALL (       1 calls)
     hinit0       :      0.17s CPU      0.17s WALL (       1 calls)

     Called by electrons:
     c_bands      :      0.43s CPU      0.45s WALL (      11 calls)
     sum_band     :      0.23s CPU      0.24s WALL (      11 calls)
     v_of_rho     :      0.07s CPU      0.07s WALL (      11 calls)
     newd         :      0.13s CPU      0.14s WALL (      11 calls)
     PAW_pot      :      1.04s CPU      1.17s WALL (      11 calls)
     mix_rho      :      0.01s CPU      0.01s WALL (      11 calls)

     Called by c_bands:
     init_us_2    :      0.02s CPU      0.02s WALL (      75 calls)
     cegterg      :      0.41s CPU      0.43s WALL (      33 calls)

     Called by sum_band:
     sum_band:bec :      0.00s CPU      0.00s WALL (      33 calls)
     addusdens    :      0.11s CPU      0.11s WALL (      11 calls)

     Called by *egterg:
     h_psi        :      0.31s CPU      0.33s WALL (     108 calls)
     s_psi        :      0.01s CPU      0.01s WALL (     108 calls)
     g_psi        :      0.00s CPU      0.00s WALL (      72 calls)
     cdiaghg      :      0.04s CPU      0.04s WALL (     102 calls)

     Called by h_psi:
     h_psi:pot    :      0.31s CPU      0.33s WALL (     108 calls)
     h_psi:calbec :      0.02s CPU      0.02s WALL (     108 calls)
     vloc_psi     :      0.28s CPU      0.30s WALL (     108 calls)
     add_vuspsi   :      0.01s CPU      0.01s WALL (     108 calls)

     General routines
     calbec       :      0.03s CPU      0.03s WALL (     156 calls)
     fft          :      0.05s CPU      0.05s WALL (     148 calls)
     ffts         :      0.00s CPU      0.00s WALL (      11 calls)
     fftw         :      0.33s CPU      0.35s WALL (    2439 calls)

     Parallel routines
     fft_scatt_xy :      0.03s CPU      0.03s WALL (    2598 calls)
     fft_scatt_yz :      0.11s CPU      0.12s WALL (    2598 calls)

     PWSCF        :     3.00s CPU         3.23s WALL


   This run was terminated on:  23: 5: 6  26Mar2024            

=------------------------------------------------------------------------------=
   JOB DONE.
=------------------------------------------------------------------------------=
