
     Program PWSCF v.6.3MaX starts on 26Mar2024 at 22:39:18 

     This program is part of the open-source Quantum ESPRESSO suite
     for quantum simulation of materials; please cite
         "P. Giannozzi et al., J. Phys.:Condens. Matter 21 395502 (2009);
         "P. Giannozzi et al., J. Phys.:Condens. Matter 29 465901 (2017);
          URL http://www.quantum-espresso.org", 
     in publications or presentations arising from this work. More details at
     http://www.quantum-espresso.org/quote

     Parallel version (MPI), running on     5 processors

     MPI processes distributed on     1 nodes
     R & G space division:  proc/nbgrp/npool/nimage =       5
     Waiting for input...
     Reading input from standard input

     Current dimensions of program PWSCF are:
     Max number of different atomic species (ntypx) = 10
     Max number of k-points (npk) =  40000
     Max angular momentum in pseudopotentials (lmaxx) =  3

     Subspace diagonalization in iterative solution of the eigenvalue problem:
     a serial algorithm will be used


     Parallelization info
     --------------------
     sticks:   dense  smooth     PW     G-vecs:    dense   smooth      PW
     Min          62      62     19                  705      705     128
     Max          63      63     20                  706      706     130
     Sum         313     313     97                 3527     3527     645



     bravais-lattice index     =            2
     lattice parameter (alat)  =       6.6500  a.u.
     unit-cell volume          =      73.5199 (a.u.)^3
     number of atoms/cell      =            1
     number of atomic types    =            1
     number of electrons       =        18.00
     number of Kohn-Sham states=           13
     kinetic-energy cutoff     =      50.0000  Ry
     charge density cutoff     =     200.0000  Ry
     convergence threshold     =      1.0E-08
     mixing beta               =       0.7000
     number of iterations used =            8  plain     mixing
     Exchange-correlation      = PBESOL ( 1  4 10  8 0 0)

     celldm(1)=   6.650000  celldm(2)=   0.000000  celldm(3)=   0.000000
     celldm(4)=   0.000000  celldm(5)=   0.000000  celldm(6)=   0.000000

     crystal axes: (cart. coord. in units of alat)
               a(1) = (  -0.500000   0.000000   0.500000 )  
               a(2) = (   0.000000   0.500000   0.500000 )  
               a(3) = (  -0.500000   0.500000   0.000000 )  

     reciprocal axes: (cart. coord. in units 2 pi/alat)
               b(1) = ( -1.000000 -1.000000  1.000000 )  
               b(2) = (  1.000000  1.000000  1.000000 )  
               b(3) = ( -1.000000  1.000000 -1.000000 )  


     PseudoPot. # 1 for Ni read from file:
     /home/lorenzo/pseudos/Ni/Ni.pbesol-spn-rrkjus_psl.1.0.0.UPF
     MD5 check sum: 6fc0a587bf949a08f2faed986b854013
     Pseudo is Ultrasoft + core correction, Zval = 18.0
     Generated using "atomic" code by A. Dal Corso v.6.3
     Using radial grid of 1195 points,  6 beta functions with: 
                l(1) =   0
                l(2) =   0
                l(3) =   1
                l(4) =   1
                l(5) =   2
                l(6) =   2
     Q(r) pseudized with 0 coefficients 


     atomic species   valence    mass     pseudopotential
        Ni            18.00    58.69340     Ni( 1.00)

     48 Sym. Ops., with inversion, found



   Cartesian axes

     site n.     atom                  positions (alat units)
         1           Ni  tau(   1) = (   0.0000000   0.0000000   0.0000000  )

     number of k points=     8  gaussian smearing, width (Ry)=  0.0100
                       cart. coord. in units 2pi/alat
        k(    1) = (   0.0000000   0.0000000   0.0000000), wk =   0.0312500
        k(    2) = (  -0.2500000   0.2500000  -0.2500000), wk =   0.2500000
        k(    3) = (   0.5000000  -0.5000000   0.5000000), wk =   0.1250000
        k(    4) = (   0.0000000   0.5000000   0.0000000), wk =   0.1875000
        k(    5) = (   0.7500000  -0.2500000   0.7500000), wk =   0.7500000
        k(    6) = (   0.5000000   0.0000000   0.5000000), wk =   0.3750000
        k(    7) = (   0.0000000  -1.0000000   0.0000000), wk =   0.0937500
        k(    8) = (  -0.5000000  -1.0000000   0.0000000), wk =   0.1875000

     Dense  grid:     3527 G-vectors     FFT dimensions: (  24,  24,  24)

     Estimated max dynamical RAM per process >       4.04 MB

     Estimated total dynamical RAM >      20.19 MB

     Check: negative/imaginary core charge=   -0.000020    0.000000

     Initial potential from superposition of free atoms

     starting charge   17.99977, renormalised to   18.00000
     Starting wfcs are   10 randomized atomic wfcs +    3 random wfcs

     total cpu time spent up to now is        0.8 secs

     Self-consistent Calculation

     iteration #  1     ecut=    50.00 Ry     beta= 0.70
     Davidson diagonalization with overlap
     ethr =  1.00E-02,  avg # of iterations =  4.4

     Threshold (ethr) on eigenvalues was too large:
     Diagonalizing with lowered threshold

     Davidson diagonalization with overlap
     ethr =  1.40E-05,  avg # of iterations =  3.1

     total cpu time spent up to now is        1.0 secs

     total energy              =    -339.35210840 Ry
     Harris-Foulkes estimate   =    -339.35276719 Ry
     estimated scf accuracy    <       0.00241467 Ry

     iteration #  2     ecut=    50.00 Ry     beta= 0.70
     Davidson diagonalization with overlap
     ethr =  1.34E-05,  avg # of iterations =  1.0

     total cpu time spent up to now is        1.1 secs

     total energy              =    -339.35210384 Ry
     Harris-Foulkes estimate   =    -339.35227989 Ry
     estimated scf accuracy    <       0.00031822 Ry

     iteration #  3     ecut=    50.00 Ry     beta= 0.70
     Davidson diagonalization with overlap
     ethr =  1.77E-06,  avg # of iterations =  2.6

     total cpu time spent up to now is        1.1 secs

     total energy              =    -339.35207667 Ry
     Harris-Foulkes estimate   =    -339.35246193 Ry
     estimated scf accuracy    <       0.00109740 Ry

     iteration #  4     ecut=    50.00 Ry     beta= 0.70
     Davidson diagonalization with overlap
     ethr =  1.77E-06,  avg # of iterations =  2.2

     total cpu time spent up to now is        1.2 secs

     total energy              =    -339.35224671 Ry
     Harris-Foulkes estimate   =    -339.35224622 Ry
     estimated scf accuracy    <       0.00000076 Ry

     iteration #  5     ecut=    50.00 Ry     beta= 0.70
     Davidson diagonalization with overlap
     ethr =  4.21E-09,  avg # of iterations =  3.0

     total cpu time spent up to now is        1.3 secs

     total energy              =    -339.35224735 Ry
     Harris-Foulkes estimate   =    -339.35224735 Ry
     estimated scf accuracy    <       0.00000001 Ry

     iteration #  6     ecut=    50.00 Ry     beta= 0.70
     Davidson diagonalization with overlap
     ethr =  5.95E-11,  avg # of iterations =  2.0

     total cpu time spent up to now is        1.4 secs

     End of self-consistent calculation

          k = 0.0000 0.0000 0.0000 (   459 PWs)   bands (ev):

   -85.2547 -45.6172 -45.6172 -45.6172   8.6497  15.6577  15.6577  15.6577
    16.7831  16.7831  41.2736  45.1991  45.1991

          k =-0.2500 0.2500-0.2500 (   438 PWs)   bands (ev):

   -85.2373 -45.7284 -45.6088 -45.6088  10.9076  15.2841  15.8816  15.8816
    16.8732  16.8732  32.1409  41.3972  42.9744

          k = 0.5000-0.5000 0.5000 (   434 PWs)   bands (ev):

   -85.2199 -45.8447 -45.6267 -45.6267  13.0887  15.6365  15.6365  17.3229
    17.5125  17.5125  23.5958  39.7943  42.3043

          k = 0.0000 0.5000 0.0000 (   431 PWs)   bands (ev):

   -85.2314 -45.7036 -45.6393 -45.6393  11.5669  14.7015  16.1327  16.5279
    16.5279  17.1520  36.8875  36.8875  37.6877

          k = 0.7500-0.2500 0.7500 (   437 PWs)   bands (ev):

   -85.2142 -45.8009 -45.6885 -45.6692  13.8237  14.5073  15.6299  16.5114
    17.5664  20.1122  26.2440  32.2850  35.8039

          k = 0.5000 0.0000 0.5000 (   435 PWs)   bands (ev):

   -85.2200 -45.7612 -45.7016 -45.6393  13.5555  14.9586  15.2339  16.3374
    16.7446  18.9723  29.2498  30.6658  40.5386

          k = 0.0000-1.0000 0.0000 (   444 PWs)   bands (ev):

   -85.2086 -45.8233 -45.7061 -45.7061  13.2396  13.8138  17.5041  17.6890
    17.6890  20.0563  27.0769  32.4402  32.4402

          k =-0.5000-1.0000 0.0000 (   444 PWs)   bands (ev):

   -85.2086 -45.7676 -45.7676 -45.6937  14.1471  14.9399  14.9399  16.7040
    17.6873  25.4681  25.4681  27.7278  28.9069

     the Fermi energy is    17.6098 ev

!    total energy              =    -339.35224735 Ry
     Harris-Foulkes estimate   =    -339.35224735 Ry
     estimated scf accuracy    <          1.6E-10 Ry

     The total energy is the sum of the following terms:

     one-electron contribution =    -186.49283532 Ry
     hartree contribution      =     104.44242770 Ry
     xc contribution           =     -33.91584391 Ry
     ewald contribution        =    -223.38275374 Ry
     smearing contrib. (-TS)   =      -0.00324208 Ry

     convergence has been achieved in   6 iterations

     Forces acting on atoms (cartesian axes, Ry/au):

     atom    1 type  1   force =     0.00000000    0.00000000    0.00000000

     Total force =     0.000000     Total SCF correction =     0.000000


     Computing stress (Cartesian axis) and pressure

          total   stress  (Ry/bohr**3)                   (kbar)     P= -923.31
  -0.00627652   0.00000000   0.00000000       -923.31      0.00      0.00
   0.00000000  -0.00627652  -0.00000000          0.00   -923.31     -0.00
   0.00000000  -0.00000000  -0.00627652          0.00     -0.00   -923.31


     Writing output data file Ni.save/

     init_run     :      0.15s CPU      0.15s WALL (       1 calls)
     electrons    :      0.47s CPU      0.51s WALL (       1 calls)
     forces       :      0.02s CPU      0.02s WALL (       1 calls)
     stress       :      0.05s CPU      0.05s WALL (       1 calls)

     Called by init_run:
     wfcinit      :      0.02s CPU      0.02s WALL (       1 calls)
     potinit      :      0.00s CPU      0.01s WALL (       1 calls)
     hinit0       :      0.12s CPU      0.12s WALL (       1 calls)

     Called by electrons:
     c_bands      :      0.36s CPU      0.38s WALL (       7 calls)
     sum_band     :      0.08s CPU      0.08s WALL (       7 calls)
     v_of_rho     :      0.02s CPU      0.02s WALL (       7 calls)
     newd         :      0.02s CPU      0.02s WALL (       7 calls)
     mix_rho      :      0.00s CPU      0.00s WALL (       7 calls)

     Called by c_bands:
     init_us_2    :      0.01s CPU      0.01s WALL (     136 calls)
     cegterg      :      0.35s CPU      0.37s WALL (      56 calls)

     Called by sum_band:
     sum_band:bec :      0.00s CPU      0.00s WALL (      56 calls)
     addusdens    :      0.02s CPU      0.02s WALL (       7 calls)

     Called by *egterg:
     h_psi        :      0.25s CPU      0.27s WALL (     211 calls)
     s_psi        :      0.01s CPU      0.01s WALL (     211 calls)
     g_psi        :      0.00s CPU      0.00s WALL (     147 calls)
     cdiaghg      :      0.06s CPU      0.07s WALL (     195 calls)

     Called by h_psi:
     h_psi:pot    :      0.25s CPU      0.27s WALL (     211 calls)
     h_psi:calbec :      0.01s CPU      0.01s WALL (     211 calls)
     vloc_psi     :      0.23s CPU      0.25s WALL (     211 calls)
     add_vuspsi   :      0.01s CPU      0.01s WALL (     211 calls)

     General routines
     calbec       :      0.02s CPU      0.02s WALL (     307 calls)
     fft          :      0.01s CPU      0.01s WALL (     104 calls)
     ffts         :      0.00s CPU      0.00s WALL (       7 calls)
     fftw         :      0.25s CPU      0.27s WALL (    4494 calls)

     Parallel routines
     fft_scatt_xy :      0.03s CPU      0.03s WALL (    4605 calls)
     fft_scatt_yz :      0.07s CPU      0.07s WALL (    4605 calls)

     PWSCF        :     1.39s CPU         1.46s WALL


   This run was terminated on:  22:39:19  26Mar2024            

=------------------------------------------------------------------------------=
   JOB DONE.
=------------------------------------------------------------------------------=
