
     Program PWSCF v.6.3MaX starts on 26Mar2024 at 22:42:54 

     This program is part of the open-source Quantum ESPRESSO suite
     for quantum simulation of materials; please cite
         "P. Giannozzi et al., J. Phys.:Condens. Matter 21 395502 (2009);
         "P. Giannozzi et al., J. Phys.:Condens. Matter 29 465901 (2017);
          URL http://www.quantum-espresso.org", 
     in publications or presentations arising from this work. More details at
     http://www.quantum-espresso.org/quote

     Parallel version (MPI), running on     5 processors

     MPI processes distributed on     1 nodes
     R & G space division:  proc/nbgrp/npool/nimage =       5
     Waiting for input...
     Reading input from standard input

     Current dimensions of program PWSCF are:
     Max number of different atomic species (ntypx) = 10
     Max number of k-points (npk) =  40000
     Max angular momentum in pseudopotentials (lmaxx) =  3
               file Ni.pbesol-spn-kjpaw_psl.1.0.0.UPF: wavefunction(s)  3P 3D renormalized

     Subspace diagonalization in iterative solution of the eigenvalue problem:
     a serial algorithm will be used


     Parallelization info
     --------------------
     sticks:   dense  smooth     PW     G-vecs:    dense   smooth      PW
     Min          73      73     24                  928      928     178
     Max          74      74     25                  930      930     181
     Sum         367     367    121                 4645     4645     893



     bravais-lattice index     =            2
     lattice parameter (alat)  =       6.6500  a.u.
     unit-cell volume          =      73.5199 (a.u.)^3
     number of atoms/cell      =            1
     number of atomic types    =            1
     number of electrons       =        18.00
     number of Kohn-Sham states=           13
     kinetic-energy cutoff     =      60.0000  Ry
     charge density cutoff     =     240.0000  Ry
     convergence threshold     =      1.0E-08
     mixing beta               =       0.7000
     number of iterations used =            8  plain     mixing
     Exchange-correlation      = SLA PW PSX PSC ( 1  4 10  8 0 0)

     celldm(1)=   6.650000  celldm(2)=   0.000000  celldm(3)=   0.000000
     celldm(4)=   0.000000  celldm(5)=   0.000000  celldm(6)=   0.000000

     crystal axes: (cart. coord. in units of alat)
               a(1) = (  -0.500000   0.000000   0.500000 )  
               a(2) = (   0.000000   0.500000   0.500000 )  
               a(3) = (  -0.500000   0.500000   0.000000 )  

     reciprocal axes: (cart. coord. in units 2 pi/alat)
               b(1) = ( -1.000000 -1.000000  1.000000 )  
               b(2) = (  1.000000  1.000000  1.000000 )  
               b(3) = ( -1.000000  1.000000 -1.000000 )  


     PseudoPot. # 1 for Ni read from file:
     /home/lorenzo/pseudos/Ni/Ni.pbesol-spn-kjpaw_psl.1.0.0.UPF
     MD5 check sum: ef06ee83099c2673f0516457bd731f51
     Pseudo is Projector augmented-wave + core cor, Zval = 18.0
     Generated using "atomic" code by A. Dal Corso v.6.3
     Shape of augmentation charge: PSQ
     Using radial grid of 1195 points,  6 beta functions with: 
                l(1) =   0
                l(2) =   0
                l(3) =   1
                l(4) =   1
                l(5) =   2
                l(6) =   2
     Q(r) pseudized with 0 coefficients 


     atomic species   valence    mass     pseudopotential
        Ni            18.00    58.69340     Ni( 1.00)

     48 Sym. Ops., with inversion, found



   Cartesian axes

     site n.     atom                  positions (alat units)
         1           Ni  tau(   1) = (   0.0000000   0.0000000   0.0000000  )

     number of k points=    47  gaussian smearing, width (Ry)=  0.0100
                       cart. coord. in units 2pi/alat
        k(    1) = (   0.0000000   0.0000000   0.0000000), wk =   0.0020000
        k(    2) = (  -0.1000000   0.1000000  -0.1000000), wk =   0.0160000
        k(    3) = (  -0.2000000   0.2000000  -0.2000000), wk =   0.0160000
        k(    4) = (  -0.3000000   0.3000000  -0.3000000), wk =   0.0160000
        k(    5) = (  -0.4000000   0.4000000  -0.4000000), wk =   0.0160000
        k(    6) = (   0.5000000  -0.5000000   0.5000000), wk =   0.0080000
        k(    7) = (   0.0000000   0.2000000   0.0000000), wk =   0.0120000
        k(    8) = (  -0.1000000   0.3000000  -0.1000000), wk =   0.0480000
        k(    9) = (  -0.2000000   0.4000000  -0.2000000), wk =   0.0480000
        k(   10) = (  -0.3000000   0.5000000  -0.3000000), wk =   0.0480000
        k(   11) = (   0.6000000  -0.4000000   0.6000000), wk =   0.0480000
        k(   12) = (   0.5000000  -0.3000000   0.5000000), wk =   0.0480000
        k(   13) = (   0.4000000  -0.2000000   0.4000000), wk =   0.0480000
        k(   14) = (   0.3000000  -0.1000000   0.3000000), wk =   0.0480000
        k(   15) = (   0.2000000   0.0000000   0.2000000), wk =   0.0240000
        k(   16) = (   0.0000000   0.4000000   0.0000000), wk =   0.0120000
        k(   17) = (  -0.1000000   0.5000000  -0.1000000), wk =   0.0480000
        k(   18) = (  -0.2000000   0.6000000  -0.2000000), wk =   0.0480000
        k(   19) = (   0.7000000  -0.3000000   0.7000000), wk =   0.0480000
        k(   20) = (   0.6000000  -0.2000000   0.6000000), wk =   0.0480000
        k(   21) = (   0.5000000  -0.1000000   0.5000000), wk =   0.0480000
        k(   22) = (   0.4000000   0.0000000   0.4000000), wk =   0.0240000
        k(   23) = (   0.0000000   0.6000000   0.0000000), wk =   0.0120000
        k(   24) = (  -0.1000000   0.7000000  -0.1000000), wk =   0.0480000
        k(   25) = (   0.8000000  -0.2000000   0.8000000), wk =   0.0480000
        k(   26) = (   0.7000000  -0.1000000   0.7000000), wk =   0.0480000
        k(   27) = (   0.6000000  -0.0000000   0.6000000), wk =   0.0240000
        k(   28) = (   0.0000000   0.8000000   0.0000000), wk =   0.0120000
        k(   29) = (   0.9000000  -0.1000000   0.9000000), wk =   0.0480000
        k(   30) = (   0.8000000   0.0000000   0.8000000), wk =   0.0240000
        k(   31) = (   0.0000000  -1.0000000   0.0000000), wk =   0.0060000
        k(   32) = (  -0.2000000   0.4000000   0.0000000), wk =   0.0480000
        k(   33) = (  -0.3000000   0.5000000  -0.1000000), wk =   0.0960000
        k(   34) = (   0.6000000  -0.4000000   0.8000000), wk =   0.0960000
        k(   35) = (   0.5000000  -0.3000000   0.7000000), wk =   0.0480000
        k(   36) = (  -0.2000000   0.6000000   0.0000000), wk =   0.0480000
        k(   37) = (   0.7000000  -0.3000000   0.9000000), wk =   0.0960000
        k(   38) = (   0.6000000  -0.2000000   0.8000000), wk =   0.0960000
        k(   39) = (   0.5000000  -0.1000000   0.7000000), wk =   0.0960000
        k(   40) = (   0.4000000   0.0000000   0.6000000), wk =   0.0480000
        k(   41) = (   0.8000000  -0.2000000   1.0000000), wk =   0.0480000
        k(   42) = (   0.7000000  -0.1000000   0.9000000), wk =   0.0960000
        k(   43) = (   0.6000000   0.0000000   0.8000000), wk =   0.0480000
        k(   44) = (  -0.2000000  -1.0000000   0.0000000), wk =   0.0240000
        k(   45) = (   0.6000000  -0.2000000   1.0000000), wk =   0.0480000
        k(   46) = (   0.5000000  -0.1000000   0.9000000), wk =   0.0480000
        k(   47) = (  -0.4000000  -1.0000000   0.0000000), wk =   0.0240000

     Dense  grid:     4645 G-vectors     FFT dimensions: (  24,  24,  24)

     Estimated max dynamical RAM per process >       5.88 MB

     Estimated total dynamical RAM >      29.40 MB

     Check: negative/imaginary core charge=   -0.000009    0.000000

     Initial potential from superposition of free atoms

     starting charge   17.99977, renormalised to   18.00000
     Starting wfcs are   10 randomized atomic wfcs +    3 random wfcs
     Checking if some PAW data can be deallocated... 

     total cpu time spent up to now is        1.1 secs

     Self-consistent Calculation

     iteration #  1     ecut=    60.00 Ry     beta= 0.70
     Davidson diagonalization with overlap
     ethr =  1.00E-02,  avg # of iterations =  3.5

     Threshold (ethr) on eigenvalues was too large:
     Diagonalizing with lowered threshold

     Davidson diagonalization with overlap
     ethr =  1.17E-05,  avg # of iterations =  2.9

     total cpu time spent up to now is        2.2 secs

     total energy              =    -426.56303885 Ry
     Harris-Foulkes estimate   =    -426.56403995 Ry
     estimated scf accuracy    <       0.00210466 Ry

     iteration #  2     ecut=    60.00 Ry     beta= 0.70
     Davidson diagonalization with overlap
     ethr =  1.17E-05,  avg # of iterations =  2.1

     total cpu time spent up to now is        2.7 secs

     total energy              =    -426.56255431 Ry
     Harris-Foulkes estimate   =    -426.56461404 Ry
     estimated scf accuracy    <       0.00521094 Ry

     iteration #  3     ecut=    60.00 Ry     beta= 0.70
     Davidson diagonalization with overlap
     ethr =  1.17E-05,  avg # of iterations =  2.1

     total cpu time spent up to now is        3.2 secs

     total energy              =    -426.56361255 Ry
     Harris-Foulkes estimate   =    -426.56369737 Ry
     estimated scf accuracy    <       0.00028027 Ry

     iteration #  4     ecut=    60.00 Ry     beta= 0.70
     Davidson diagonalization with overlap
     ethr =  1.56E-06,  avg # of iterations =  1.3

     total cpu time spent up to now is        3.6 secs

     total energy              =    -426.56365248 Ry
     Harris-Foulkes estimate   =    -426.56365225 Ry
     estimated scf accuracy    <       0.00000022 Ry

     iteration #  5     ecut=    60.00 Ry     beta= 0.70
     Davidson diagonalization with overlap
     ethr =  1.24E-09,  avg # of iterations =  3.7

     total cpu time spent up to now is        4.3 secs

     total energy              =    -426.56365349 Ry
     Harris-Foulkes estimate   =    -426.56365353 Ry
     estimated scf accuracy    <       0.00000013 Ry

     iteration #  6     ecut=    60.00 Ry     beta= 0.70
     Davidson diagonalization with overlap
     ethr =  7.33E-10,  avg # of iterations =  1.0

     total cpu time spent up to now is        4.7 secs

     total energy              =    -426.56365349 Ry
     Harris-Foulkes estimate   =    -426.56365349 Ry
     estimated scf accuracy    <       0.00000002 Ry

     iteration #  7     ecut=    60.00 Ry     beta= 0.70
     Davidson diagonalization with overlap
     ethr =  1.04E-10,  avg # of iterations =  1.9

     total cpu time spent up to now is        5.1 secs

     End of self-consistent calculation

          k = 0.0000 0.0000 0.0000 (   561 PWs)   bands (ev):

   -85.1651 -45.5634 -45.5634 -45.5634   8.6177  15.7282  15.7282  15.7282
    16.8543  16.8543  41.2804  45.2050  45.2050

          k =-0.1000 0.1000-0.1000 (   570 PWs)   bands (ev):

   -85.1621 -45.5855 -45.5668 -45.5668   9.0053  15.6233  15.8123  15.8123
    16.8211  16.8211  39.5645  42.5905  44.4032

          k =-0.2000 0.2000-0.2000 (   567 PWs)   bands (ev):

   -85.1534 -45.6414 -45.5749 -45.5749  10.1145  15.4040  15.9405  15.9405
    16.8412  16.8412  34.6526  41.8125  43.3914

          k =-0.3000 0.3000-0.3000 (   577 PWs)   bands (ev):

   -85.1432 -45.7103 -45.5849 -45.5849  11.6649  15.3912  15.8849  15.8849
    17.1116  17.1116  29.7847  40.9139  42.7266

          k =-0.4000 0.4000-0.4000 (   589 PWs)   bands (ev):

   -85.1350 -45.7663 -45.5932 -45.5932  12.8259  15.7484  15.7484  16.2645
    17.4501  17.4501  25.6566  40.0996  42.4070

          k = 0.5000-0.5000 0.5000 (   580 PWs)   bands (ev):

   -85.1314 -45.7873 -45.5963 -45.5963  13.1027  15.6877  15.6877  17.3323
    17.5953  17.5953  23.6029  39.7851  42.3319

          k = 0.0000 0.2000 0.0000 (   564 PWs)   bands (ev):

   -85.1608 -45.5848 -45.5716 -45.5716   9.1349  15.5356  15.8768  15.8768
    16.6803  16.9223  40.3576  42.2494  42.2494

          k =-0.1000 0.3000-0.1000 (   569 PWs)   bands (ev):

   -85.1542 -45.6264 -45.5814 -45.5777  10.0020  15.3127  16.0123  16.0400
    16.5857  17.0001  36.5986  40.6638  40.7229

          k =-0.2000 0.4000-0.2000 (   575 PWs)   bands (ev):

   -85.1445 -45.6890 -45.5919 -45.5878  11.4302  15.1460  15.8756  16.0688
    16.9459  17.2205  31.5955  39.7067  39.8764

          k =-0.3000 0.5000-0.3000 (   582 PWs)   bands (ev):

   -85.1354 -45.7470 -45.5998 -45.5996  12.8039  15.4078  15.6929  15.9508
    17.5055  17.7092  27.1156  38.9139  39.4496

          k = 0.6000-0.4000 0.6000 (   577 PWs)   bands (ev):

   -85.1302 -45.7782 -45.6091 -45.6010  13.3064  15.4931  15.8467  16.2223
    17.6050  18.8335  23.9601  37.9069  40.0067

          k = 0.5000-0.3000 0.5000 (   577 PWs)   bands (ev):

   -85.1313 -45.7712 -45.6119 -45.5961  13.2332  15.5489  15.8482  16.0745
    17.4101  18.5786  24.7566  37.1974  41.0011

          k = 0.4000-0.2000 0.4000 (   581 PWs)   bands (ev):

   -85.1383 -45.7289 -45.6070 -45.5867  12.4301  15.3264  15.7348  15.9657
    17.0013  17.7602  28.5345  37.0545  42.1295

          k = 0.3000-0.1000 0.3000 (   572 PWs)   bands (ev):

   -85.1479 -45.6679 -45.5954 -45.5760  10.9182  15.2305  15.9152  16.0892
    16.6251  17.2393  33.2345  37.5085  43.8546

          k = 0.2000 0.0000 0.2000 (   563 PWs)   bands (ev):

   -85.1568 -45.6129 -45.5799 -45.5682   9.6372  15.4481  15.9280  15.9439
    16.6514  16.9442  37.9051  38.9433  44.2599

          k = 0.0000 0.4000 0.0000 (   572 PWs)   bands (ev):

   -85.1497 -45.6389 -45.5928 -45.5928  10.5877  15.0479  16.2940  16.3016
    16.3016  17.1023  38.5788  38.5788  39.0131

          k =-0.1000 0.5000-0.1000 (   578 PWs)   bands (ev):

   -85.1417 -45.6825 -45.6050 -45.6048  11.7391  14.7937  15.9471  16.4730
    16.9020  17.2831  33.8889  37.2215  37.9671

          k =-0.2000 0.6000-0.2000 (   579 PWs)   bands (ev):

   -85.1332 -45.7292 -45.6215 -45.6128  13.0407  14.7192  15.6453  16.4133
    17.5490  18.0151  29.1885  35.9257  36.6996

          k = 0.7000-0.3000 0.7000 (   580 PWs)   bands (ev):

   -85.1275 -45.7577 -45.6397 -45.6140  13.7542  14.8713  15.6233  16.2860
    17.6313  19.8659  25.2216  34.1196  37.1169

          k = 0.6000-0.2000 0.6000 (   572 PWs)   bands (ev):

   -85.1265 -45.7581 -45.6510 -45.6076  13.8861  15.0179  15.6196  16.2153
    17.4098  20.6107  24.3072  32.8790  38.4862

          k = 0.5000-0.1000 0.5000 (   577 PWs)   bands (ev):

   -85.1313 -45.7342 -45.6483 -45.5962  13.5009  15.1336  15.3444  16.2532
    16.9653  18.9873  27.8129  32.3472  40.6787

          k = 0.4000 0.0000 0.4000 (   572 PWs)   bands (ev):

   -85.1393 -45.6997 -45.6267 -45.5840  12.2460  15.0337  15.6802  16.3811
    16.4920  17.9230  32.0109  32.8702  42.9198

          k = 0.0000 0.6000 0.0000 (   576 PWs)   bands (ev):

   -85.1357 -45.7039 -45.6187 -45.6187  12.4273  14.4752  16.3327  16.9166
    16.9166  17.3289  35.1288  35.4431  35.4431

          k =-0.1000 0.7000-0.1000 (   579 PWs)   bands (ev):

   -85.1290 -45.7343 -45.6350 -45.6280  13.1789  14.2932  16.3070  17.0070
    17.5572  18.0471  31.6684  32.7447  34.5530

          k = 0.8000-0.2000 0.8000 (   582 PWs)   bands (ev):

   -85.1240 -45.7486 -45.6610 -45.6299  13.7589  14.3175  16.0103  16.8837
    17.6675  20.3101  27.4998  30.6377  34.7036

          k = 0.7000-0.1000 0.7000 (   579 PWs)   bands (ev):

   -85.1225 -45.7379 -45.6901 -45.6230  14.2064  14.4605  15.6413  16.7323
    17.4685  22.9327  24.3111  29.2292  35.9018

          k = 0.6000-0.0000 0.6000 (   580 PWs)   bands (ev):

   -85.1254 -45.7256 -45.6922 -45.6102  14.2833  14.8124  15.2069  16.5540
    17.1290  20.8825  26.8056  29.0336  37.9756

          k = 0.0000 0.8000 0.0000 (   576 PWs)   bands (ev):

   -85.1242 -45.7555 -45.6393 -45.6393  13.2328  14.0339  17.5149  17.5149
    17.5158  18.1696  29.9484  33.2600  33.2600

          k = 0.9000-0.1000 0.9000 (   578 PWs)   bands (ev):

   -85.1210 -45.7646 -45.6540 -45.6426  13.4141  13.9945  17.0964  17.4114
    17.7144  20.2717  28.0268  30.4909  33.0552

          k = 0.8000 0.0000 0.8000 (   586 PWs)   bands (ev):

   -85.1207 -45.7515 -45.6804 -45.6364  13.7758  14.1771  16.3429  17.1837
    17.6049  22.5536  26.6030  27.6463  33.9977

          k = 0.0000-1.0000 0.0000 (   588 PWs)   bands (ev):

   -85.1203 -45.7754 -45.6477 -45.6477  13.2723  13.8701  17.5880  17.7760
    17.7760  20.0755  27.0654  32.4587  32.4587

          k =-0.2000 0.4000 0.0000 (   572 PWs)   bands (ev):

   -85.1468 -45.6625 -45.6021 -45.5835  11.0373  15.0684  15.9286  16.3181
    16.5477  17.2667  35.1055  35.7807  41.7127

          k =-0.3000 0.5000-0.1000 (   579 PWs)   bands (ev):

   -85.1378 -45.7109 -45.6212 -45.5933  12.4665  14.9414  15.6310  16.3268
    16.9238  17.8761  30.5083  34.8406  39.3828

          k = 0.6000-0.4000 0.8000 (   578 PWs)   bands (ev):

   -85.1302 -45.7515 -45.6325 -45.6037  13.5065  15.1333  15.4939  16.1875
    17.3794  19.0276  26.2434  34.8411  37.3750

          k = 0.5000-0.3000 0.7000 (   574 PWs)   bands (ev):

   -85.1272 -45.7669 -45.6361 -45.6083  13.7350  15.1198  15.7655  16.1116
    17.5338  20.3405  23.8084  35.2250  36.2960

          k =-0.2000 0.6000 0.0000 (   577 PWs)   bands (ev):

   -85.1342 -45.7132 -45.6293 -45.6114  12.7948  14.5774  15.7568  16.9163
    16.9794  17.8805  32.6939  33.2442  35.8600

          k = 0.7000-0.3000 0.9000 (   576 PWs)   bands (ev):

   -85.1273 -45.7382 -45.6514 -45.6208  13.7240  14.5577  15.5057  16.7750
    17.4277  19.3562  28.4570  32.7119  33.6775

          k = 0.6000-0.2000 0.8000 (   570 PWs)   bands (ev):

   -85.1235 -45.7460 -45.6701 -45.6233  14.2002  14.6055  15.4362  16.5859
    17.5448  21.7172  24.7585  31.6568  33.6361

          k = 0.5000-0.1000 0.7000 (   573 PWs)   bands (ev):

   -85.1247 -45.7381 -45.6767 -45.6162  14.2725  14.7554  15.2174  16.5430
    17.3382  21.0531  25.8207  30.6376  34.9967

          k = 0.4000 0.0000 0.6000 (   578 PWs)   bands (ev):

   -85.1303 -45.7261 -45.6575 -45.6039  13.6563  14.8586  15.2258  16.6120
    16.9503  19.0933  29.4955  30.7452  36.9831

          k = 0.8000-0.2000 1.0000 (   579 PWs)   bands (ev):

   -85.1239 -45.7499 -45.6513 -45.6376  13.5311  14.1905  16.3286  17.3338
    17.5127  19.5903  30.1944  30.9350  31.7524

          k = 0.7000-0.1000 0.9000 (   576 PWs)   bands (ev):

   -85.1209 -45.7457 -45.6769 -45.6397  13.8881  14.3119  15.9563  17.0628
    17.6665  22.1094  27.1971  28.6196  31.8415

          k = 0.6000 0.0000 0.8000 (   577 PWs)   bands (ev):

   -85.1214 -45.7204 -45.7084 -45.6307  14.3026  14.5094  15.4389  16.8012
    17.5193  23.7697  24.8413  28.1166  33.1001

          k =-0.2000-1.0000 0.0000 (   578 PWs)   bands (ev):

   -85.1200 -45.7629 -45.6597 -45.6479  13.5379  14.0458  16.7726  17.3596
    17.7764  21.5127  27.1898  30.2666  31.0476

          k = 0.6000-0.2000 1.0000 (   575 PWs)   bands (ev):

   -85.1227 -45.7332 -45.6823 -45.6330  14.1808  14.6645  15.2141  16.8740
    17.5090  21.4993  27.7206  29.4016  31.4148

          k = 0.5000-0.1000 0.9000 (   580 PWs)   bands (ev):

   -85.1211 -45.7232 -45.7005 -45.6394  14.3029  14.8005  15.0917  16.7492
    17.6518  24.0712  24.9044  29.4687  30.1723

          k =-0.4000-1.0000 0.0000 (   582 PWs)   bands (ev):

   -85.1201 -45.7312 -45.6916 -45.6488  14.0762  14.5843  15.5047  16.8752
    17.7771  24.0618  27.0481  27.5996  29.1976

     the Fermi energy is    17.6195 ev

!    total energy              =    -426.56365349 Ry
     Harris-Foulkes estimate   =    -426.56365349 Ry
     estimated scf accuracy    <          1.0E-09 Ry

     total all-electron energy =     -3039.021998 Ry

     The total energy is the sum of the following terms:

     one-electron contribution =    -184.96961250 Ry
     hartree contribution      =     104.55809484 Ry
     xc contribution           =     -33.92150416 Ry
     ewald contribution        =    -223.38275372 Ry
     one-center paw contrib.   =     -88.84571673 Ry
     smearing contrib. (-TS)   =      -0.00216123 Ry

     convergence has been achieved in   7 iterations

     Forces acting on atoms (cartesian axes, Ry/au):

     atom    1 type  1   force =     0.00000000    0.00000000    0.00000000

     Total force =     0.000000     Total SCF correction =     0.000000


     Computing stress (Cartesian axis) and pressure

          total   stress  (Ry/bohr**3)                   (kbar)     P= -130.43
  -0.00088665   0.00000000   0.00000000       -130.43      0.00      0.00
   0.00000000  -0.00088665  -0.00000000          0.00   -130.43     -0.00
   0.00000000  -0.00000000  -0.00088665          0.00     -0.00   -130.43


     Writing output data file Ni.save/

     init_run     :      0.36s CPU      0.38s WALL (       1 calls)
     electrons    :      3.70s CPU      4.01s WALL (       1 calls)
     forces       :      0.04s CPU      0.04s WALL (       1 calls)
     stress       :      0.11s CPU      0.11s WALL (       1 calls)

     Called by init_run:
     wfcinit      :      0.11s CPU      0.12s WALL (       1 calls)
     potinit      :      0.09s CPU      0.10s WALL (       1 calls)
     hinit0       :      0.13s CPU      0.13s WALL (       1 calls)

     Called by electrons:
     c_bands      :      2.58s CPU      2.76s WALL (       8 calls)
     sum_band     :      0.44s CPU      0.47s WALL (       8 calls)
     v_of_rho     :      0.02s CPU      0.03s WALL (       8 calls)
     newd         :      0.04s CPU      0.04s WALL (       8 calls)
     PAW_pot      :      0.70s CPU      0.80s WALL (       8 calls)
     mix_rho      :      0.00s CPU      0.00s WALL (       8 calls)

     Called by c_bands:
     init_us_2    :      0.07s CPU      0.07s WALL (     893 calls)
     cegterg      :      2.48s CPU      2.67s WALL (     376 calls)

     Called by sum_band:
     sum_band:bec :      0.00s CPU      0.00s WALL (     376 calls)
     addusdens    :      0.03s CPU      0.04s WALL (       8 calls)

     Called by *egterg:
     h_psi        :      1.75s CPU      1.89s WALL (    1287 calls)
     s_psi        :      0.06s CPU      0.07s WALL (    1287 calls)
     g_psi        :      0.01s CPU      0.01s WALL (     864 calls)
     cdiaghg      :      0.41s CPU      0.43s WALL (    1193 calls)

     Called by h_psi:
     h_psi:pot    :      1.74s CPU      1.88s WALL (    1287 calls)
     h_psi:calbec :      0.09s CPU      0.10s WALL (    1287 calls)
     vloc_psi     :      1.58s CPU      1.71s WALL (    1287 calls)
     add_vuspsi   :      0.06s CPU      0.07s WALL (    1287 calls)

     General routines
     calbec       :      0.14s CPU      0.15s WALL (    1898 calls)
     fft          :      0.02s CPU      0.02s WALL (     115 calls)
     ffts         :      0.00s CPU      0.00s WALL (       8 calls)
     fftw         :      1.76s CPU      1.89s WALL (   29874 calls)

     Parallel routines
     fft_scatt_xy :      0.17s CPU      0.18s WALL (   29997 calls)
     fft_scatt_yz :      0.48s CPU      0.51s WALL (   29997 calls)

     PWSCF        :     4.95s CPU         5.35s WALL


   This run was terminated on:  22:42:59  26Mar2024            

=------------------------------------------------------------------------------=
   JOB DONE.
=------------------------------------------------------------------------------=
