
     Program PWSCF v.6.3MaX starts on 26Mar2024 at 22:34:52 

     This program is part of the open-source Quantum ESPRESSO suite
     for quantum simulation of materials; please cite
         "P. Giannozzi et al., J. Phys.:Condens. Matter 21 395502 (2009);
         "P. Giannozzi et al., J. Phys.:Condens. Matter 29 465901 (2017);
          URL http://www.quantum-espresso.org", 
     in publications or presentations arising from this work. More details at
     http://www.quantum-espresso.org/quote

     Parallel version (MPI), running on     5 processors

     MPI processes distributed on     1 nodes
     R & G space division:  proc/nbgrp/npool/nimage =       5
     Waiting for input...
     Reading input from standard input

     Current dimensions of program PWSCF are:
     Max number of different atomic species (ntypx) = 10
     Max number of k-points (npk) =  40000
     Max angular momentum in pseudopotentials (lmaxx) =  3
               file Ni.pbe-spn-kjpaw_psl.1.0.0.UPF: wavefunction(s)  3P 3D renormalized

     Subspace diagonalization in iterative solution of the eigenvalue problem:
     a serial algorithm will be used


     Parallelization info
     --------------------
     sticks:   dense  smooth     PW     G-vecs:    dense   smooth      PW
     Min          49      49     17                  513      513     106
     Max          51      51     17                  513      513     107
     Sum         253     253     85                 2565     2565     531



     bravais-lattice index     =            2
     lattice parameter (alat)  =       6.6500  a.u.
     unit-cell volume          =      73.5199 (a.u.)^3
     number of atoms/cell      =            1
     number of atomic types    =            1
     number of electrons       =        18.00
     number of Kohn-Sham states=           13
     kinetic-energy cutoff     =      40.0000  Ry
     charge density cutoff     =     160.0000  Ry
     convergence threshold     =      1.0E-08
     mixing beta               =       0.7000
     number of iterations used =            8  plain     mixing
     Exchange-correlation      = SLA PW PBX PBC ( 1  4  3  4 0 0)

     celldm(1)=   6.650000  celldm(2)=   0.000000  celldm(3)=   0.000000
     celldm(4)=   0.000000  celldm(5)=   0.000000  celldm(6)=   0.000000

     crystal axes: (cart. coord. in units of alat)
               a(1) = (  -0.500000   0.000000   0.500000 )  
               a(2) = (   0.000000   0.500000   0.500000 )  
               a(3) = (  -0.500000   0.500000   0.000000 )  

     reciprocal axes: (cart. coord. in units 2 pi/alat)
               b(1) = ( -1.000000 -1.000000  1.000000 )  
               b(2) = (  1.000000  1.000000  1.000000 )  
               b(3) = ( -1.000000  1.000000 -1.000000 )  


     PseudoPot. # 1 for Ni read from file:
     /home/lorenzo/pseudos/Ni/Ni.pbe-spn-kjpaw_psl.1.0.0.UPF
     MD5 check sum: 6e86b733589c3ad8389697b807d86aa7
     Pseudo is Projector augmented-wave + core cor, Zval = 18.0
     Generated using "atomic" code by A. Dal Corso v.6.3
     Shape of augmentation charge: PSQ
     Using radial grid of 1195 points,  6 beta functions with: 
                l(1) =   0
                l(2) =   0
                l(3) =   1
                l(4) =   1
                l(5) =   2
                l(6) =   2
     Q(r) pseudized with 0 coefficients 


     atomic species   valence    mass     pseudopotential
        Ni            18.00    58.69340     Ni( 1.00)

     48 Sym. Ops., with inversion, found



   Cartesian axes

     site n.     atom                  positions (alat units)
         1           Ni  tau(   1) = (   0.0000000   0.0000000   0.0000000  )

     number of k points=    10  gaussian smearing, width (Ry)=  0.0100
                       cart. coord. in units 2pi/alat
        k(    1) = (   0.0000000   0.0000000   0.0000000), wk =   0.0160000
        k(    2) = (  -0.2000000   0.2000000  -0.2000000), wk =   0.1280000
        k(    3) = (  -0.4000000   0.4000000  -0.4000000), wk =   0.1280000
        k(    4) = (   0.0000000   0.4000000   0.0000000), wk =   0.0960000
        k(    5) = (  -0.2000000   0.6000000  -0.2000000), wk =   0.3840000
        k(    6) = (   0.6000000  -0.2000000   0.6000000), wk =   0.3840000
        k(    7) = (   0.4000000   0.0000000   0.4000000), wk =   0.1920000
        k(    8) = (   0.0000000   0.8000000   0.0000000), wk =   0.0960000
        k(    9) = (   0.8000000   0.0000000   0.8000000), wk =   0.1920000
        k(   10) = (   0.6000000  -0.2000000   1.0000000), wk =   0.3840000

     Dense  grid:     2565 G-vectors     FFT dimensions: (  20,  20,  20)

     Estimated max dynamical RAM per process >       3.12 MB

     Estimated total dynamical RAM >      15.62 MB

     Check: negative/imaginary core charge=   -0.000044    0.000000

     Initial potential from superposition of free atoms

     starting charge   17.99975, renormalised to   18.00000
     Starting wfcs are   10 randomized atomic wfcs +    3 random wfcs
     Checking if some PAW data can be deallocated... 

     total cpu time spent up to now is        1.0 secs

     Self-consistent Calculation

     iteration #  1     ecut=    40.00 Ry     beta= 0.70
     Davidson diagonalization with overlap
     ethr =  1.00E-02,  avg # of iterations =  4.8

     Threshold (ethr) on eigenvalues was too large:
     Diagonalizing with lowered threshold

     Davidson diagonalization with overlap
     ethr =  1.49E-04,  avg # of iterations =  1.3

     total cpu time spent up to now is        1.2 secs

     total energy              =    -428.62199604 Ry
     Harris-Foulkes estimate   =    -428.63372393 Ry
     estimated scf accuracy    <       0.02756915 Ry

     iteration #  2     ecut=    40.00 Ry     beta= 0.70
     Davidson diagonalization with overlap
     ethr =  1.53E-04,  avg # of iterations =  2.0

     total cpu time spent up to now is        1.4 secs

     total energy              =    -428.61791907 Ry
     Harris-Foulkes estimate   =    -428.63244521 Ry
     estimated scf accuracy    <       0.02859863 Ry

     iteration #  3     ecut=    40.00 Ry     beta= 0.70
     Davidson diagonalization with overlap
     ethr =  1.53E-04,  avg # of iterations =  2.0

     total cpu time spent up to now is        1.6 secs

     total energy              =    -428.62569904 Ry
     Harris-Foulkes estimate   =    -428.62888826 Ry
     estimated scf accuracy    <       0.01010360 Ry

     iteration #  4     ecut=    40.00 Ry     beta= 0.70
     Davidson diagonalization with overlap
     ethr =  5.61E-05,  avg # of iterations =  1.7

     total cpu time spent up to now is        1.7 secs

     total energy              =    -428.62710766 Ry
     Harris-Foulkes estimate   =    -428.62710488 Ry
     estimated scf accuracy    <       0.00003311 Ry

     iteration #  5     ecut=    40.00 Ry     beta= 0.70
     Davidson diagonalization with overlap
     ethr =  1.84E-07,  avg # of iterations =  2.7

     total cpu time spent up to now is        1.9 secs

     total energy              =    -428.62713330 Ry
     Harris-Foulkes estimate   =    -428.62713487 Ry
     estimated scf accuracy    <       0.00000531 Ry

     iteration #  6     ecut=    40.00 Ry     beta= 0.70
     Davidson diagonalization with overlap
     ethr =  2.95E-08,  avg # of iterations =  1.1

     total cpu time spent up to now is        2.1 secs

     total energy              =    -428.62713385 Ry
     Harris-Foulkes estimate   =    -428.62713387 Ry
     estimated scf accuracy    <       0.00000016 Ry

     iteration #  7     ecut=    40.00 Ry     beta= 0.70
     Davidson diagonalization with overlap
     ethr =  8.67E-10,  avg # of iterations =  2.0

     total cpu time spent up to now is        2.3 secs

     End of self-consistent calculation

          k = 0.0000 0.0000 0.0000 (   331 PWs)   bands (ev):

   -85.6431 -45.4853 -45.4853 -45.4853   8.9540  15.8965  15.8965  15.8965
    16.9404  16.9404  41.4617  45.4025  45.4025

          k =-0.2000 0.2000-0.2000 (   311 PWs)   bands (ev):

   -85.6253 -45.3020 -45.2717 -45.2717  10.4715  15.6788  16.2324  16.2324
    17.1171  17.1171  34.8396  42.0221  43.5231

          k =-0.4000 0.4000-0.4000 (   320 PWs)   bands (ev):

   -85.6075 -45.5042 -45.3297 -45.3297  13.1612  16.0113  16.0113  16.4626
    17.6714  17.6714  25.9600  40.2887  42.5804

          k = 0.0000 0.4000 0.0000 (   303 PWs)   bands (ev):

   -85.6186 -45.2367 -45.2367 -45.0961  10.9465  15.3881  16.6702  16.7014
    16.7014  17.3302  38.7328  38.7328  39.0972

          k =-0.2000 0.6000-0.2000 (   316 PWs)   bands (ev):

   -85.6058 -45.4555 -45.3215 -45.3141  13.3485  14.9978  15.9088  16.6959
    17.8098  18.2267  29.4312  36.0615  36.8532

          k = 0.6000-0.2000 0.6000 (   307 PWs)   bands (ev):

   -85.5956 -45.2650 -45.2377 -45.2377  14.2605  15.3068  15.9415  16.5506
    17.7387  20.8946  24.7153  33.1112  38.6381

          k = 0.4000 0.0000 0.4000 (   311 PWs)   bands (ev):

   -85.6104 -45.3706 -45.3308 -45.1769  12.5691  15.3397  15.9383  16.7936
    16.8003  18.1298  32.1247  33.1735  43.1572

          k = 0.0000 0.8000 0.0000 (   322 PWs)   bands (ev):

   -85.5994 -45.5171 -45.4267 -45.4267  13.5044  14.2932  17.6815  17.7316
    17.7316  18.3702  30.1697  33.4380  33.4380

          k = 0.8000 0.0000 0.8000 (   318 PWs)   bands (ev):

   -85.5928 -45.3956 -45.3875 -45.3800  14.0560  14.4531  16.6032  17.3928
    17.8990  22.7222  26.7577  28.1244  34.1626

          k = 0.6000-0.2000 1.0000 (   317 PWs)   bands (ev):

   -85.5949 -45.4104 -45.3972 -45.3061  14.4600  14.9598  15.4947  17.1172
    17.7608  21.7438  27.8703  29.6657  31.7824

     the Fermi energy is    17.8596 ev

!    total energy              =    -428.62713388 Ry
     Harris-Foulkes estimate   =    -428.62713388 Ry
     estimated scf accuracy    <          1.9E-09 Ry

     total all-electron energy =     -3041.059241 Ry

     The total energy is the sum of the following terms:

     one-electron contribution =    -184.38601961 Ry
     hartree contribution      =     104.42040394 Ry
     xc contribution           =     -34.31555617 Ry
     ewald contribution        =    -223.38275372 Ry
     one-center paw contrib.   =     -90.96024033 Ry
     smearing contrib. (-TS)   =      -0.00296799 Ry

     convergence has been achieved in   7 iterations

     Forces acting on atoms (cartesian axes, Ry/au):

     atom    1 type  1   force =     0.00000000    0.00000000    0.00000000

     Total force =     0.000000     Total SCF correction =     0.000000


     Computing stress (Cartesian axis) and pressure

          total   stress  (Ry/bohr**3)                   (kbar)     P=-6210.17
  -0.04221592  -0.00000000  -0.00000000      -6210.17     -0.00     -0.00
  -0.00000000  -0.04221592   0.00000000         -0.00  -6210.17      0.00
  -0.00000000   0.00000000  -0.04221592         -0.00      0.00  -6210.17


     Writing output data file Ni.save/

     init_run     :      0.23s CPU      0.25s WALL (       1 calls)
     electrons    :      1.16s CPU      1.28s WALL (       1 calls)
     forces       :      0.01s CPU      0.01s WALL (       1 calls)
     stress       :      0.04s CPU      0.04s WALL (       1 calls)

     Called by init_run:
     wfcinit      :      0.02s CPU      0.02s WALL (       1 calls)
     potinit      :      0.09s CPU      0.10s WALL (       1 calls)
     hinit0       :      0.11s CPU      0.11s WALL (       1 calls)

     Called by electrons:
     c_bands      :      0.39s CPU      0.42s WALL (       8 calls)
     sum_band     :      0.09s CPU      0.10s WALL (       8 calls)
     v_of_rho     :      0.01s CPU      0.01s WALL (       8 calls)
     newd         :      0.02s CPU      0.02s WALL (       8 calls)
     PAW_pot      :      0.74s CPU      0.82s WALL (       8 calls)
     mix_rho      :      0.00s CPU      0.00s WALL (       8 calls)

     Called by c_bands:
     init_us_2    :      0.01s CPU      0.01s WALL (     190 calls)
     cegterg      :      0.37s CPU      0.40s WALL (      80 calls)

     Called by sum_band:
     sum_band:bec :      0.00s CPU      0.00s WALL (      80 calls)
     addusdens    :      0.02s CPU      0.02s WALL (       8 calls)

     Called by *egterg:
     h_psi        :      0.25s CPU      0.27s WALL (     266 calls)
     s_psi        :      0.01s CPU      0.01s WALL (     266 calls)
     g_psi        :      0.00s CPU      0.00s WALL (     176 calls)
     cdiaghg      :      0.07s CPU      0.08s WALL (     246 calls)

     Called by h_psi:
     h_psi:pot    :      0.25s CPU      0.27s WALL (     266 calls)
     h_psi:calbec :      0.01s CPU      0.01s WALL (     266 calls)
     vloc_psi     :      0.23s CPU      0.25s WALL (     266 calls)
     add_vuspsi   :      0.01s CPU      0.01s WALL (     266 calls)

     General routines
     calbec       :      0.02s CPU      0.02s WALL (     396 calls)
     fft          :      0.01s CPU      0.01s WALL (     115 calls)
     ffts         :      0.00s CPU      0.00s WALL (       8 calls)
     fftw         :      0.25s CPU      0.28s WALL (    6240 calls)

     Parallel routines
     fft_scatt_xy :      0.02s CPU      0.03s WALL (    6363 calls)
     fft_scatt_yz :      0.08s CPU      0.09s WALL (    6363 calls)

     PWSCF        :     2.19s CPU         2.38s WALL


   This run was terminated on:  22:34:55  26Mar2024            

=------------------------------------------------------------------------------=
   JOB DONE.
=------------------------------------------------------------------------------=
