
     Program PWSCF v.6.3MaX starts on 26Mar2024 at 23: 3:48 

     This program is part of the open-source Quantum ESPRESSO suite
     for quantum simulation of materials; please cite
         "P. Giannozzi et al., J. Phys.:Condens. Matter 21 395502 (2009);
         "P. Giannozzi et al., J. Phys.:Condens. Matter 29 465901 (2017);
          URL http://www.quantum-espresso.org", 
     in publications or presentations arising from this work. More details at
     http://www.quantum-espresso.org/quote

     Parallel version (MPI), running on     5 processors

     MPI processes distributed on     1 nodes
     R & G space division:  proc/nbgrp/npool/nimage =       5
     Waiting for input...
     Reading input from standard input

     Current dimensions of program PWSCF are:
     Max number of different atomic species (ntypx) = 10
     Max number of k-points (npk) =  40000
     Max angular momentum in pseudopotentials (lmaxx) =  3

     Subspace diagonalization in iterative solution of the eigenvalue problem:
     a serial algorithm will be used


     Parallelization info
     --------------------
     sticks:   dense  smooth     PW     G-vecs:    dense   smooth      PW
     Min         116     116     37                 1850     1850     327
     Max         117     117     38                 1853     1853     329
     Sum         583     583    187                 9257     9257    1639



     bravais-lattice index     =            2
     lattice parameter (alat)  =       6.6500  a.u.
     unit-cell volume          =      73.5199 (a.u.)^3
     number of atoms/cell      =            1
     number of atomic types    =            1
     number of electrons       =        18.00
     number of Kohn-Sham states=           13
     kinetic-energy cutoff     =      95.0000  Ry
     charge density cutoff     =     380.0000  Ry
     convergence threshold     =      1.0E-08
     mixing beta               =       0.7000
     number of iterations used =            8  plain     mixing
     Exchange-correlation      = PBESOL ( 1  4 10  8 0 0)

     celldm(1)=   6.650000  celldm(2)=   0.000000  celldm(3)=   0.000000
     celldm(4)=   0.000000  celldm(5)=   0.000000  celldm(6)=   0.000000

     crystal axes: (cart. coord. in units of alat)
               a(1) = (  -0.500000   0.000000   0.500000 )  
               a(2) = (   0.000000   0.500000   0.500000 )  
               a(3) = (  -0.500000   0.500000   0.000000 )  

     reciprocal axes: (cart. coord. in units 2 pi/alat)
               b(1) = ( -1.000000 -1.000000  1.000000 )  
               b(2) = (  1.000000  1.000000  1.000000 )  
               b(3) = ( -1.000000  1.000000 -1.000000 )  


     PseudoPot. # 1 for Ni read from file:
     /home/lorenzo/pseudos/Ni/Ni.pbesol-spn-rrkjus_psl.1.0.0.UPF
     MD5 check sum: 6fc0a587bf949a08f2faed986b854013
     Pseudo is Ultrasoft + core correction, Zval = 18.0
     Generated using "atomic" code by A. Dal Corso v.6.3
     Using radial grid of 1195 points,  6 beta functions with: 
                l(1) =   0
                l(2) =   0
                l(3) =   1
                l(4) =   1
                l(5) =   2
                l(6) =   2
     Q(r) pseudized with 0 coefficients 


     atomic species   valence    mass     pseudopotential
        Ni            18.00    58.69340     Ni( 1.00)

     48 Sym. Ops., with inversion, found



   Cartesian axes

     site n.     atom                  positions (alat units)
         1           Ni  tau(   1) = (   0.0000000   0.0000000   0.0000000  )

     number of k points=    47  gaussian smearing, width (Ry)=  0.0100
                       cart. coord. in units 2pi/alat
        k(    1) = (   0.0000000   0.0000000   0.0000000), wk =   0.0020000
        k(    2) = (  -0.1000000   0.1000000  -0.1000000), wk =   0.0160000
        k(    3) = (  -0.2000000   0.2000000  -0.2000000), wk =   0.0160000
        k(    4) = (  -0.3000000   0.3000000  -0.3000000), wk =   0.0160000
        k(    5) = (  -0.4000000   0.4000000  -0.4000000), wk =   0.0160000
        k(    6) = (   0.5000000  -0.5000000   0.5000000), wk =   0.0080000
        k(    7) = (   0.0000000   0.2000000   0.0000000), wk =   0.0120000
        k(    8) = (  -0.1000000   0.3000000  -0.1000000), wk =   0.0480000
        k(    9) = (  -0.2000000   0.4000000  -0.2000000), wk =   0.0480000
        k(   10) = (  -0.3000000   0.5000000  -0.3000000), wk =   0.0480000
        k(   11) = (   0.6000000  -0.4000000   0.6000000), wk =   0.0480000
        k(   12) = (   0.5000000  -0.3000000   0.5000000), wk =   0.0480000
        k(   13) = (   0.4000000  -0.2000000   0.4000000), wk =   0.0480000
        k(   14) = (   0.3000000  -0.1000000   0.3000000), wk =   0.0480000
        k(   15) = (   0.2000000   0.0000000   0.2000000), wk =   0.0240000
        k(   16) = (   0.0000000   0.4000000   0.0000000), wk =   0.0120000
        k(   17) = (  -0.1000000   0.5000000  -0.1000000), wk =   0.0480000
        k(   18) = (  -0.2000000   0.6000000  -0.2000000), wk =   0.0480000
        k(   19) = (   0.7000000  -0.3000000   0.7000000), wk =   0.0480000
        k(   20) = (   0.6000000  -0.2000000   0.6000000), wk =   0.0480000
        k(   21) = (   0.5000000  -0.1000000   0.5000000), wk =   0.0480000
        k(   22) = (   0.4000000   0.0000000   0.4000000), wk =   0.0240000
        k(   23) = (   0.0000000   0.6000000   0.0000000), wk =   0.0120000
        k(   24) = (  -0.1000000   0.7000000  -0.1000000), wk =   0.0480000
        k(   25) = (   0.8000000  -0.2000000   0.8000000), wk =   0.0480000
        k(   26) = (   0.7000000  -0.1000000   0.7000000), wk =   0.0480000
        k(   27) = (   0.6000000  -0.0000000   0.6000000), wk =   0.0240000
        k(   28) = (   0.0000000   0.8000000   0.0000000), wk =   0.0120000
        k(   29) = (   0.9000000  -0.1000000   0.9000000), wk =   0.0480000
        k(   30) = (   0.8000000   0.0000000   0.8000000), wk =   0.0240000
        k(   31) = (   0.0000000  -1.0000000   0.0000000), wk =   0.0060000
        k(   32) = (  -0.2000000   0.4000000   0.0000000), wk =   0.0480000
        k(   33) = (  -0.3000000   0.5000000  -0.1000000), wk =   0.0960000
        k(   34) = (   0.6000000  -0.4000000   0.8000000), wk =   0.0960000
        k(   35) = (   0.5000000  -0.3000000   0.7000000), wk =   0.0480000
        k(   36) = (  -0.2000000   0.6000000   0.0000000), wk =   0.0480000
        k(   37) = (   0.7000000  -0.3000000   0.9000000), wk =   0.0960000
        k(   38) = (   0.6000000  -0.2000000   0.8000000), wk =   0.0960000
        k(   39) = (   0.5000000  -0.1000000   0.7000000), wk =   0.0960000
        k(   40) = (   0.4000000   0.0000000   0.6000000), wk =   0.0480000
        k(   41) = (   0.8000000  -0.2000000   1.0000000), wk =   0.0480000
        k(   42) = (   0.7000000  -0.1000000   0.9000000), wk =   0.0960000
        k(   43) = (   0.6000000   0.0000000   0.8000000), wk =   0.0480000
        k(   44) = (  -0.2000000  -1.0000000   0.0000000), wk =   0.0240000
        k(   45) = (   0.6000000  -0.2000000   1.0000000), wk =   0.0480000
        k(   46) = (   0.5000000  -0.1000000   0.9000000), wk =   0.0480000
        k(   47) = (  -0.4000000  -1.0000000   0.0000000), wk =   0.0240000

     Dense  grid:     9257 G-vectors     FFT dimensions: (  30,  30,  30)

     Estimated max dynamical RAM per process >      10.73 MB

     Estimated total dynamical RAM >      53.63 MB

     Check: negative/imaginary core charge=   -0.000003    0.000000

     Initial potential from superposition of free atoms

     starting charge   17.99977, renormalised to   18.00000
     Starting wfcs are   10 randomized atomic wfcs +    3 random wfcs

     total cpu time spent up to now is        1.4 secs

     Self-consistent Calculation

     iteration #  1     ecut=    95.00 Ry     beta= 0.70
     Davidson diagonalization with overlap
     ethr =  1.00E-02,  avg # of iterations =  3.5

     Threshold (ethr) on eigenvalues was too large:
     Diagonalizing with lowered threshold

     Davidson diagonalization with overlap
     ethr =  1.25E-05,  avg # of iterations =  3.0

     total cpu time spent up to now is        2.9 secs

     total energy              =    -339.40057134 Ry
     Harris-Foulkes estimate   =    -339.40168511 Ry
     estimated scf accuracy    <       0.00218185 Ry

     iteration #  2     ecut=    95.00 Ry     beta= 0.70
     Davidson diagonalization with overlap
     ethr =  1.21E-05,  avg # of iterations =  2.1

     total cpu time spent up to now is        3.6 secs

     total energy              =    -339.40009449 Ry
     Harris-Foulkes estimate   =    -339.40193376 Ry
     estimated scf accuracy    <       0.00442567 Ry

     iteration #  3     ecut=    95.00 Ry     beta= 0.70
     Davidson diagonalization with overlap
     ethr =  1.21E-05,  avg # of iterations =  2.1

     total cpu time spent up to now is        4.3 secs

     total energy              =    -339.40105037 Ry
     Harris-Foulkes estimate   =    -339.40118724 Ry
     estimated scf accuracy    <       0.00041925 Ry

     iteration #  4     ecut=    95.00 Ry     beta= 0.70
     Davidson diagonalization with overlap
     ethr =  2.33E-06,  avg # of iterations =  1.5

     total cpu time spent up to now is        4.9 secs

     total energy              =    -339.40111153 Ry
     Harris-Foulkes estimate   =    -339.40111135 Ry
     estimated scf accuracy    <       0.00000026 Ry

     iteration #  5     ecut=    95.00 Ry     beta= 0.70
     Davidson diagonalization with overlap
     ethr =  1.46E-09,  avg # of iterations =  3.6

     total cpu time spent up to now is        6.0 secs

     total energy              =    -339.40111310 Ry
     Harris-Foulkes estimate   =    -339.40111317 Ry
     estimated scf accuracy    <       0.00000019 Ry

     iteration #  6     ecut=    95.00 Ry     beta= 0.70
     Davidson diagonalization with overlap
     ethr =  1.05E-09,  avg # of iterations =  1.0

     total cpu time spent up to now is        6.6 secs

     total energy              =    -339.40111310 Ry
     Harris-Foulkes estimate   =    -339.40111310 Ry
     estimated scf accuracy    <       0.00000003 Ry

     iteration #  7     ecut=    95.00 Ry     beta= 0.70
     Davidson diagonalization with overlap
     ethr =  1.45E-10,  avg # of iterations =  1.4

     total cpu time spent up to now is        7.3 secs

     End of self-consistent calculation

          k = 0.0000 0.0000 0.0000 (  1139 PWs)   bands (ev):

   -85.1432 -45.5557 -45.5557 -45.5557   8.6042  15.7265  15.7265  15.7265
    16.8507  16.8507  41.2807  45.1995  45.1995

          k =-0.1000 0.1000-0.1000 (  1155 PWs)   bands (ev):

   -85.1399 -45.5775 -45.5590 -45.5590   8.9937  15.6216  15.8106  15.8106
    16.8174  16.8174  39.5575  42.5855  44.3945

          k =-0.2000 0.2000-0.2000 (  1167 PWs)   bands (ev):

   -85.1313 -45.6338 -45.5674 -45.5674  10.1026  15.4022  15.9384  15.9384
    16.8377  16.8377  34.6407  41.8087  43.3808

          k =-0.3000 0.3000-0.3000 (  1155 PWs)   bands (ev):

   -85.1207 -45.7029 -45.5773 -45.5773  11.6555  15.3885  15.8825  15.8825
    17.1083  17.1083  29.7712  40.9116  42.7162

          k =-0.4000 0.4000-0.4000 (  1149 PWs)   bands (ev):

   -85.1120 -45.7586 -45.5853 -45.5853  12.8215  15.7458  15.7458  16.2605
    17.4469  17.4469  25.6416  40.0987  42.3983

          k = 0.5000-0.5000 0.5000 (  1158 PWs)   bands (ev):

   -85.1088 -45.7801 -45.5884 -45.5884  13.0994  15.6850  15.6850  17.3287
    17.5920  17.5920  23.5845  39.7846  42.3244

          k = 0.0000 0.2000 0.0000 (  1155 PWs)   bands (ev):

   -85.1388 -45.5769 -45.5640 -45.5640   9.1225  15.5340  15.8750  15.8750
    16.6767  16.9186  40.3538  42.2401  42.2401

          k =-0.1000 0.3000-0.1000 (  1160 PWs)   bands (ev):

   -85.1320 -45.6187 -45.5737 -45.5702   9.9903  15.3111  16.0102  16.0380
    16.5822  16.9965  36.5881  40.6543  40.7155

          k =-0.2000 0.4000-0.2000 (  1137 PWs)   bands (ev):

   -85.1220 -45.6813 -45.5840 -45.5799  11.4200  15.1442  15.8730  16.0665
    16.9425  17.2171  31.5830  39.6974  39.8705

          k =-0.3000 0.5000-0.3000 (  1140 PWs)   bands (ev):

   -85.1127 -45.7394 -45.5918 -45.5916  12.7979  15.4049  15.6904  15.9483
    17.5022  17.7050  27.1010  38.9093  39.4408

          k = 0.6000-0.4000 0.6000 (  1155 PWs)   bands (ev):

   -85.1077 -45.7710 -45.6012 -45.5933  13.3029  15.4904  15.8440  16.2196
    17.6018  18.8292  23.9415  37.9004  39.9979

          k = 0.5000-0.3000 0.5000 (  1148 PWs)   bands (ev):

   -85.1088 -45.7638 -45.6040 -45.5884  13.2291  15.5463  15.8455  16.0715
    17.4070  18.5738  24.7392  37.1888  40.9944

          k = 0.4000-0.2000 0.4000 (  1144 PWs)   bands (ev):

   -85.1156 -45.7213 -45.5990 -45.5788  12.4226  15.3238  15.7323  15.9631
    16.9984  17.7560  28.5207  37.0450  42.1251

          k = 0.3000-0.1000 0.3000 (  1149 PWs)   bands (ev):

   -85.1256 -45.6600 -45.5877 -45.5683  10.9073  15.2289  15.9129  16.0870
    16.6218  17.2356  33.2225  37.4979  43.8508

          k = 0.2000 0.0000 0.2000 (  1159 PWs)   bands (ev):

   -85.1349 -45.6052 -45.5725 -45.5608   9.6245  15.4465  15.9260  15.9421
    16.6478  16.9405  37.8970  38.9307  44.2567

          k = 0.0000 0.4000 0.0000 (  1158 PWs)   bands (ev):

   -85.1274 -45.6309 -45.5851 -45.5851  10.5767  15.0464  16.2902  16.2996
    16.2996  17.0985  38.5700  38.5700  39.0051

          k =-0.1000 0.5000-0.1000 (  1146 PWs)   bands (ev):

   -85.1192 -45.6746 -45.5972 -45.5970  11.7294  14.7924  15.9439  16.4707
    16.8987  17.2794  33.8787  37.2133  37.9599

          k =-0.2000 0.6000-0.2000 (  1156 PWs)   bands (ev):

   -85.1106 -45.7216 -45.6140 -45.6051  13.0337  14.7175  15.6423  16.4106
    17.5456  18.0100  29.1755  35.9160  36.6918

          k = 0.7000-0.3000 0.7000 (  1143 PWs)   bands (ev):

   -85.1048 -45.7501 -45.6319 -45.6061  13.7508  14.8690  15.6210  16.2833
    17.6281  19.8597  25.2057  34.1083  37.1090

          k = 0.6000-0.2000 0.6000 (  1151 PWs)   bands (ev):

   -85.1042 -45.7509 -45.6436 -45.5998  13.8829  15.0153  15.6176  16.2124
    17.4070  20.6047  24.2893  32.8660  38.4777

          k = 0.5000-0.1000 0.5000 (  1147 PWs)   bands (ev):

   -85.1088 -45.7267 -45.6407 -45.5884  13.4947  15.1315  15.3421  16.2501
    16.9627  18.9807  27.7999  32.3340  40.6693

          k = 0.4000 0.0000 0.4000 (  1151 PWs)   bands (ev):

   -85.1170 -45.6922 -45.6193 -45.5764  12.2361  15.0322  15.6777  16.3776
    16.4900  17.9182  32.0023  32.8533  42.9119

          k = 0.0000 0.6000 0.0000 (  1146 PWs)   bands (ev):

   -85.1132 -45.6962 -45.6109 -45.6109  12.4193  14.4740  16.3272  16.9144
    16.9144  17.3251  35.1192  35.4360  35.4360

          k =-0.1000 0.7000-0.1000 (  1149 PWs)   bands (ev):

   -85.1064 -45.7268 -45.6273 -45.6203  13.1736  14.2921  16.3030  17.0042
    17.5538  18.0415  31.6601  32.7300  34.5463

          k = 0.8000-0.2000 0.8000 (  1146 PWs)   bands (ev):

   -85.1014 -45.7411 -45.6533 -45.6220  13.7559  14.3161  16.0075  16.8806
    17.6644  20.3029  27.4885  30.6218  34.6971

          k = 0.7000-0.1000 0.7000 (  1140 PWs)   bands (ev):

   -85.1000 -45.7303 -45.6826 -45.6150  14.2042  14.4585  15.6395  16.7290
    17.4659  22.9274  24.2967  29.2109  35.8946

          k = 0.6000-0.0000 0.6000 (  1145 PWs)   bands (ev):

   -85.1028 -45.7181 -45.6847 -45.6021  14.2800  14.8100  15.2054  16.5505
    17.1268  20.8736  26.7990  29.0130  37.9672

          k = 0.0000 0.8000 0.0000 (  1154 PWs)   bands (ev):

   -85.1018 -45.7485 -45.6318 -45.6318  13.2291  14.0328  17.5118  17.5124
    17.5124  18.1619  29.9323  33.2542  33.2542

          k = 0.9000-0.1000 0.9000 (  1138 PWs)   bands (ev):

   -85.0985 -45.7576 -45.6463 -45.6348  13.4114  13.9935  17.0938  17.4077
    17.7116  20.2659  28.0087  30.4802  33.0496

          k = 0.8000 0.0000 0.8000 (  1144 PWs)   bands (ev):

   -85.0978 -45.7439 -45.6728 -45.6284  13.7735  14.1759  16.3409  17.1799
    17.6024  22.5490  26.5965  27.6213  33.9915

          k = 0.0000-1.0000 0.0000 (  1162 PWs)   bands (ev):

   -85.0974 -45.7680 -45.6401 -45.6401  13.2699  13.8691  17.5839  17.7735
    17.7735  20.0718  27.0454  32.4535  32.4535

          k =-0.2000 0.4000 0.0000 (  1150 PWs)   bands (ev):

   -85.1245 -45.6546 -45.5945 -45.5758  11.0262  15.0669  15.9260  16.3161
    16.5441  17.2630  35.0966  35.7680  41.7048

          k =-0.3000 0.5000-0.1000 (  1150 PWs)   bands (ev):

   -85.1152 -45.7033 -45.6137 -45.5855  12.4579  14.9398  15.6284  16.3240
    16.9207  17.8716  30.4960  34.8298  39.3723

          k = 0.6000-0.4000 0.8000 (  1149 PWs)   bands (ev):

   -85.1077 -45.7441 -45.6249 -45.5959  13.5017  15.1307  15.4916  16.1846
    17.3764  19.0215  26.2283  34.8312  37.3624

          k = 0.5000-0.3000 0.7000 (  1142 PWs)   bands (ev):

   -85.1048 -45.7599 -45.6282 -45.6004  13.7319  15.1172  15.7635  16.1088
    17.5307  20.3359  23.7890  35.2177  36.2798

          k =-0.2000 0.6000 0.0000 (  1144 PWs)   bands (ev):

   -85.1117 -45.7056 -45.6216 -45.6037  12.7871  14.5762  15.7536  16.9141
    16.9754  17.8758  32.6857  33.2326  35.8461

          k = 0.7000-0.3000 0.9000 (  1151 PWs)   bands (ev):

   -85.1049 -45.7308 -45.6439 -45.6131  13.7193  14.5562  15.5028  16.7718
    17.4248  19.3490  28.4449  32.7037  33.6592

          k = 0.6000-0.2000 0.8000 (  1145 PWs)   bands (ev):

   -85.1013 -45.7388 -45.6627 -45.6156  14.1975  14.6033  15.4342  16.5828
    17.5420  21.7104  24.7419  31.6434  33.6208

          k = 0.5000-0.1000 0.7000 (  1152 PWs)   bands (ev):

   -85.1024 -45.7306 -45.6694 -45.6086  14.2691  14.7531  15.2157  16.5398
    17.3356  21.0445  25.8076  30.6222  34.9827

          k = 0.4000 0.0000 0.6000 (  1149 PWs)   bands (ev):

   -85.1077 -45.7185 -45.6499 -45.5962  13.6499  14.8572  15.2234  16.6084
    16.9481  19.0864  29.4878  30.7277  36.9702

          k = 0.8000-0.2000 1.0000 (  1156 PWs)   bands (ev):

   -85.1014 -45.7425 -45.6438 -45.6299  13.5278  14.1894  16.3255  17.3299
    17.5102  19.5832  30.1821  30.9279  31.7352

          k = 0.7000-0.1000 0.9000 (  1149 PWs)   bands (ev):

   -85.0985 -45.7385 -45.6694 -45.6321  13.8856  14.3107  15.9542  17.0591
    17.6639  22.1024  27.1883  28.5989  31.8280

          k = 0.6000 0.0000 0.8000 (  1149 PWs)   bands (ev):

   -85.0989 -45.7130 -45.7011 -45.6231  14.3004  14.5076  15.4372  16.7976
    17.5169  23.7601  24.8356  28.0935  33.0869

          k =-0.2000-1.0000 0.0000 (  1144 PWs)   bands (ev):

   -85.0974 -45.7557 -45.6521 -45.6403  13.5354  14.0448  16.7705  17.3557
    17.7739  21.5085  27.1693  30.2600  31.0327

          k = 0.6000-0.2000 1.0000 (  1151 PWs)   bands (ev):

   -85.1002 -45.7259 -45.6747 -45.6253  14.1780  14.6632  15.2117  16.8704
    17.5066  21.4903  27.7138  29.3852  31.3954

          k = 0.5000-0.1000 0.9000 (  1148 PWs)   bands (ev):

   -85.0985 -45.7158 -45.6930 -45.6318  14.3006  14.7988  15.0902  16.7456
    17.6493  24.0656  24.8916  29.4611  30.1463

          k =-0.4000-1.0000 0.0000 (  1154 PWs)   bands (ev):

   -85.0974 -45.7238 -45.6842 -45.6413  14.0739  14.5830  15.5031  16.8714
    17.7745  24.0566  27.0416  27.5862  29.1711

     the Fermi energy is    17.6165 ev

!    total energy              =    -339.40111310 Ry
     Harris-Foulkes estimate   =    -339.40111310 Ry
     estimated scf accuracy    <          9.0E-10 Ry

     The total energy is the sum of the following terms:

     one-electron contribution =    -186.66092893 Ry
     hartree contribution      =     104.57260752 Ry
     xc contribution           =     -33.92787501 Ry
     ewald contribution        =    -223.38275369 Ry
     smearing contrib. (-TS)   =      -0.00216299 Ry

     convergence has been achieved in   7 iterations

     Forces acting on atoms (cartesian axes, Ry/au):

     atom    1 type  1   force =     0.00000000    0.00000000    0.00000000

     Total force =     0.000000     Total SCF correction =     0.000000


     Computing stress (Cartesian axis) and pressure

          total   stress  (Ry/bohr**3)                   (kbar)     P= -114.30
  -0.00077698  -0.00000000   0.00000000       -114.30     -0.00      0.00
  -0.00000000  -0.00077698   0.00000000         -0.00   -114.30      0.00
   0.00000000  -0.00000000  -0.00077698          0.00     -0.00   -114.30


     Writing output data file Ni.save/

     init_run     :      0.40s CPU      0.42s WALL (       1 calls)
     electrons    :      5.68s CPU      5.93s WALL (       1 calls)
     forces       :      0.07s CPU      0.07s WALL (       1 calls)
     stress       :      0.22s CPU      0.22s WALL (       1 calls)

     Called by init_run:
     wfcinit      :      0.20s CPU      0.22s WALL (       1 calls)
     potinit      :      0.01s CPU      0.01s WALL (       1 calls)
     hinit0       :      0.17s CPU      0.18s WALL (       1 calls)

     Called by electrons:
     c_bands      :      4.72s CPU      4.92s WALL (       8 calls)
     sum_band     :      0.87s CPU      0.91s WALL (       8 calls)
     v_of_rho     :      0.04s CPU      0.04s WALL (       8 calls)
     newd         :      0.07s CPU      0.07s WALL (       8 calls)
     mix_rho      :      0.00s CPU      0.00s WALL (       8 calls)

     Called by c_bands:
     init_us_2    :      0.13s CPU      0.13s WALL (     893 calls)
     cegterg      :      4.54s CPU      4.74s WALL (     376 calls)

     Called by sum_band:
     sum_band:bec :      0.00s CPU      0.00s WALL (     376 calls)
     addusdens    :      0.07s CPU      0.07s WALL (       8 calls)

     Called by *egterg:
     h_psi        :      3.47s CPU      3.64s WALL (    1279 calls)
     s_psi        :      0.11s CPU      0.12s WALL (    1279 calls)
     g_psi        :      0.01s CPU      0.01s WALL (     856 calls)
     cdiaghg      :      0.45s CPU      0.46s WALL (    1185 calls)

     Called by h_psi:
     h_psi:pot    :      3.45s CPU      3.62s WALL (    1279 calls)
     h_psi:calbec :      0.15s CPU      0.16s WALL (    1279 calls)
     vloc_psi     :      3.18s CPU      3.33s WALL (    1279 calls)
     add_vuspsi   :      0.11s CPU      0.12s WALL (    1279 calls)

     General routines
     calbec       :      0.26s CPU      0.27s WALL (    1890 calls)
     fft          :      0.03s CPU      0.03s WALL (     115 calls)
     ffts         :      0.00s CPU      0.00s WALL (       8 calls)
     fftw         :      3.58s CPU      3.76s WALL (   29812 calls)

     Parallel routines
     fft_scatt_xy :      0.31s CPU      0.32s WALL (   29935 calls)
     fft_scatt_yz :      0.91s CPU      0.96s WALL (   29935 calls)

     PWSCF        :     7.35s CPU         7.68s WALL


   This run was terminated on:  23: 3:55  26Mar2024            

=------------------------------------------------------------------------------=
   JOB DONE.
=------------------------------------------------------------------------------=
