
     Program PWSCF v.6.3MaX starts on 26Mar2024 at 23: 4:50 

     This program is part of the open-source Quantum ESPRESSO suite
     for quantum simulation of materials; please cite
         "P. Giannozzi et al., J. Phys.:Condens. Matter 21 395502 (2009);
         "P. Giannozzi et al., J. Phys.:Condens. Matter 29 465901 (2017);
          URL http://www.quantum-espresso.org", 
     in publications or presentations arising from this work. More details at
     http://www.quantum-espresso.org/quote

     Parallel version (MPI), running on     5 processors

     MPI processes distributed on     1 nodes
     R & G space division:  proc/nbgrp/npool/nimage =       5
     Waiting for input...
     Reading input from standard input

     Current dimensions of program PWSCF are:
     Max number of different atomic species (ntypx) = 10
     Max number of k-points (npk) =  40000
     Max angular momentum in pseudopotentials (lmaxx) =  3

     Subspace diagonalization in iterative solution of the eigenvalue problem:
     a serial algorithm will be used


     Parallelization info
     --------------------
     sticks:   dense  smooth     PW     G-vecs:    dense   smooth      PW
     Min         116     116     30                 1850     1850     227
     Max         117     117     31                 1853     1853     228
     Sum         583     583    151                 9257     9257    1139



     bravais-lattice index     =            2
     lattice parameter (alat)  =       6.6500  a.u.
     unit-cell volume          =      73.5199 (a.u.)^3
     number of atoms/cell      =            1
     number of atomic types    =            1
     number of electrons       =        18.00
     number of Kohn-Sham states=           13
     kinetic-energy cutoff     =      95.0000  Ry
     charge density cutoff     =     380.0000  Ry
     convergence threshold     =      1.0E-08
     mixing beta               =       0.7000
     number of iterations used =            8  plain     mixing
     Exchange-correlation      = PBESOL ( 1  4 10  8 0 0)

     celldm(1)=   6.650000  celldm(2)=   0.000000  celldm(3)=   0.000000
     celldm(4)=   0.000000  celldm(5)=   0.000000  celldm(6)=   0.000000

     crystal axes: (cart. coord. in units of alat)
               a(1) = (  -0.500000   0.000000   0.500000 )  
               a(2) = (   0.000000   0.500000   0.500000 )  
               a(3) = (  -0.500000   0.500000   0.000000 )  

     reciprocal axes: (cart. coord. in units 2 pi/alat)
               b(1) = ( -1.000000 -1.000000  1.000000 )  
               b(2) = (  1.000000  1.000000  1.000000 )  
               b(3) = ( -1.000000  1.000000 -1.000000 )  


     PseudoPot. # 1 for Ni read from file:
     /home/lorenzo/pseudos/Ni/Ni.pbesol-spn-rrkjus_psl.1.0.0.UPF
     MD5 check sum: 6fc0a587bf949a08f2faed986b854013
     Pseudo is Ultrasoft + core correction, Zval = 18.0
     Generated using "atomic" code by A. Dal Corso v.6.3
     Using radial grid of 1195 points,  6 beta functions with: 
                l(1) =   0
                l(2) =   0
                l(3) =   1
                l(4) =   1
                l(5) =   2
                l(6) =   2
     Q(r) pseudized with 0 coefficients 


     atomic species   valence    mass     pseudopotential
        Ni            18.00    58.69340     Ni( 1.00)

     48 Sym. Ops., with inversion, found



   Cartesian axes

     site n.     atom                  positions (alat units)
         1           Ni  tau(   1) = (   0.0000000   0.0000000   0.0000000  )

     number of k points=     1  gaussian smearing, width (Ry)=  0.0100
                       cart. coord. in units 2pi/alat
        k(    1) = (   0.0000000   0.0000000   0.0000000), wk =   2.0000000

     Dense  grid:     9257 G-vectors     FFT dimensions: (  30,  30,  30)

     Estimated max dynamical RAM per process >       8.58 MB

     Estimated total dynamical RAM >      42.91 MB

     Check: negative/imaginary core charge=   -0.000003    0.000000

     Initial potential from superposition of free atoms

     starting charge   17.99977, renormalised to   18.00000
     Starting wfcs are   10 randomized atomic wfcs +    3 random wfcs

     total cpu time spent up to now is        1.1 secs

     Self-consistent Calculation

     iteration #  1     ecut=    95.00 Ry     beta= 0.70
     Davidson diagonalization with overlap
     ethr =  1.00E-02,  avg # of iterations =  3.0

     Threshold (ethr) on eigenvalues was too large:
     Diagonalizing with lowered threshold

     Davidson diagonalization with overlap
     ethr =  3.54E-04,  avg # of iterations =  7.0

     total cpu time spent up to now is        1.2 secs

     total energy              =    -340.04055997 Ry
     Harris-Foulkes estimate   =    -340.06593078 Ry
     estimated scf accuracy    <       0.05940152 Ry

     iteration #  2     ecut=    95.00 Ry     beta= 0.70
     Davidson diagonalization with overlap
     ethr =  3.30E-04,  avg # of iterations =  2.0

     total cpu time spent up to now is        1.3 secs

     total energy              =    -340.04400628 Ry
     Harris-Foulkes estimate   =    -340.05772670 Ry
     estimated scf accuracy    <       0.02391034 Ry

     iteration #  3     ecut=    95.00 Ry     beta= 0.70
     Davidson diagonalization with overlap
     ethr =  1.33E-04,  avg # of iterations =  2.0

     total cpu time spent up to now is        1.3 secs

     total energy              =    -340.05021291 Ry
     Harris-Foulkes estimate   =    -340.05156063 Ry
     estimated scf accuracy    <       0.00313287 Ry

     iteration #  4     ecut=    95.00 Ry     beta= 0.70
     Davidson diagonalization with overlap
     ethr =  1.74E-05,  avg # of iterations =  2.0

     total cpu time spent up to now is        1.3 secs

     total energy              =    -340.05069610 Ry
     Harris-Foulkes estimate   =    -340.05069585 Ry
     estimated scf accuracy    <       0.00000052 Ry

     iteration #  5     ecut=    95.00 Ry     beta= 0.70
     Davidson diagonalization with overlap
     ethr =  2.87E-09,  avg # of iterations =  3.0

     total cpu time spent up to now is        1.4 secs

     total energy              =    -340.05070343 Ry
     Harris-Foulkes estimate   =    -340.05070349 Ry
     estimated scf accuracy    <       0.00000019 Ry

     iteration #  6     ecut=    95.00 Ry     beta= 0.70
     Davidson diagonalization with overlap
     ethr =  1.05E-09,  avg # of iterations =  2.0

     total cpu time spent up to now is        1.4 secs

     total energy              =    -340.05070345 Ry
     Harris-Foulkes estimate   =    -340.05070345 Ry
     estimated scf accuracy    <       0.00000001 Ry

     iteration #  7     ecut=    95.00 Ry     beta= 0.70
     Davidson diagonalization with overlap
     ethr =  6.61E-11,  avg # of iterations =  2.0

     total cpu time spent up to now is        1.5 secs

     End of self-consistent calculation

          k = 0.0000 0.0000 0.0000 (  1139 PWs)   bands (ev):

   -86.3925 -46.7552 -46.7552 -46.7552   8.5775  14.8899  14.8899  14.8899
    15.6851  15.6851  41.5724  45.1125  45.1125

     the Fermi energy is    15.6851 ev

!    total energy              =    -340.05070345 Ry
     Harris-Foulkes estimate   =    -340.05070345 Ry
     estimated scf accuracy    <          4.0E-10 Ry

     The total energy is the sum of the following terms:

     one-electron contribution =    -186.11447324 Ry
     hartree contribution      =     103.25284741 Ry
     xc contribution           =     -33.79504015 Ry
     ewald contribution        =    -223.38275369 Ry
     smearing contrib. (-TS)   =      -0.01128379 Ry

     convergence has been achieved in   7 iterations

     Forces acting on atoms (cartesian axes, Ry/au):

     atom    1 type  1   force =     0.00000000    0.00000000    0.00000000

     Total force =     0.000000     Total SCF correction =     0.000000


     Computing stress (Cartesian axis) and pressure

          total   stress  (Ry/bohr**3)                   (kbar)     P= -564.72
  -0.00383887  -0.00000000  -0.00000000       -564.72     -0.00     -0.00
  -0.00000000  -0.00383887   0.00000000         -0.00   -564.72      0.00
  -0.00000000   0.00000000  -0.00383887         -0.00      0.00   -564.72


     Writing output data file Ni.save/

     init_run     :      0.25s CPU      0.26s WALL (       1 calls)
     electrons    :      0.33s CPU      0.35s WALL (       1 calls)
     forces       :      0.03s CPU      0.03s WALL (       1 calls)
     stress       :      0.09s CPU      0.09s WALL (       1 calls)

     Called by init_run:
     wfcinit      :      0.01s CPU      0.01s WALL (       1 calls)
     potinit      :      0.01s CPU      0.01s WALL (       1 calls)
     hinit0       :      0.22s CPU      0.22s WALL (       1 calls)

     Called by electrons:
     c_bands      :      0.11s CPU      0.12s WALL (       8 calls)
     sum_band     :      0.11s CPU      0.11s WALL (       8 calls)
     v_of_rho     :      0.05s CPU      0.05s WALL (       8 calls)
     newd         :      0.07s CPU      0.07s WALL (       8 calls)
     mix_rho      :      0.00s CPU      0.00s WALL (       8 calls)

     Called by c_bands:
     init_us_2    :      0.00s CPU      0.00s WALL (      17 calls)
     cegterg      :      0.11s CPU      0.12s WALL (       8 calls)

     Called by sum_band:
     sum_band:bec :      0.00s CPU      0.00s WALL (       8 calls)
     addusdens    :      0.07s CPU      0.07s WALL (       8 calls)

     Called by *egterg:
     h_psi        :      0.09s CPU      0.09s WALL (      32 calls)
     s_psi        :      0.00s CPU      0.00s WALL (      32 calls)
     g_psi        :      0.00s CPU      0.00s WALL (      23 calls)
     cdiaghg      :      0.01s CPU      0.01s WALL (      30 calls)

     Called by h_psi:
     h_psi:pot    :      0.08s CPU      0.09s WALL (      32 calls)
     h_psi:calbec :      0.00s CPU      0.00s WALL (      32 calls)
     vloc_psi     :      0.08s CPU      0.08s WALL (      32 calls)
     add_vuspsi   :      0.00s CPU      0.00s WALL (      32 calls)

     General routines
     calbec       :      0.01s CPU      0.01s WALL (      45 calls)
     fft          :      0.03s CPU      0.03s WALL (     115 calls)
     ffts         :      0.00s CPU      0.00s WALL (       8 calls)
     fftw         :      0.09s CPU      0.09s WALL (     684 calls)

     Parallel routines
     fft_scatt_xy :      0.01s CPU      0.01s WALL (     807 calls)
     fft_scatt_yz :      0.04s CPU      0.05s WALL (     807 calls)

     PWSCF        :     1.58s CPU         1.63s WALL


   This run was terminated on:  23: 4:52  26Mar2024            

=------------------------------------------------------------------------------=
   JOB DONE.
=------------------------------------------------------------------------------=
