
     Program PWSCF v.6.3MaX starts on 26Mar2024 at 22:28:53 

     This program is part of the open-source Quantum ESPRESSO suite
     for quantum simulation of materials; please cite
         "P. Giannozzi et al., J. Phys.:Condens. Matter 21 395502 (2009);
         "P. Giannozzi et al., J. Phys.:Condens. Matter 29 465901 (2017);
          URL http://www.quantum-espresso.org", 
     in publications or presentations arising from this work. More details at
     http://www.quantum-espresso.org/quote

     Parallel version (MPI), running on     5 processors

     MPI processes distributed on     1 nodes
     R & G space division:  proc/nbgrp/npool/nimage =       5
     Waiting for input...
     Reading input from standard input

     Current dimensions of program PWSCF are:
     Max number of different atomic species (ntypx) = 10
     Max number of k-points (npk) =  40000
     Max angular momentum in pseudopotentials (lmaxx) =  3

     Subspace diagonalization in iterative solution of the eigenvalue problem:
     a serial algorithm will be used


     Parallelization info
     --------------------
     sticks:   dense  smooth     PW     G-vecs:    dense   smooth      PW
     Min          30      30     11                  248      248      56
     Max          31      31     11                  251      251      58
     Sum         151     151     55                 1243     1243     283



     bravais-lattice index     =            2
     lattice parameter (alat)  =       6.6500  a.u.
     unit-cell volume          =      73.5199 (a.u.)^3
     number of atoms/cell      =            1
     number of atomic types    =            1
     number of electrons       =        18.00
     number of Kohn-Sham states=           13
     kinetic-energy cutoff     =      25.0000  Ry
     charge density cutoff     =     100.0000  Ry
     convergence threshold     =      1.0E-08
     mixing beta               =       0.7000
     number of iterations used =            8  plain     mixing
     Exchange-correlation      = PBE ( 1  4  3  4 0 0)

     celldm(1)=   6.650000  celldm(2)=   0.000000  celldm(3)=   0.000000
     celldm(4)=   0.000000  celldm(5)=   0.000000  celldm(6)=   0.000000

     crystal axes: (cart. coord. in units of alat)
               a(1) = (  -0.500000   0.000000   0.500000 )  
               a(2) = (   0.000000   0.500000   0.500000 )  
               a(3) = (  -0.500000   0.500000   0.000000 )  

     reciprocal axes: (cart. coord. in units 2 pi/alat)
               b(1) = ( -1.000000 -1.000000  1.000000 )  
               b(2) = (  1.000000  1.000000  1.000000 )  
               b(3) = ( -1.000000  1.000000 -1.000000 )  


     PseudoPot. # 1 for Ni read from file:
     /home/lorenzo/pseudos/Ni/Ni.pbe-spn-rrkjus_psl.1.0.0.UPF
     MD5 check sum: 8b3fc9aac6dafe35f580d41bb18c3945
     Pseudo is Ultrasoft + core correction, Zval = 18.0
     Generated using "atomic" code by A. Dal Corso v.6.3
     Using radial grid of 1195 points,  6 beta functions with: 
                l(1) =   0
                l(2) =   0
                l(3) =   1
                l(4) =   1
                l(5) =   2
                l(6) =   2
     Q(r) pseudized with 0 coefficients 


     atomic species   valence    mass     pseudopotential
        Ni            18.00    58.69340     Ni( 1.00)

     48 Sym. Ops., with inversion, found



   Cartesian axes

     site n.     atom                  positions (alat units)
         1           Ni  tau(   1) = (   0.0000000   0.0000000   0.0000000  )

     number of k points=    10  gaussian smearing, width (Ry)=  0.0100
                       cart. coord. in units 2pi/alat
        k(    1) = (   0.0000000   0.0000000   0.0000000), wk =   0.0160000
        k(    2) = (  -0.2000000   0.2000000  -0.2000000), wk =   0.1280000
        k(    3) = (  -0.4000000   0.4000000  -0.4000000), wk =   0.1280000
        k(    4) = (   0.0000000   0.4000000   0.0000000), wk =   0.0960000
        k(    5) = (  -0.2000000   0.6000000  -0.2000000), wk =   0.3840000
        k(    6) = (   0.6000000  -0.2000000   0.6000000), wk =   0.3840000
        k(    7) = (   0.4000000   0.0000000   0.4000000), wk =   0.1920000
        k(    8) = (   0.0000000   0.8000000   0.0000000), wk =   0.0960000
        k(    9) = (   0.8000000   0.0000000   0.8000000), wk =   0.1920000
        k(   10) = (   0.6000000  -0.2000000   1.0000000), wk =   0.3840000

     Dense  grid:     1243 G-vectors     FFT dimensions: (  15,  15,  15)

     Estimated max dynamical RAM per process >       1.85 MB

     Estimated total dynamical RAM >       9.24 MB

     Check: negative/imaginary core charge=   -0.000244    0.000000

     Initial potential from superposition of free atoms
     Check: negative starting charge=   -0.002907

     starting charge   17.99975, renormalised to   18.00000

     negative rho (up, down):  2.907E-03 0.000E+00
     Starting wfcs are   10 randomized atomic wfcs +    3 random wfcs

     total cpu time spent up to now is        0.8 secs

     Self-consistent Calculation

     iteration #  1     ecut=    25.00 Ry     beta= 0.70
     Davidson diagonalization with overlap
     ethr =  1.00E-02,  avg # of iterations =  4.1

     total cpu time spent up to now is        0.9 secs

     total energy              =    -324.75537593 Ry
     Harris-Foulkes estimate   =    -330.24684490 Ry
     estimated scf accuracy    <       6.84352439 Ry

     iteration #  2     ecut=    25.00 Ry     beta= 0.70
     Davidson diagonalization with overlap
     ethr =  1.00E-02,  avg # of iterations =  2.0

     total cpu time spent up to now is        0.9 secs

     total energy              =    -326.99017452 Ry
     Harris-Foulkes estimate   =    -331.46907441 Ry
     estimated scf accuracy    <       9.48087964 Ry

     iteration #  3     ecut=    25.00 Ry     beta= 0.70
     Davidson diagonalization with overlap
     ethr =  1.00E-02,  avg # of iterations =  2.0

     negative rho (up, down):  8.111E-04 0.000E+00

     total cpu time spent up to now is        1.0 secs

     total energy              =    -328.08941422 Ry
     Harris-Foulkes estimate   =    -328.17095732 Ry
     estimated scf accuracy    <       0.12727245 Ry

     iteration #  4     ecut=    25.00 Ry     beta= 0.70
     Davidson diagonalization with overlap
     ethr =  7.07E-04,  avg # of iterations =  2.0

     negative rho (up, down):  3.041E-04 0.000E+00

     total cpu time spent up to now is        1.0 secs

     total energy              =    -328.10410038 Ry
     Harris-Foulkes estimate   =    -328.16462309 Ry
     estimated scf accuracy    <       0.18396308 Ry

     iteration #  5     ecut=    25.00 Ry     beta= 0.70
     Davidson diagonalization with overlap
     ethr =  7.07E-04,  avg # of iterations =  1.6

     negative rho (up, down):  2.677E-04 0.000E+00

     total cpu time spent up to now is        1.1 secs

     total energy              =    -328.12829532 Ry
     Harris-Foulkes estimate   =    -328.12877234 Ry
     estimated scf accuracy    <       0.00235508 Ry

     iteration #  6     ecut=    25.00 Ry     beta= 0.70
     Davidson diagonalization with overlap
     ethr =  1.31E-05,  avg # of iterations =  1.0

     negative rho (up, down):  2.131E-04 0.000E+00

     total cpu time spent up to now is        1.1 secs

     total energy              =    -328.12809664 Ry
     Harris-Foulkes estimate   =    -328.12837572 Ry
     estimated scf accuracy    <       0.00080791 Ry

     iteration #  7     ecut=    25.00 Ry     beta= 0.70
     Davidson diagonalization with overlap
     ethr =  4.49E-06,  avg # of iterations =  1.1

     negative rho (up, down):  2.065E-04 0.000E+00

     total cpu time spent up to now is        1.1 secs

     total energy              =    -328.12816895 Ry
     Harris-Foulkes estimate   =    -328.12817804 Ry
     estimated scf accuracy    <       0.00003986 Ry

     iteration #  8     ecut=    25.00 Ry     beta= 0.70
     Davidson diagonalization with overlap
     ethr =  2.21E-07,  avg # of iterations =  1.3

     negative rho (up, down):  2.027E-04 0.000E+00

     total cpu time spent up to now is        1.2 secs

     total energy              =    -328.12816769 Ry
     Harris-Foulkes estimate   =    -328.12817059 Ry
     estimated scf accuracy    <       0.00001063 Ry

     iteration #  9     ecut=    25.00 Ry     beta= 0.70
     Davidson diagonalization with overlap
     ethr =  5.91E-08,  avg # of iterations =  1.1

     negative rho (up, down):  2.008E-04 0.000E+00

     total cpu time spent up to now is        1.2 secs

     total energy              =    -328.12816785 Ry
     Harris-Foulkes estimate   =    -328.12816835 Ry
     estimated scf accuracy    <       0.00000164 Ry

     iteration # 10     ecut=    25.00 Ry     beta= 0.70
     Davidson diagonalization with overlap
     ethr =  9.12E-09,  avg # of iterations =  1.1

     negative rho (up, down):  1.998E-04 0.000E+00

     total cpu time spent up to now is        1.2 secs

     total energy              =    -328.12816791 Ry
     Harris-Foulkes estimate   =    -328.12816798 Ry
     estimated scf accuracy    <       0.00000016 Ry

     iteration # 11     ecut=    25.00 Ry     beta= 0.70
     Davidson diagonalization with overlap
     ethr =  8.67E-10,  avg # of iterations =  1.8

     negative rho (up, down):  2.000E-04 0.000E+00

     total cpu time spent up to now is        1.3 secs

     End of self-consistent calculation

          k = 0.0000 0.0000 0.0000 (   169 PWs)   bands (ev):

   -98.2591 -47.9922 -47.9922 -47.9922   9.9523  13.7592  13.7592  14.9591
    14.9591  14.9591  42.6386  46.1467  46.5766

          k =-0.2000 0.2000-0.2000 (   153 PWs)   bands (ev):

   -97.8758 -44.4813 -44.4813 -43.7969  11.5948  16.9663  17.6313  17.6313
    19.7105  19.7105  35.7764  43.0784  43.9943

          k =-0.4000 0.4000-0.4000 (   153 PWs)   bands (ev):

   -97.8276 -44.7423 -44.7423 -42.8290  15.2966  17.2925  17.2925  17.6619
    19.8269  19.8269  28.6577  41.4979  43.3137

          k = 0.0000 0.4000 0.0000 (   161 PWs)   bands (ev):

   -98.0268 -46.7070 -46.7070 -44.6788  11.8368  14.3043  15.8804  16.7667
    17.6590  17.6590  38.8865  39.5270  39.5270

          k =-0.2000 0.6000-0.2000 (   154 PWs)   bands (ev):

   -97.8311 -45.0061 -44.1956 -43.4948  14.4551  16.8748  17.5130  18.8535
    18.9970  19.9111  31.0995  36.7192  37.9487

          k = 0.6000-0.2000 0.6000 (   161 PWs)   bands (ev):

   -97.9483 -47.2502 -45.1140 -44.7886  13.8799  15.7205  17.1175  17.1568
    17.9879  20.4643  24.6500  33.8578  39.5713

          k = 0.4000 0.0000 0.4000 (   154 PWs)   bands (ev):

   -97.8538 -45.3737 -45.2241 -42.5063  13.6534  16.3916  16.6738  18.2140
    19.5196  20.0434  33.7538  34.1941  44.2607

          k = 0.0000 0.8000 0.0000 (   162 PWs)   bands (ev):

   -97.9437 -46.9642 -45.2381 -45.2381  14.2672  15.9966  16.7777  16.7777
    18.4180  18.7067  29.9900  34.3051  34.3051

          k = 0.8000 0.0000 0.8000 (   156 PWs)   bands (ev):

   -97.7870 -45.2939 -44.2247 -43.5695  15.9760  16.9303  17.2874  18.0068
    20.0863  23.0083  27.8538  29.2911  35.0806

          k = 0.6000-0.2000 1.0000 (   156 PWs)   bands (ev):

   -97.8368 -45.6112 -44.1720 -43.8556  15.1199  17.0463  17.1709  18.2084
    19.2539  21.8963  29.3293  30.8994  32.8920

     the Fermi energy is    19.7501 ev

!    total energy              =    -328.12816794 Ry
     Harris-Foulkes estimate   =    -328.12816794 Ry
     estimated scf accuracy    <          2.0E-09 Ry

     The total energy is the sum of the following terms:

     one-electron contribution =    -164.06778682 Ry
     hartree contribution      =      92.42178979 Ry
     xc contribution           =     -33.09792445 Ry
     ewald contribution        =    -223.38275373 Ry
     smearing contrib. (-TS)   =      -0.00149274 Ry

     convergence has been achieved in  11 iterations

     negative rho (up, down):  2.000E-04 0.000E+00

     Forces acting on atoms (cartesian axes, Ry/au):

     atom    1 type  1   force =     0.00000000    0.00000000    0.00000000

     Total force =     0.000000     Total SCF correction =     0.000000


     Computing stress (Cartesian axis) and pressure


     negative rho (up, down):  2.000E-04 0.000E+00
          total   stress  (Ry/bohr**3)                   (kbar)     P=********
  -0.52259749   0.00000000  -0.00000000     -76876.73      0.00     -0.00
   0.00000000  -0.52259749  -0.00000000          0.00 -76876.73     -0.00
  -0.00000000  -0.00000000  -0.52259749         -0.00     -0.00 -76876.73


     Writing output data file Ni.save/

     init_run     :      0.09s CPU      0.09s WALL (       1 calls)
     electrons    :      0.40s CPU      0.46s WALL (       1 calls)
     forces       :      0.01s CPU      0.01s WALL (       1 calls)
     stress       :      0.02s CPU      0.02s WALL (       1 calls)

     Called by init_run:
     wfcinit      :      0.01s CPU      0.01s WALL (       1 calls)
     potinit      :      0.00s CPU      0.00s WALL (       1 calls)
     hinit0       :      0.08s CPU      0.08s WALL (       1 calls)

     Called by electrons:
     c_bands      :      0.32s CPU      0.37s WALL (      11 calls)
     sum_band     :      0.06s CPU      0.06s WALL (      11 calls)
     v_of_rho     :      0.01s CPU      0.01s WALL (      12 calls)
     newd         :      0.01s CPU      0.01s WALL (      12 calls)
     mix_rho      :      0.00s CPU      0.00s WALL (      11 calls)

     Called by c_bands:
     init_us_2    :      0.01s CPU      0.01s WALL (     250 calls)
     cegterg      :      0.31s CPU      0.35s WALL (     110 calls)

     Called by sum_band:
     sum_band:bec :      0.00s CPU      0.00s WALL (     110 calls)
     addusdens    :      0.01s CPU      0.01s WALL (      11 calls)

     Called by *egterg:
     h_psi        :      0.18s CPU      0.21s WALL (     311 calls)
     s_psi        :      0.01s CPU      0.01s WALL (     311 calls)
     g_psi        :      0.00s CPU      0.00s WALL (     191 calls)
     cdiaghg      :      0.09s CPU      0.10s WALL (     301 calls)

     Called by h_psi:
     h_psi:pot    :      0.18s CPU      0.21s WALL (     311 calls)
     h_psi:calbec :      0.01s CPU      0.01s WALL (     311 calls)
     vloc_psi     :      0.16s CPU      0.19s WALL (     311 calls)
     add_vuspsi   :      0.01s CPU      0.01s WALL (     311 calls)

     General routines
     calbec       :      0.02s CPU      0.02s WALL (     471 calls)
     fft          :      0.01s CPU      0.01s WALL (     158 calls)
     ffts         :      0.00s CPU      0.00s WALL (      11 calls)
     fftw         :      0.17s CPU      0.20s WALL (    8230 calls)

     Parallel routines
     fft_scatt_xy :      0.02s CPU      0.02s WALL (    8399 calls)
     fft_scatt_yz :      0.07s CPU      0.08s WALL (    8399 calls)

     PWSCF        :     1.26s CPU         1.35s WALL


   This run was terminated on:  22:28:54  26Mar2024            

=------------------------------------------------------------------------------=
   JOB DONE.
=------------------------------------------------------------------------------=
