
     Program PWSCF v.6.3MaX starts on 26Mar2024 at 22:31:30 

     This program is part of the open-source Quantum ESPRESSO suite
     for quantum simulation of materials; please cite
         "P. Giannozzi et al., J. Phys.:Condens. Matter 21 395502 (2009);
         "P. Giannozzi et al., J. Phys.:Condens. Matter 29 465901 (2017);
          URL http://www.quantum-espresso.org", 
     in publications or presentations arising from this work. More details at
     http://www.quantum-espresso.org/quote

     Parallel version (MPI), running on     5 processors

     MPI processes distributed on     1 nodes
     R & G space division:  proc/nbgrp/npool/nimage =       5
     Waiting for input...
     Reading input from standard input

     Current dimensions of program PWSCF are:
     Max number of different atomic species (ntypx) = 10
     Max number of k-points (npk) =  40000
     Max angular momentum in pseudopotentials (lmaxx) =  3

     Subspace diagonalization in iterative solution of the eigenvalue problem:
     a serial algorithm will be used


     Parallelization info
     --------------------
     sticks:   dense  smooth     PW     G-vecs:    dense   smooth      PW
     Min          37      37     12                  327      327      67
     Max          38      38     13                  329      329      70
     Sum         187     187     61                 1639     1639     339



     bravais-lattice index     =            2
     lattice parameter (alat)  =       6.6500  a.u.
     unit-cell volume          =      73.5199 (a.u.)^3
     number of atoms/cell      =            1
     number of atomic types    =            1
     number of electrons       =        18.00
     number of Kohn-Sham states=           13
     kinetic-energy cutoff     =      30.0000  Ry
     charge density cutoff     =     120.0000  Ry
     convergence threshold     =      1.0E-08
     mixing beta               =       0.7000
     number of iterations used =            8  plain     mixing
     Exchange-correlation      = PBESOL ( 1  4 10  8 0 0)

     celldm(1)=   6.650000  celldm(2)=   0.000000  celldm(3)=   0.000000
     celldm(4)=   0.000000  celldm(5)=   0.000000  celldm(6)=   0.000000

     crystal axes: (cart. coord. in units of alat)
               a(1) = (  -0.500000   0.000000   0.500000 )  
               a(2) = (   0.000000   0.500000   0.500000 )  
               a(3) = (  -0.500000   0.500000   0.000000 )  

     reciprocal axes: (cart. coord. in units 2 pi/alat)
               b(1) = ( -1.000000 -1.000000  1.000000 )  
               b(2) = (  1.000000  1.000000  1.000000 )  
               b(3) = ( -1.000000  1.000000 -1.000000 )  


     PseudoPot. # 1 for Ni read from file:
     /home/lorenzo/pseudos/Ni/Ni.pbesol-spn-rrkjus_psl.1.0.0.UPF
     MD5 check sum: 6fc0a587bf949a08f2faed986b854013
     Pseudo is Ultrasoft + core correction, Zval = 18.0
     Generated using "atomic" code by A. Dal Corso v.6.3
     Using radial grid of 1195 points,  6 beta functions with: 
                l(1) =   0
                l(2) =   0
                l(3) =   1
                l(4) =   1
                l(5) =   2
                l(6) =   2
     Q(r) pseudized with 0 coefficients 


     atomic species   valence    mass     pseudopotential
        Ni            18.00    58.69340     Ni( 1.00)

     48 Sym. Ops., with inversion, found



   Cartesian axes

     site n.     atom                  positions (alat units)
         1           Ni  tau(   1) = (   0.0000000   0.0000000   0.0000000  )

     number of k points=    35  gaussian smearing, width (Ry)=  0.0100
                       cart. coord. in units 2pi/alat
        k(    1) = (   0.0000000   0.0000000   0.0000000), wk =   0.0027435
        k(    2) = (  -0.1111111   0.1111111  -0.1111111), wk =   0.0219479
        k(    3) = (  -0.2222222   0.2222222  -0.2222222), wk =   0.0219479
        k(    4) = (  -0.3333333   0.3333333  -0.3333333), wk =   0.0219479
        k(    5) = (  -0.4444444   0.4444444  -0.4444444), wk =   0.0219479
        k(    6) = (   0.0000000   0.2222222   0.0000000), wk =   0.0164609
        k(    7) = (  -0.1111111   0.3333333  -0.1111111), wk =   0.0658436
        k(    8) = (  -0.2222222   0.4444444  -0.2222222), wk =   0.0658436
        k(    9) = (  -0.3333333   0.5555556  -0.3333333), wk =   0.0658436
        k(   10) = (   0.5555556  -0.3333333   0.5555556), wk =   0.0658436
        k(   11) = (   0.4444444  -0.2222222   0.4444444), wk =   0.0658436
        k(   12) = (   0.3333333  -0.1111111   0.3333333), wk =   0.0658436
        k(   13) = (   0.2222222  -0.0000000   0.2222222), wk =   0.0329218
        k(   14) = (   0.0000000   0.4444444   0.0000000), wk =   0.0164609
        k(   15) = (  -0.1111111   0.5555556  -0.1111111), wk =   0.0658436
        k(   16) = (  -0.2222222   0.6666667  -0.2222222), wk =   0.0658436
        k(   17) = (   0.6666667  -0.2222222   0.6666667), wk =   0.0658436
        k(   18) = (   0.5555556  -0.1111111   0.5555556), wk =   0.0658436
        k(   19) = (   0.4444444   0.0000000   0.4444444), wk =   0.0329218
        k(   20) = (   0.0000000   0.6666667   0.0000000), wk =   0.0164609
        k(   21) = (  -0.1111111   0.7777778  -0.1111111), wk =   0.0658436
        k(   22) = (   0.7777778  -0.1111111   0.7777778), wk =   0.0658436
        k(   23) = (   0.6666667  -0.0000000   0.6666667), wk =   0.0329218
        k(   24) = (   0.0000000   0.8888889   0.0000000), wk =   0.0164609
        k(   25) = (   0.8888889   0.0000000   0.8888889), wk =   0.0329218
        k(   26) = (  -0.2222222   0.4444444   0.0000000), wk =   0.0658436
        k(   27) = (  -0.3333333   0.5555556  -0.1111111), wk =   0.1316872
        k(   28) = (   0.5555556  -0.3333333   0.7777778), wk =   0.1316872
        k(   29) = (  -0.2222222   0.6666667   0.0000000), wk =   0.0658436
        k(   30) = (   0.6666667  -0.2222222   0.8888889), wk =   0.1316872
        k(   31) = (   0.5555556  -0.1111111   0.7777778), wk =   0.1316872
        k(   32) = (   0.4444444   0.0000000   0.6666667), wk =   0.0658436
        k(   33) = (   0.7777778  -0.1111111   1.0000000), wk =   0.0658436
        k(   34) = (   0.6666667  -0.0000000   0.8888889), wk =   0.0658436
        k(   35) = (   0.5555556  -0.1111111   1.0000000), wk =   0.0658436

     Dense  grid:     1639 G-vectors     FFT dimensions: (  18,  18,  18)

     Estimated max dynamical RAM per process >       2.46 MB

     Estimated total dynamical RAM >      12.32 MB

     Check: negative/imaginary core charge=   -0.000070    0.000000

     Initial potential from superposition of free atoms

     starting charge   17.99977, renormalised to   18.00000
     Starting wfcs are   10 randomized atomic wfcs +    3 random wfcs

     total cpu time spent up to now is        0.9 secs

     Self-consistent Calculation

     iteration #  1     ecut=    30.00 Ry     beta= 0.70
     Davidson diagonalization with overlap
     ethr =  1.00E-02,  avg # of iterations =  4.1

     total cpu time spent up to now is        1.3 secs

     total energy              =    -334.36699181 Ry
     Harris-Foulkes estimate   =    -335.36181529 Ry
     estimated scf accuracy    <       1.29794700 Ry

     iteration #  2     ecut=    30.00 Ry     beta= 0.70
     Davidson diagonalization with overlap
     ethr =  7.21E-03,  avg # of iterations =  2.0

     total cpu time spent up to now is        1.6 secs

     total energy              =    -334.36728813 Ry
     Harris-Foulkes estimate   =    -335.87710683 Ry
     estimated scf accuracy    <       3.93353896 Ry

     iteration #  3     ecut=    30.00 Ry     beta= 0.70
     Davidson diagonalization with overlap
     ethr =  7.21E-03,  avg # of iterations =  2.0

     total cpu time spent up to now is        1.8 secs

     total energy              =    -334.99725598 Ry
     Harris-Foulkes estimate   =    -335.00257553 Ry
     estimated scf accuracy    <       0.01268677 Ry

     iteration #  4     ecut=    30.00 Ry     beta= 0.70
     Davidson diagonalization with overlap
     ethr =  7.05E-05,  avg # of iterations =  2.1

     total cpu time spent up to now is        2.0 secs

     total energy              =    -334.99875296 Ry
     Harris-Foulkes estimate   =    -334.99880136 Ry
     estimated scf accuracy    <       0.00023560 Ry

     iteration #  5     ecut=    30.00 Ry     beta= 0.70
     Davidson diagonalization with overlap
     ethr =  1.31E-06,  avg # of iterations =  2.0

     total cpu time spent up to now is        2.2 secs

     total energy              =    -334.99877982 Ry
     Harris-Foulkes estimate   =    -334.99879906 Ry
     estimated scf accuracy    <       0.00004748 Ry

     iteration #  6     ecut=    30.00 Ry     beta= 0.70
     Davidson diagonalization with overlap
     ethr =  2.64E-07,  avg # of iterations =  1.2

     total cpu time spent up to now is        2.3 secs

     total energy              =    -334.99878664 Ry
     Harris-Foulkes estimate   =    -334.99878673 Ry
     estimated scf accuracy    <       0.00000024 Ry

     iteration #  7     ecut=    30.00 Ry     beta= 0.70
     Davidson diagonalization with overlap
     ethr =  1.33E-09,  avg # of iterations =  2.0

     total cpu time spent up to now is        2.5 secs

     total energy              =    -334.99878670 Ry
     Harris-Foulkes estimate   =    -334.99878670 Ry
     estimated scf accuracy    <       0.00000001 Ry

     iteration #  8     ecut=    30.00 Ry     beta= 0.70
     Davidson diagonalization with overlap
     ethr =  5.56E-11,  avg # of iterations =  1.5

     total cpu time spent up to now is        2.7 secs

     End of self-consistent calculation

          k = 0.0000 0.0000 0.0000 (   181 PWs)   bands (ev):

   -88.7784 -41.8724 -41.8724 -41.8724   9.4440  18.8303  18.8303  18.8303
    19.3859  19.3859  41.7843  45.7829  45.7829

          k =-0.1111 0.1111-0.1111 (   190 PWs)   bands (ev):

   -88.8090 -43.3284 -42.3792 -42.3792   9.9041  17.9023  17.9023  17.9238
    18.7937  18.7937  39.2814  43.0073  44.5558

          k =-0.2222 0.2222-0.2222 (   199 PWs)   bands (ev):

   -88.8505 -44.8491 -43.0538 -43.0538  11.2250  16.5659  17.1806  17.1806
    18.1026  18.1026  33.4870  42.1490  43.3133

          k =-0.3333 0.3333-0.3333 (   205 PWs)   bands (ev):

   -88.8793 -45.0204 -43.8774 -43.8774  13.0327  16.1013  17.0800  17.0800
    17.3177  17.3177  28.5390  41.0837  42.6193

          k =-0.4444 0.4444-0.4444 (   207 PWs)   bands (ev):

   -88.8744 -44.8315 -44.1708 -44.1708  14.4186  16.6051  16.6051  17.3135
    17.3317  17.3317  25.1059  40.3743  42.6215

          k = 0.0000 0.2222 0.0000 (   186 PWs)   bands (ev):

   -88.7857 -43.1481 -41.9043 -41.9043  10.0666  17.8073  18.5053  18.5053
    18.5271  19.6744  40.5983  42.2449  42.2449

          k =-0.1111 0.3333-0.1111 (   196 PWs)   bands (ev):

   -88.8335 -44.6024 -42.8032 -42.6922  11.1027  16.5876  17.2395  17.5450
    18.1315  18.8978  35.6650  40.2935  40.7711

          k =-0.2222 0.4444-0.2222 (   200 PWs)   bands (ev):

   -88.8496 -44.8142 -43.3901 -43.2270  12.8055  15.9816  16.9936  17.4788
    17.8524  18.4817  30.3740  39.4355  39.5483

          k =-0.3333 0.5556-0.3333 (   205 PWs)   bands (ev):

   -88.8697 -44.8052 -44.0043 -43.9961  14.3478  15.9167  16.7341  17.2609
    17.4421  18.3998  26.1586  38.2115  39.3265

          k = 0.5556-0.3333 0.5556 (   206 PWs)   bands (ev):

   -88.8679 -45.0421 -44.1206 -43.8452  14.3803  16.2746  16.7085  17.0605
    17.4785  19.3985  24.1099  37.1101  40.4313

          k = 0.4444-0.2222 0.4444 (   205 PWs)   bands (ev):

   -88.8715 -45.0001 -44.0430 -43.7367  13.9304  16.0689  16.6671  17.0587
    17.4956  18.0453  27.3993  36.6651  42.0697

          k = 0.3333-0.1111 0.3333 (   200 PWs)   bands (ev):

   -88.8530 -44.8382 -43.4364 -43.0878  12.1895  15.9643  17.0965  17.6739
    17.9563  18.0415  32.0135  36.9944  43.8840

          k = 0.2222-0.0000 0.2222 (   200 PWs)   bands (ev):

   -88.8551 -44.7242 -43.3009 -42.9287  10.6562  16.1945  17.2407  17.4212
    18.0801  18.1537  36.9591  38.3504  44.9709

          k = 0.0000 0.4444 0.0000 (   202 PWs)   bands (ev):

   -88.8696 -44.7191 -43.5971 -43.5971  11.7860  16.7826  16.7826  17.1065
    17.2823  17.8847  37.7842  37.7842  38.8984

          k =-0.1111 0.5556-0.1111 (   206 PWs)   bands (ev):

   -88.8838 -45.2421 -44.1462 -43.7055  13.0700  15.9897  16.8175  16.8753
    17.1856  17.7374  32.8083  36.5008  36.6025

          k =-0.2222 0.6667-0.2222 (   204 PWs)   bands (ev):

   -88.8641 -44.6300 -44.0513 -43.9365  14.4602  15.4979  16.6258  17.2430
    17.8329  19.4728  28.0720  34.3064  36.3107

          k = 0.6667-0.2222 0.6667 (   204 PWs)   bands (ev):

   -88.8572 -44.7004 -43.9727 -43.9101  15.0553  15.4721  16.6579  17.4807
    17.5384  21.4628  24.6310  32.6268  37.3073

          k = 0.5556-0.1111 0.5556 (   204 PWs)   bands (ev):

   -88.8611 -44.5407 -44.0727 -43.9808  14.9239  15.9056  16.2667  17.0376
    17.5666  20.3439  26.6808  31.7678  39.2683

          k = 0.4444 0.0000 0.4444 (   202 PWs)   bands (ev):

   -88.8534 -45.1880 -43.7195 -43.1098  13.6980  15.6151  16.6491  17.1954
    18.3350  18.5222  30.5896  32.3032  42.1312

          k = 0.0000 0.6667 0.0000 (   202 PWs)   bands (ev):

   -88.8598 -44.7108 -43.7763 -43.7763  13.8274  16.4986  17.1090  17.1090
    17.9120  17.9553  33.3481  34.7715  34.7715

          k =-0.1111 0.7778-0.1111 (   205 PWs)   bands (ev):

   -88.8767 -44.7126 -44.2783 -44.1975  14.4739  15.5465  16.9790  17.2159
    17.7821  19.3591  30.3973  31.4510  34.0838

          k = 0.7778-0.1111 0.7778 (   208 PWs)   bands (ev):

   -88.8865 -44.8384 -44.6625 -44.3911  14.6212  15.1574  16.3421  17.3519
    17.6114  21.9979  26.6752  29.2143  34.6375

          k = 0.6667-0.0000 0.6667 (   212 PWs)   bands (ev):

   -88.9046 -45.0036 -44.9360 -44.8002  14.7940  15.0262  15.7020  16.7343
    17.5704  22.6070  25.0698  28.7018  36.4645

          k = 0.0000 0.8889 0.0000 (   206 PWs)   bands (ev):

   -88.8760 -44.8729 -44.2930 -44.2930  14.4858  15.2280  17.4714  17.4714
    17.9684  19.6160  28.5381  33.0302  33.0302

          k = 0.8889 0.0000 0.8889 (   208 PWs)   bands (ev):

   -88.8888 -45.0075 -44.6187 -44.3905  14.1665  15.0763  17.0654  17.6539
    17.7296  21.2569  27.2877  30.2578  33.1973

          k =-0.2222 0.4444 0.0000 (   203 PWs)   bands (ev):

   -88.8712 -44.8161 -44.0810 -43.2760  12.3237  15.9349  16.7483  17.4664
    17.6062  17.8371  33.8689  35.0675  40.6794

          k =-0.3333 0.5556-0.1111 (   204 PWs)   bands (ev):

   -88.8684 -44.9970 -44.1027 -43.4995  13.9137  15.6217  16.4911  17.4252
    17.7536  18.4740  29.2623  34.1084  38.1363

          k = 0.5556-0.3333 0.7778 (   202 PWs)   bands (ev):

   -88.8478 -44.6898 -43.9662 -43.4279  15.0181  15.7565  16.8273  17.3709
    17.8560  20.3394  25.3269  34.4344  36.2743

          k =-0.2222 0.6667 0.0000 (   204 PWs)   bands (ev):

   -88.8701 -44.7096 -44.3776 -43.6649  14.1836  15.6794  16.5114  17.2643
    17.9112  18.9161  31.5257  32.3726  34.3934

          k = 0.6667-0.2222 0.8889 (   204 PWs)   bands (ev):

   -88.8646 -44.6525 -44.2726 -43.8774  14.9900  15.6082  16.4836  17.4601
    17.6251  20.9465  27.4363  31.4190  32.9090

          k = 0.5556-0.1111 0.7778 (   204 PWs)   bands (ev):

   -88.8603 -44.7858 -44.3687 -43.6326  15.1717  15.5496  16.4023  17.4738
    17.6557  22.9255  24.8139  30.2439  33.7772

          k = 0.4444 0.0000 0.6667 (   205 PWs)   bands (ev):

   -88.8719 -44.6129 -44.4199 -43.9952  14.9594  15.9821  16.0578  16.9190
    17.4408  20.3844  28.1622  30.3145  35.5691

          k = 0.7778-0.1111 1.0000 (   206 PWs)   bands (ev):

   -88.8807 -44.9764 -44.3738 -44.1721  14.4545  15.5956  16.7795  17.5944
    17.5949  21.0202  28.4412  30.1821  31.6344

          k = 0.6667-0.0000 0.8889 (   206 PWs)   bands (ev):

   -88.8774 -44.8051 -44.4957 -44.2050  14.8724  15.6526  16.3115  17.2541
    17.5108  23.5230  26.4740  28.2256  31.9143

          k = 0.5556-0.1111 1.0000 (   206 PWs)   bands (ev):

   -88.8794 -44.7769 -44.6834 -44.0741  14.9732  15.7377  15.8684  17.4021
    17.4411  23.7038  26.6316  28.6024  30.5141

     the Fermi energy is    18.0228 ev

!    total energy              =    -334.99878670 Ry
     Harris-Foulkes estimate   =    -334.99878670 Ry
     estimated scf accuracy    <          1.2E-10 Ry

     The total energy is the sum of the following terms:

     one-electron contribution =    -178.77436845 Ry
     hartree contribution      =     100.77194723 Ry
     xc contribution           =     -33.61229724 Ry
     ewald contribution        =    -223.38275371 Ry
     smearing contrib. (-TS)   =      -0.00131454 Ry

     convergence has been achieved in   8 iterations

     Forces acting on atoms (cartesian axes, Ry/au):

     atom    1 type  1   force =     0.00000000    0.00000000    0.00000000

     Total force =     0.000000     Total SCF correction =     0.000000


     Computing stress (Cartesian axis) and pressure

          total   stress  (Ry/bohr**3)                   (kbar)     P=********
  -0.23958468  -0.00000000  -0.00000000     -35244.12     -0.00     -0.00
  -0.00000000  -0.23958468   0.00000000         -0.00 -35244.12      0.00
  -0.00000000   0.00000000  -0.23958468         -0.00      0.00 -35244.12


     Writing output data file Ni.save/

     init_run     :      0.18s CPU      0.19s WALL (       1 calls)
     electrons    :      1.59s CPU      1.74s WALL (       1 calls)
     forces       :      0.02s CPU      0.02s WALL (       1 calls)
     stress       :      0.04s CPU      0.04s WALL (       1 calls)

     Called by init_run:
     wfcinit      :      0.07s CPU      0.08s WALL (       1 calls)
     potinit      :      0.00s CPU      0.00s WALL (       1 calls)
     hinit0       :      0.10s CPU      0.10s WALL (       1 calls)

     Called by electrons:
     c_bands      :      1.36s CPU      1.48s WALL (       8 calls)
     sum_band     :      0.20s CPU      0.23s WALL (       8 calls)
     v_of_rho     :      0.02s CPU      0.02s WALL (       9 calls)
     newd         :      0.02s CPU      0.02s WALL (       9 calls)
     mix_rho      :      0.00s CPU      0.00s WALL (       8 calls)

     Called by c_bands:
     init_us_2    :      0.02s CPU      0.02s WALL (     665 calls)
     cegterg      :      1.32s CPU      1.44s WALL (     280 calls)

     Called by sum_band:
     sum_band:bec :      0.00s CPU      0.00s WALL (     280 calls)
     addusdens    :      0.01s CPU      0.01s WALL (       8 calls)

     Called by *egterg:
     h_psi        :      0.88s CPU      0.97s WALL (     905 calls)
     s_psi        :      0.02s CPU      0.02s WALL (     905 calls)
     g_psi        :      0.00s CPU      0.00s WALL (     590 calls)
     cdiaghg      :      0.30s CPU      0.33s WALL (     870 calls)

     Called by h_psi:
     h_psi:pot    :      0.88s CPU      0.96s WALL (     905 calls)
     h_psi:calbec :      0.04s CPU      0.05s WALL (     905 calls)
     vloc_psi     :      0.81s CPU      0.89s WALL (     905 calls)
     add_vuspsi   :      0.02s CPU      0.02s WALL (     905 calls)

     General routines
     calbec       :      0.06s CPU      0.07s WALL (    1360 calls)
     fft          :      0.01s CPU      0.01s WALL (     125 calls)
     ffts         :      0.00s CPU      0.00s WALL (       8 calls)
     fftw         :      0.89s CPU      0.98s WALL (   21934 calls)

     Parallel routines
     fft_scatt_xy :      0.08s CPU      0.08s WALL (   22067 calls)
     fft_scatt_yz :      0.36s CPU      0.39s WALL (   22067 calls)

     PWSCF        :     2.58s CPU         2.79s WALL


   This run was terminated on:  22:31:33  26Mar2024            

=------------------------------------------------------------------------------=
   JOB DONE.
=------------------------------------------------------------------------------=
