
     Program PWSCF v.6.3MaX starts on 26Mar2024 at 22:20:22 

     This program is part of the open-source Quantum ESPRESSO suite
     for quantum simulation of materials; please cite
         "P. Giannozzi et al., J. Phys.:Condens. Matter 21 395502 (2009);
         "P. Giannozzi et al., J. Phys.:Condens. Matter 29 465901 (2017);
          URL http://www.quantum-espresso.org", 
     in publications or presentations arising from this work. More details at
     http://www.quantum-espresso.org/quote

     Parallel version (MPI), running on     5 processors

     MPI processes distributed on     1 nodes
     R & G space division:  proc/nbgrp/npool/nimage =       5
     Waiting for input...
     Reading input from standard input

     Current dimensions of program PWSCF are:
     Max number of different atomic species (ntypx) = 10
     Max number of k-points (npk) =  40000
     Max angular momentum in pseudopotentials (lmaxx) =  3
               file Ni.pbesol-spn-kjpaw_psl.1.0.0.UPF: wavefunction(s)  3P 3D renormalized

     Subspace diagonalization in iterative solution of the eigenvalue problem:
     a serial algorithm will be used


     Parallelization info
     --------------------
     sticks:   dense  smooth     PW     G-vecs:    dense   smooth      PW
     Min         119     119     39                 1967     1967     351
     Max         119     119     40                 1969     1969     352
     Sum         595     595    199                 9841     9841    1759



     bravais-lattice index     =            2
     lattice parameter (alat)  =       6.6500  a.u.
     unit-cell volume          =      73.5199 (a.u.)^3
     number of atoms/cell      =            1
     number of atomic types    =            1
     number of electrons       =        18.00
     number of Kohn-Sham states=           13
     kinetic-energy cutoff     =     100.0000  Ry
     charge density cutoff     =     400.0000  Ry
     convergence threshold     =      1.0E-08
     mixing beta               =       0.7000
     number of iterations used =            8  plain     mixing
     Exchange-correlation      = SLA PW PSX PSC ( 1  4 10  8 0 0)

     celldm(1)=   6.650000  celldm(2)=   0.000000  celldm(3)=   0.000000
     celldm(4)=   0.000000  celldm(5)=   0.000000  celldm(6)=   0.000000

     crystal axes: (cart. coord. in units of alat)
               a(1) = (  -0.500000   0.000000   0.500000 )  
               a(2) = (   0.000000   0.500000   0.500000 )  
               a(3) = (  -0.500000   0.500000   0.000000 )  

     reciprocal axes: (cart. coord. in units 2 pi/alat)
               b(1) = ( -1.000000 -1.000000  1.000000 )  
               b(2) = (  1.000000  1.000000  1.000000 )  
               b(3) = ( -1.000000  1.000000 -1.000000 )  


     PseudoPot. # 1 for Ni read from file:
     /home/lorenzo/pseudos/Ni/Ni.pbesol-spn-kjpaw_psl.1.0.0.UPF
     MD5 check sum: ef06ee83099c2673f0516457bd731f51
     Pseudo is Projector augmented-wave + core cor, Zval = 18.0
     Generated using "atomic" code by A. Dal Corso v.6.3
     Shape of augmentation charge: PSQ
     Using radial grid of 1195 points,  6 beta functions with: 
                l(1) =   0
                l(2) =   0
                l(3) =   1
                l(4) =   1
                l(5) =   2
                l(6) =   2
     Q(r) pseudized with 0 coefficients 


     atomic species   valence    mass     pseudopotential
        Ni            18.00    58.69340     Ni( 1.00)

     48 Sym. Ops., with inversion, found



   Cartesian axes

     site n.     atom                  positions (alat units)
         1           Ni  tau(   1) = (   0.0000000   0.0000000   0.0000000  )

     number of k points=    20  gaussian smearing, width (Ry)=  0.0100
                       cart. coord. in units 2pi/alat
        k(    1) = (   0.0000000   0.0000000   0.0000000), wk =   0.0058309
        k(    2) = (  -0.1428571   0.1428571  -0.1428571), wk =   0.0466472
        k(    3) = (  -0.2857143   0.2857143  -0.2857143), wk =   0.0466472
        k(    4) = (  -0.4285714   0.4285714  -0.4285714), wk =   0.0466472
        k(    5) = (   0.0000000   0.2857143   0.0000000), wk =   0.0349854
        k(    6) = (  -0.1428571   0.4285714  -0.1428571), wk =   0.1399417
        k(    7) = (  -0.2857143   0.5714286  -0.2857143), wk =   0.1399417
        k(    8) = (   0.5714286  -0.2857143   0.5714286), wk =   0.1399417
        k(    9) = (   0.4285714  -0.1428571   0.4285714), wk =   0.1399417
        k(   10) = (   0.2857143  -0.0000000   0.2857143), wk =   0.0699708
        k(   11) = (   0.0000000   0.5714286   0.0000000), wk =   0.0349854
        k(   12) = (  -0.1428571   0.7142857  -0.1428571), wk =   0.1399417
        k(   13) = (   0.7142857  -0.1428571   0.7142857), wk =   0.1399417
        k(   14) = (   0.5714286   0.0000000   0.5714286), wk =   0.0699708
        k(   15) = (   0.0000000   0.8571429   0.0000000), wk =   0.0349854
        k(   16) = (   0.8571429  -0.0000000   0.8571429), wk =   0.0699708
        k(   17) = (  -0.2857143   0.5714286   0.0000000), wk =   0.1399417
        k(   18) = (   0.5714286  -0.2857143   0.8571429), wk =   0.2798834
        k(   19) = (   0.7142857  -0.1428571   1.0000000), wk =   0.1399417
        k(   20) = (   0.5714286   0.0000000   0.8571429), wk =   0.1399417

     Dense  grid:     9841 G-vectors     FFT dimensions: (  30,  30,  30)

     Estimated max dynamical RAM per process >      10.03 MB

     Estimated total dynamical RAM >      50.14 MB

     Check: negative/imaginary core charge=   -0.000004    0.000000

     Initial potential from superposition of free atoms

     starting charge   17.99977, renormalised to   18.00000
     Starting wfcs are   10 randomized atomic wfcs +    3 random wfcs
     Checking if some PAW data can be deallocated... 

     total cpu time spent up to now is        1.5 secs

     Self-consistent Calculation

     iteration #  1     ecut=   100.00 Ry     beta= 0.70
     Davidson diagonalization with overlap
     ethr =  1.00E-02,  avg # of iterations =  3.4

     Threshold (ethr) on eigenvalues was too large:
     Diagonalizing with lowered threshold

     Davidson diagonalization with overlap
     ethr =  1.33E-05,  avg # of iterations =  3.6

     total cpu time spent up to now is        2.4 secs

     total energy              =    -426.57828086 Ry
     Harris-Foulkes estimate   =    -426.57952116 Ry
     estimated scf accuracy    <       0.00233812 Ry

     iteration #  2     ecut=   100.00 Ry     beta= 0.70
     Davidson diagonalization with overlap
     ethr =  1.30E-05,  avg # of iterations =  2.1

     total cpu time spent up to now is        2.9 secs

     total energy              =    -426.57779759 Ry
     Harris-Foulkes estimate   =    -426.57974970 Ry
     estimated scf accuracy    <       0.00461656 Ry

     iteration #  3     ecut=   100.00 Ry     beta= 0.70
     Davidson diagonalization with overlap
     ethr =  1.30E-05,  avg # of iterations =  2.1

     total cpu time spent up to now is        3.3 secs

     total energy              =    -426.57880847 Ry
     Harris-Foulkes estimate   =    -426.57894740 Ry
     estimated scf accuracy    <       0.00041160 Ry

     iteration #  4     ecut=   100.00 Ry     beta= 0.70
     Davidson diagonalization with overlap
     ethr =  2.29E-06,  avg # of iterations =  1.6

     total cpu time spent up to now is        3.7 secs

     total energy              =    -426.57886956 Ry
     Harris-Foulkes estimate   =    -426.57886940 Ry
     estimated scf accuracy    <       0.00000026 Ry

     iteration #  5     ecut=   100.00 Ry     beta= 0.70
     Davidson diagonalization with overlap
     ethr =  1.43E-09,  avg # of iterations =  3.7

     total cpu time spent up to now is        4.2 secs

     total energy              =    -426.57887123 Ry
     Harris-Foulkes estimate   =    -426.57887131 Ry
     estimated scf accuracy    <       0.00000021 Ry

     iteration #  6     ecut=   100.00 Ry     beta= 0.70
     Davidson diagonalization with overlap
     ethr =  1.18E-09,  avg # of iterations =  1.0

     total cpu time spent up to now is        4.6 secs

     total energy              =    -426.57887123 Ry
     Harris-Foulkes estimate   =    -426.57887124 Ry
     estimated scf accuracy    <       0.00000004 Ry

     iteration #  7     ecut=   100.00 Ry     beta= 0.70
     Davidson diagonalization with overlap
     ethr =  2.06E-10,  avg # of iterations =  1.5

     total cpu time spent up to now is        4.9 secs

     End of self-consistent calculation

          k = 0.0000 0.0000 0.0000 (  1243 PWs)   bands (ev):

   -85.1497 -45.5604 -45.5604 -45.5604   8.6027  15.7250  15.7250  15.7250
    16.8536  16.8536  41.2779  45.1992  45.1992

          k =-0.1429 0.1429-0.1429 (  1257 PWs)   bands (ev):

   -85.1432 -45.6029 -45.5665 -45.5665   9.3878  15.5278  15.8750  15.8750
    16.8069  16.8069  37.5411  42.2003  43.9259

          k =-0.2857 0.2857-0.2857 (  1251 PWs)   bands (ev):

   -85.1286 -45.6976 -45.5801 -45.5801  11.4287  15.3539  15.9008  15.9008
    17.0593  17.0593  30.4341  41.0465  42.7888

          k =-0.4286 0.4286-0.4286 (  1239 PWs)   bands (ev):

   -85.1169 -45.7730 -45.5911 -45.5911  12.9692  15.7178  15.7178  16.6776
    17.5166  17.5166  24.7257  39.9463  42.3581

          k = 0.0000 0.2857 0.0000 (  1251 PWs)   bands (ev):

   -85.1410 -45.6014 -45.5762 -45.5762   9.6444  15.3489  16.0248  16.0248
    16.5205  16.9881  39.7423  40.6306  40.6306

          k =-0.1429 0.4286-0.1429 (  1239 PWs)   bands (ev):

   -85.1292 -45.6713 -45.5921 -45.5895  11.2769  15.0135  15.9200  16.2212
    16.8295  17.2136  33.2243  38.6723  39.3488

          k =-0.2857 0.5714-0.2857 (  1242 PWs)   bands (ev):

   -85.1165 -45.7468 -45.6091 -45.6023  13.1537  15.1634  15.6225  16.0829
    17.5774  18.2382  26.7427  37.3279  38.2592

          k = 0.5714-0.2857 0.5714 (  1228 PWs)   bands (ev):

   -85.1126 -45.7687 -45.6228 -45.5989  13.5351  15.3152  15.9449  15.9718
    17.4905  19.6776  23.8927  35.5304  39.6533

          k = 0.4286-0.1429 0.4286 (  1247 PWs)   bands (ev):

   -85.1204 -45.7230 -45.6183 -45.5848  12.6939  15.1844  15.6257  16.0917
    16.8990  18.0873  28.7736  34.9777  42.0834

          k = 0.2857-0.0000 0.2857 (  1249 PWs)   bands (ev):

   -85.1340 -45.6488 -45.5936 -45.5703  10.6150  15.2384  15.9289  16.1470
    16.5077  17.2014  35.3300  36.0990  45.2848

          k = 0.0000 0.5714 0.0000 (  1267 PWs)   bands (ev):

   -85.1217 -45.6917 -45.6118 -45.6118  12.1833  14.5506  16.2433  16.8198
    16.8198  17.2963  35.8349  35.8349  35.8815

          k =-0.1429 0.7143-0.1429 (  1247 PWs)   bands (ev):

   -85.1117 -45.7355 -45.6374 -45.6241  13.3752  14.3308  16.0756  16.8905
    17.6158  18.5929  30.0740  32.4874  34.7532

          k = 0.7143-0.1429 0.7143 (  1245 PWs)   bands (ev):

   -85.1069 -45.7411 -45.6764 -45.6201  14.1182  14.4695  15.6812  16.6933
    17.5390  22.2255  24.6369  29.9846  35.7795

          k = 0.5714 0.0000 0.5714 (  1226 PWs)   bands (ev):

   -85.1107 -45.7240 -45.6793 -45.6025  14.1471  14.9527  15.1236  16.4933
    17.0395  20.2555  27.4868  29.4062  38.6760

          k = 0.0000 0.8571 0.0000 (  1246 PWs)   bands (ev):

   -85.1062 -45.7620 -45.6401 -45.6401  13.2643  13.9520  17.5498  17.6344
    17.6344  18.9172  28.6889  32.8667  32.8667

          k = 0.8571-0.0000 0.8571 (  1244 PWs)   bands (ev):

   -85.1040 -45.7596 -45.6623 -45.6383  13.5437  14.0353  16.8240  17.3634
    17.6845  21.5517  27.1402  28.8824  33.2560

          k =-0.2857 0.5714 0.0000 (  1256 PWs)   bands (ev):

   -85.1183 -45.7114 -45.6326 -45.5995  12.9188  14.7330  15.5220  16.7654
    16.8296  18.1836  31.5758  32.3791  37.0816

          k = 0.5714-0.2857 0.8571 (  1234 PWs)   bands (ev):

   -85.1095 -45.7413 -45.6601 -45.6142  14.1037  14.7633  15.2892  16.5260
    17.4288  20.5974  25.8246  32.2136  34.1223

          k = 0.7143-0.1429 1.0000 (  1235 PWs)   bands (ev):

   -85.1057 -45.7444 -45.6638 -45.6383  13.7999  14.2922  15.9744  17.1606
    17.6319  21.1661  29.1635  29.2145  30.4907

          k = 0.5714 0.0000 0.8571 (  1233 PWs)   bands (ev):

   -85.1047 -45.7170 -45.7033 -45.6346  14.2500  14.6248  15.3291  16.7980
    17.6290  24.4150  24.8562  28.0680  31.3748

     the Fermi energy is    17.6200 ev

!    total energy              =    -426.57887123 Ry
     Harris-Foulkes estimate   =    -426.57887123 Ry
     estimated scf accuracy    <          1.3E-09 Ry

     total all-electron energy =     -3039.037216 Ry

     The total energy is the sum of the following terms:

     one-electron contribution =    -184.99143060 Ry
     hartree contribution      =     104.57368621 Ry
     xc contribution           =     -33.92826991 Ry
     ewald contribution        =    -223.38275369 Ry
     one-center paw contrib.   =     -88.84743822 Ry
     smearing contrib. (-TS)   =      -0.00266503 Ry

     convergence has been achieved in   7 iterations

     Forces acting on atoms (cartesian axes, Ry/au):

     atom    1 type  1   force =     0.00000000    0.00000000    0.00000000

     Total force =     0.000000     Total SCF correction =     0.000000


     Computing stress (Cartesian axis) and pressure

          total   stress  (Ry/bohr**3)                   (kbar)     P= -108.28
  -0.00073610  -0.00000000  -0.00000000       -108.28     -0.00     -0.00
  -0.00000000  -0.00073610   0.00000000         -0.00   -108.28      0.00
  -0.00000000   0.00000000  -0.00073610         -0.00      0.00   -108.28


     Writing output data file Ni.save/

     init_run     :      0.39s CPU      0.42s WALL (       1 calls)
     electrons    :      3.24s CPU      3.39s WALL (       1 calls)
     forces       :      0.05s CPU      0.05s WALL (       1 calls)
     stress       :      0.16s CPU      0.16s WALL (       1 calls)

     Called by init_run:
     wfcinit      :      0.09s CPU      0.10s WALL (       1 calls)
     potinit      :      0.10s CPU      0.11s WALL (       1 calls)
     hinit0       :      0.18s CPU      0.18s WALL (       1 calls)

     Called by electrons:
     c_bands      :      2.05s CPU      2.13s WALL (       8 calls)
     sum_band     :      0.44s CPU      0.47s WALL (       8 calls)
     v_of_rho     :      0.04s CPU      0.04s WALL (       8 calls)
     newd         :      0.08s CPU      0.10s WALL (       8 calls)
     PAW_pot      :      0.71s CPU      0.76s WALL (       8 calls)
     mix_rho      :      0.00s CPU      0.00s WALL (       8 calls)

     Called by c_bands:
     init_us_2    :      0.06s CPU      0.06s WALL (     380 calls)
     cegterg      :      1.97s CPU      2.04s WALL (     160 calls)

     Called by sum_band:
     sum_band:bec :      0.00s CPU      0.00s WALL (     160 calls)
     addusdens    :      0.07s CPU      0.08s WALL (       8 calls)

     Called by *egterg:
     h_psi        :      1.50s CPU      1.57s WALL (     558 calls)
     s_psi        :      0.05s CPU      0.05s WALL (     558 calls)
     g_psi        :      0.00s CPU      0.00s WALL (     378 calls)
     cdiaghg      :      0.19s CPU      0.20s WALL (     518 calls)

     Called by h_psi:
     h_psi:pot    :      1.50s CPU      1.56s WALL (     558 calls)
     h_psi:calbec :      0.07s CPU      0.08s WALL (     558 calls)
     vloc_psi     :      1.37s CPU      1.42s WALL (     558 calls)
     add_vuspsi   :      0.05s CPU      0.05s WALL (     558 calls)

     General routines
     calbec       :      0.12s CPU      0.12s WALL (     818 calls)
     fft          :      0.03s CPU      0.03s WALL (     115 calls)
     ffts         :      0.00s CPU      0.00s WALL (       8 calls)
     fftw         :      1.56s CPU      1.62s WALL (   12726 calls)

     Parallel routines
     fft_scatt_xy :      0.14s CPU      0.14s WALL (   12849 calls)
     fft_scatt_yz :      0.42s CPU      0.44s WALL (   12849 calls)

     PWSCF        :     4.97s CPU         5.20s WALL


   This run was terminated on:  22:20:27  26Mar2024            

=------------------------------------------------------------------------------=
   JOB DONE.
=------------------------------------------------------------------------------=
