
     Program PWSCF v.6.3MaX starts on 26Mar2024 at 22:49:51 

     This program is part of the open-source Quantum ESPRESSO suite
     for quantum simulation of materials; please cite
         "P. Giannozzi et al., J. Phys.:Condens. Matter 21 395502 (2009);
         "P. Giannozzi et al., J. Phys.:Condens. Matter 29 465901 (2017);
          URL http://www.quantum-espresso.org", 
     in publications or presentations arising from this work. More details at
     http://www.quantum-espresso.org/quote

     Parallel version (MPI), running on     5 processors

     MPI processes distributed on     1 nodes
     R & G space division:  proc/nbgrp/npool/nimage =       5
     Waiting for input...
     Reading input from standard input

     Current dimensions of program PWSCF are:
     Max number of different atomic species (ntypx) = 10
     Max number of k-points (npk) =  40000
     Max angular momentum in pseudopotentials (lmaxx) =  3
               file Ni.pbesol-spn-kjpaw_psl.1.0.0.UPF: wavefunction(s)  3P 3D renormalized

     Subspace diagonalization in iterative solution of the eigenvalue problem:
     a serial algorithm will be used


     Parallelization info
     --------------------
     sticks:   dense  smooth     PW     G-vecs:    dense   smooth      PW
     Min          85      85     27                 1163     1163     213
     Max          87      87     28                 1164     1164     214
     Sum         433     433    139                 5817     5817    1067



     bravais-lattice index     =            2
     lattice parameter (alat)  =       6.6500  a.u.
     unit-cell volume          =      73.5199 (a.u.)^3
     number of atoms/cell      =            1
     number of atomic types    =            1
     number of electrons       =        18.00
     number of Kohn-Sham states=           13
     kinetic-energy cutoff     =      70.0000  Ry
     charge density cutoff     =     280.0000  Ry
     convergence threshold     =      1.0E-08
     mixing beta               =       0.7000
     number of iterations used =            8  plain     mixing
     Exchange-correlation      = SLA PW PSX PSC ( 1  4 10  8 0 0)

     celldm(1)=   6.650000  celldm(2)=   0.000000  celldm(3)=   0.000000
     celldm(4)=   0.000000  celldm(5)=   0.000000  celldm(6)=   0.000000

     crystal axes: (cart. coord. in units of alat)
               a(1) = (  -0.500000   0.000000   0.500000 )  
               a(2) = (   0.000000   0.500000   0.500000 )  
               a(3) = (  -0.500000   0.500000   0.000000 )  

     reciprocal axes: (cart. coord. in units 2 pi/alat)
               b(1) = ( -1.000000 -1.000000  1.000000 )  
               b(2) = (  1.000000  1.000000  1.000000 )  
               b(3) = ( -1.000000  1.000000 -1.000000 )  


     PseudoPot. # 1 for Ni read from file:
     /home/lorenzo/pseudos/Ni/Ni.pbesol-spn-kjpaw_psl.1.0.0.UPF
     MD5 check sum: ef06ee83099c2673f0516457bd731f51
     Pseudo is Projector augmented-wave + core cor, Zval = 18.0
     Generated using "atomic" code by A. Dal Corso v.6.3
     Shape of augmentation charge: PSQ
     Using radial grid of 1195 points,  6 beta functions with: 
                l(1) =   0
                l(2) =   0
                l(3) =   1
                l(4) =   1
                l(5) =   2
                l(6) =   2
     Q(r) pseudized with 0 coefficients 


     atomic species   valence    mass     pseudopotential
        Ni            18.00    58.69340     Ni( 1.00)

     48 Sym. Ops., with inversion, found



   Cartesian axes

     site n.     atom                  positions (alat units)
         1           Ni  tau(   1) = (   0.0000000   0.0000000   0.0000000  )

     number of k points=    16  gaussian smearing, width (Ry)=  0.0100
                       cart. coord. in units 2pi/alat
        k(    1) = (   0.0000000   0.0000000   0.0000000), wk =   0.0092593
        k(    2) = (  -0.1666667   0.1666667  -0.1666667), wk =   0.0740741
        k(    3) = (  -0.3333333   0.3333333  -0.3333333), wk =   0.0740741
        k(    4) = (   0.5000000  -0.5000000   0.5000000), wk =   0.0370370
        k(    5) = (   0.0000000   0.3333333   0.0000000), wk =   0.0555556
        k(    6) = (  -0.1666667   0.5000000  -0.1666667), wk =   0.2222222
        k(    7) = (   0.6666667  -0.3333333   0.6666667), wk =   0.2222222
        k(    8) = (   0.5000000  -0.1666667   0.5000000), wk =   0.2222222
        k(    9) = (   0.3333333   0.0000000   0.3333333), wk =   0.1111111
        k(   10) = (   0.0000000   0.6666667   0.0000000), wk =   0.0555556
        k(   11) = (   0.8333333  -0.1666667   0.8333333), wk =   0.2222222
        k(   12) = (   0.6666667  -0.0000000   0.6666667), wk =   0.1111111
        k(   13) = (   0.0000000  -1.0000000   0.0000000), wk =   0.0277778
        k(   14) = (   0.6666667  -0.3333333   1.0000000), wk =   0.2222222
        k(   15) = (   0.5000000  -0.1666667   0.8333333), wk =   0.2222222
        k(   16) = (  -0.3333333  -1.0000000   0.0000000), wk =   0.1111111

     Dense  grid:     5817 G-vectors     FFT dimensions: (  25,  25,  25)

     Estimated max dynamical RAM per process >       6.22 MB

     Estimated total dynamical RAM >      31.10 MB

     Check: negative/imaginary core charge=   -0.000011    0.000000

     Initial potential from superposition of free atoms

     starting charge   17.99977, renormalised to   18.00000
     Starting wfcs are   10 randomized atomic wfcs +    3 random wfcs
     Checking if some PAW data can be deallocated... 

     total cpu time spent up to now is        1.1 secs

     Self-consistent Calculation

     iteration #  1     ecut=    70.00 Ry     beta= 0.70
     Davidson diagonalization with overlap
     ethr =  1.00E-02,  avg # of iterations =  3.8

     Threshold (ethr) on eigenvalues was too large:
     Diagonalizing with lowered threshold

     Davidson diagonalization with overlap
     ethr =  7.91E-06,  avg # of iterations =  3.4

     total cpu time spent up to now is        1.7 secs

     total energy              =    -426.56881815 Ry
     Harris-Foulkes estimate   =    -426.56913301 Ry
     estimated scf accuracy    <       0.00135235 Ry

     iteration #  2     ecut=    70.00 Ry     beta= 0.70
     Davidson diagonalization with overlap
     ethr =  7.51E-06,  avg # of iterations =  1.0

     total cpu time spent up to now is        1.9 secs

     total energy              =    -426.56872668 Ry
     Harris-Foulkes estimate   =    -426.56893957 Ry
     estimated scf accuracy    <       0.00033962 Ry

     iteration #  3     ecut=    70.00 Ry     beta= 0.70
     Davidson diagonalization with overlap
     ethr =  1.89E-06,  avg # of iterations =  2.6

     total cpu time spent up to now is        2.2 secs

     total energy              =    -426.56868152 Ry
     Harris-Foulkes estimate   =    -426.56910755 Ry
     estimated scf accuracy    <       0.00135228 Ry

     iteration #  4     ecut=    70.00 Ry     beta= 0.70
     Davidson diagonalization with overlap
     ethr =  1.89E-06,  avg # of iterations =  2.1

     total cpu time spent up to now is        2.5 secs

     total energy              =    -426.56888989 Ry
     Harris-Foulkes estimate   =    -426.56889097 Ry
     estimated scf accuracy    <       0.00000328 Ry

     iteration #  5     ecut=    70.00 Ry     beta= 0.70
     Davidson diagonalization with overlap
     ethr =  1.82E-08,  avg # of iterations =  2.5

     total cpu time spent up to now is        2.8 secs

     total energy              =    -426.56889095 Ry
     Harris-Foulkes estimate   =    -426.56889103 Ry
     estimated scf accuracy    <       0.00000028 Ry

     iteration #  6     ecut=    70.00 Ry     beta= 0.70
     Davidson diagonalization with overlap
     ethr =  1.56E-09,  avg # of iterations =  1.2

     total cpu time spent up to now is        3.1 secs

     total energy              =    -426.56889097 Ry
     Harris-Foulkes estimate   =    -426.56889097 Ry
     estimated scf accuracy    <       0.00000001 Ry

     iteration #  7     ecut=    70.00 Ry     beta= 0.70
     Davidson diagonalization with overlap
     ethr =  5.93E-11,  avg # of iterations =  2.1

     total cpu time spent up to now is        3.4 secs

     End of self-consistent calculation

          k = 0.0000 0.0000 0.0000 (   725 PWs)   bands (ev):

   -85.2695 -45.6612 -45.6612 -45.6612   8.6012  15.6475  15.6475  15.6475
    16.7724  16.7724  41.2827  45.1988  45.1988

          k =-0.1667 0.1667-0.1667 (   718 PWs)   bands (ev):

   -85.2608 -45.7171 -45.6692 -45.6692   9.6596  15.3993  15.8298  15.8298
    16.7301  16.7301  36.3233  42.0483  43.6748

          k =-0.3333 0.3333-0.3333 (   745 PWs)   bands (ev):

   -85.2442 -45.8289 -45.6859 -45.6859  12.1267  15.4932  15.7591  15.7591
    17.1456  17.1456  28.2553  40.6107  42.5619

          k = 0.5000-0.5000 0.5000 (   718 PWs)   bands (ev):

   -85.2351 -45.8832 -45.6934 -45.6934  13.0523  15.6109  15.6109  17.3279
    17.5065  17.5065  23.5392  39.7921  42.3140

          k = 0.0000 0.3333 0.0000 (   709 PWs)   bands (ev):

   -85.2578 -45.7152 -45.6818 -45.6818  10.0021  15.1551  16.0515  16.0515
    16.3454  16.9508  39.4084  39.7437  39.7437

          k =-0.1667 0.5000-0.1667 (   731 PWs)   bands (ev):

   -85.2440 -45.7972 -45.7012 -45.7007  12.0481  14.8025  15.7088  16.2264
    17.1196  17.2765  31.4430  37.7252  38.1840

          k = 0.6667-0.3333 0.6667 (   732 PWs)   bands (ev):

   -85.2326 -45.8613 -45.7260 -45.7066  13.5566  15.0524  15.6592  16.0352
    17.5314  19.5321  24.6305  35.3752  38.0221

          k = 0.5000-0.1667 0.5000 (   726 PWs)   bands (ev):

   -85.2353 -45.8434 -45.7329 -45.6938  13.3761  15.2562  15.3831  16.0264
    17.0381  18.8406  26.5988  33.8954  40.8344

          k = 0.3333 0.0000 0.3333 (   732 PWs)   bands (ev):

   -85.2497 -45.7710 -45.7057 -45.6753  11.2620  15.0651  15.7814  16.2023
    16.3618  17.3649  33.8974  34.6558  44.2525

          k = 0.0000 0.6667 0.0000 (   717 PWs)   bands (ev):

   -85.2353 -45.8204 -45.7236 -45.7236  12.8316  14.2349  16.6600  17.0451
    17.0451  17.3155  33.3098  34.5716  34.5716

          k = 0.8333-0.1667 0.8333 (   729 PWs)   bands (ev):

   -85.2270 -45.8490 -45.7578 -45.7319  13.5888  14.1269  16.2739  16.9989
    17.5907  20.2965  28.3717  29.6527  34.0391

          k = 0.6667-0.0000 0.6667 (   718 PWs)   bands (ev):

   -85.2267 -45.8116 -45.8108 -45.7165  14.2903  14.4534  15.4082  16.6544
    17.2264  22.5320  25.2382  28.2651  36.4237

          k = 0.0000-1.0000 0.0000 (   740 PWs)   bands (ev):

   -85.2244 -45.8716 -45.7451 -45.7451  13.2220  13.8026  17.5017  17.6834
    17.6834  20.0666  27.0122  32.4473  32.4473

          k = 0.6667-0.3333 1.0000 (   728 PWs)   bands (ev):

   -85.2326 -45.8272 -45.7529 -45.7127  13.6835  14.5757  15.2559  16.7950
    17.0461  19.1435  29.8045  30.8993  34.5495

          k = 0.5000-0.1667 0.8333 (   730 PWs)   bands (ev):

   -85.2270 -45.8346 -45.7796 -45.7256  14.4358  14.4441  15.1846  16.5518
    17.4505  22.7209  24.3412  31.2134  31.8957

          k =-0.3333-1.0000 0.0000 (   718 PWs)   bands (ev):

   -85.2239 -45.8396 -45.7763 -45.7455  13.8548  14.2969  15.8273  16.9483
    17.6850  23.1218  27.3872  28.0820  29.6815

     the Fermi energy is    17.4940 ev

!    total energy              =    -426.56889097 Ry
     Harris-Foulkes estimate   =    -426.56889097 Ry
     estimated scf accuracy    <          6.4E-09 Ry

     total all-electron energy =     -3039.027236 Ry

     The total energy is the sum of the following terms:

     one-electron contribution =    -184.87540761 Ry
     hartree contribution      =     104.44946361 Ry
     xc contribution           =     -33.91043910 Ry
     ewald contribution        =    -223.38275369 Ry
     one-center paw contrib.   =     -88.84764177 Ry
     smearing contrib. (-TS)   =      -0.00211241 Ry

     convergence has been achieved in   7 iterations

     Forces acting on atoms (cartesian axes, Ry/au):

     atom    1 type  1   force =     0.00000000    0.00000000    0.00000000

     Total force =     0.000000     Total SCF correction =     0.000000


     Computing stress (Cartesian axis) and pressure

          total   stress  (Ry/bohr**3)                   (kbar)     P= -160.52
  -0.00109122  -0.00000000  -0.00000000       -160.52     -0.00     -0.00
  -0.00000000  -0.00109122   0.00000000         -0.00   -160.52      0.00
  -0.00000000   0.00000000  -0.00109122         -0.00      0.00   -160.52


     Writing output data file Ni.save/

     init_run     :      0.30s CPU      0.32s WALL (       1 calls)
     electrons    :      2.10s CPU      2.26s WALL (       1 calls)
     forces       :      0.03s CPU      0.03s WALL (       1 calls)
     stress       :      0.09s CPU      0.09s WALL (       1 calls)

     Called by init_run:
     wfcinit      :      0.05s CPU      0.05s WALL (       1 calls)
     potinit      :      0.09s CPU      0.11s WALL (       1 calls)
     hinit0       :      0.14s CPU      0.14s WALL (       1 calls)

     Called by electrons:
     c_bands      :      1.16s CPU      1.22s WALL (       8 calls)
     sum_band     :      0.24s CPU      0.26s WALL (       8 calls)
     v_of_rho     :      0.02s CPU      0.03s WALL (       8 calls)
     newd         :      0.05s CPU      0.06s WALL (       8 calls)
     PAW_pot      :      0.71s CPU      0.79s WALL (       8 calls)
     mix_rho      :      0.00s CPU      0.00s WALL (       8 calls)

     Called by c_bands:
     init_us_2    :      0.03s CPU      0.03s WALL (     304 calls)
     cegterg      :      1.12s CPU      1.18s WALL (     128 calls)

     Called by sum_band:
     sum_band:bec :      0.00s CPU      0.00s WALL (     128 calls)
     addusdens    :      0.04s CPU      0.05s WALL (       8 calls)

     Called by *egterg:
     h_psi        :      0.83s CPU      0.88s WALL (     444 calls)
     s_psi        :      0.02s CPU      0.03s WALL (     444 calls)
     g_psi        :      0.00s CPU      0.00s WALL (     300 calls)
     cdiaghg      :      0.15s CPU      0.15s WALL (     412 calls)

     Called by h_psi:
     h_psi:pot    :      0.82s CPU      0.87s WALL (     444 calls)
     h_psi:calbec :      0.04s CPU      0.04s WALL (     444 calls)
     vloc_psi     :      0.76s CPU      0.80s WALL (     444 calls)
     add_vuspsi   :      0.02s CPU      0.03s WALL (     444 calls)

     General routines
     calbec       :      0.05s CPU      0.06s WALL (     652 calls)
     fft          :      0.02s CPU      0.02s WALL (     115 calls)
     ffts         :      0.00s CPU      0.00s WALL (       8 calls)
     fftw         :      0.86s CPU      0.91s WALL (   10202 calls)

     Parallel routines
     fft_scatt_xy :      0.07s CPU      0.07s WALL (   10325 calls)
     fft_scatt_yz :      0.28s CPU      0.29s WALL (   10325 calls)

     PWSCF        :     3.35s CPU         3.57s WALL


   This run was terminated on:  22:49:55  26Mar2024            

=------------------------------------------------------------------------------=
   JOB DONE.
=------------------------------------------------------------------------------=
