
     Program PWSCF v.6.3MaX starts on 26Mar2024 at 22:30:26 

     This program is part of the open-source Quantum ESPRESSO suite
     for quantum simulation of materials; please cite
         "P. Giannozzi et al., J. Phys.:Condens. Matter 21 395502 (2009);
         "P. Giannozzi et al., J. Phys.:Condens. Matter 29 465901 (2017);
          URL http://www.quantum-espresso.org", 
     in publications or presentations arising from this work. More details at
     http://www.quantum-espresso.org/quote

     Parallel version (MPI), running on     5 processors

     MPI processes distributed on     1 nodes
     R & G space division:  proc/nbgrp/npool/nimage =       5
     Waiting for input...
     Reading input from standard input

     Current dimensions of program PWSCF are:
     Max number of different atomic species (ntypx) = 10
     Max number of k-points (npk) =  40000
     Max angular momentum in pseudopotentials (lmaxx) =  3

     Subspace diagonalization in iterative solution of the eigenvalue problem:
     a serial algorithm will be used


     Parallelization info
     --------------------
     sticks:   dense  smooth     PW     G-vecs:    dense   smooth      PW
     Min          37      37     12                  327      327      66
     Max          38      38     13                  329      329      67
     Sum         187     187     61                 1639     1639     331



     bravais-lattice index     =            2
     lattice parameter (alat)  =       6.6500  a.u.
     unit-cell volume          =      73.5199 (a.u.)^3
     number of atoms/cell      =            1
     number of atomic types    =            1
     number of electrons       =        18.00
     number of Kohn-Sham states=           13
     kinetic-energy cutoff     =      30.0000  Ry
     charge density cutoff     =     120.0000  Ry
     convergence threshold     =      1.0E-08
     mixing beta               =       0.7000
     number of iterations used =            8  plain     mixing
     Exchange-correlation      = PBE ( 1  4  3  4 0 0)

     celldm(1)=   6.650000  celldm(2)=   0.000000  celldm(3)=   0.000000
     celldm(4)=   0.000000  celldm(5)=   0.000000  celldm(6)=   0.000000

     crystal axes: (cart. coord. in units of alat)
               a(1) = (  -0.500000   0.000000   0.500000 )  
               a(2) = (   0.000000   0.500000   0.500000 )  
               a(3) = (  -0.500000   0.500000   0.000000 )  

     reciprocal axes: (cart. coord. in units 2 pi/alat)
               b(1) = ( -1.000000 -1.000000  1.000000 )  
               b(2) = (  1.000000  1.000000  1.000000 )  
               b(3) = ( -1.000000  1.000000 -1.000000 )  


     PseudoPot. # 1 for Ni read from file:
     /home/lorenzo/pseudos/Ni/Ni.pbe-spn-rrkjus_psl.1.0.0.UPF
     MD5 check sum: 8b3fc9aac6dafe35f580d41bb18c3945
     Pseudo is Ultrasoft + core correction, Zval = 18.0
     Generated using "atomic" code by A. Dal Corso v.6.3
     Using radial grid of 1195 points,  6 beta functions with: 
                l(1) =   0
                l(2) =   0
                l(3) =   1
                l(4) =   1
                l(5) =   2
                l(6) =   2
     Q(r) pseudized with 0 coefficients 


     atomic species   valence    mass     pseudopotential
        Ni            18.00    58.69340     Ni( 1.00)

     48 Sym. Ops., with inversion, found



   Cartesian axes

     site n.     atom                  positions (alat units)
         1           Ni  tau(   1) = (   0.0000000   0.0000000   0.0000000  )

     number of k points=     3  gaussian smearing, width (Ry)=  0.0100
                       cart. coord. in units 2pi/alat
        k(    1) = (   0.0000000   0.0000000   0.0000000), wk =   0.2500000
        k(    2) = (   0.5000000  -0.5000000   0.5000000), wk =   1.0000000
        k(    3) = (   0.0000000  -1.0000000   0.0000000), wk =   0.7500000

     Dense  grid:     1639 G-vectors     FFT dimensions: (  18,  18,  18)

     Estimated max dynamical RAM per process >       2.21 MB

     Estimated total dynamical RAM >      11.03 MB

     Check: negative/imaginary core charge=   -0.000069    0.000000

     Initial potential from superposition of free atoms

     starting charge   17.99975, renormalised to   18.00000
     Starting wfcs are   10 randomized atomic wfcs +    3 random wfcs

     total cpu time spent up to now is        0.9 secs

     Self-consistent Calculation

     iteration #  1     ecut=    30.00 Ry     beta= 0.70
     Davidson diagonalization with overlap
     ethr =  1.00E-02,  avg # of iterations =  5.3

     total cpu time spent up to now is        0.9 secs

     total energy              =    -334.56250137 Ry
     Harris-Foulkes estimate   =    -335.43945252 Ry
     estimated scf accuracy    <       1.16170831 Ry

     iteration #  2     ecut=    30.00 Ry     beta= 0.70
     Davidson diagonalization with overlap
     ethr =  6.45E-03,  avg # of iterations =  2.0

     total cpu time spent up to now is        0.9 secs

     total energy              =    -334.71052381 Ry
     Harris-Foulkes estimate   =    -336.08467495 Ry
     estimated scf accuracy    <       3.60985885 Ry

     iteration #  3     ecut=    30.00 Ry     beta= 0.70
     Davidson diagonalization with overlap
     ethr =  6.45E-03,  avg # of iterations =  2.0

     total cpu time spent up to now is        1.0 secs

     total energy              =    -335.16414785 Ry
     Harris-Foulkes estimate   =    -335.16671538 Ry
     estimated scf accuracy    <       0.01057514 Ry

     iteration #  4     ecut=    30.00 Ry     beta= 0.70
     Davidson diagonalization with overlap
     ethr =  5.88E-05,  avg # of iterations =  2.0

     total cpu time spent up to now is        1.0 secs

     total energy              =    -335.16491974 Ry
     Harris-Foulkes estimate   =    -335.16495866 Ry
     estimated scf accuracy    <       0.00033406 Ry

     iteration #  5     ecut=    30.00 Ry     beta= 0.70
     Davidson diagonalization with overlap
     ethr =  1.86E-06,  avg # of iterations =  1.7

     total cpu time spent up to now is        1.0 secs

     total energy              =    -335.16494246 Ry
     Harris-Foulkes estimate   =    -335.16494460 Ry
     estimated scf accuracy    <       0.00001300 Ry

     iteration #  6     ecut=    30.00 Ry     beta= 0.70
     Davidson diagonalization with overlap
     ethr =  7.22E-08,  avg # of iterations =  1.7

     total cpu time spent up to now is        1.0 secs

     total energy              =    -335.16494399 Ry
     Harris-Foulkes estimate   =    -335.16494400 Ry
     estimated scf accuracy    <       0.00000004 Ry

     iteration #  7     ecut=    30.00 Ry     beta= 0.70
     Davidson diagonalization with overlap
     ethr =  2.31E-10,  avg # of iterations =  2.0

     total cpu time spent up to now is        1.0 secs

     End of self-consistent calculation

          k = 0.0000 0.0000 0.0000 (   181 PWs)   bands (ev):

   -89.0375 -41.8885 -41.8885 -41.8885   9.6072  18.9770  18.9770  18.9770
    19.4967  19.4967  41.9682  45.9758  45.9758

          k = 0.5000-0.5000 0.5000 (   210 PWs)   bands (ev):

   -89.1487 -45.5662 -44.2320 -44.2320  14.2185  16.6357  16.6357  17.4745
    17.4745  17.7876  23.9859  40.4561  42.8423

          k = 0.0000-1.0000 0.0000 (   206 PWs)   bands (ev):

   -89.1280 -45.1582 -44.1340 -44.1340  14.2319  15.5796  17.9355  17.9355
    18.1001  20.5335  27.3481  32.9858  32.9858

     the Fermi energy is    18.5386 ev

!    total energy              =    -335.16494400 Ry
     Harris-Foulkes estimate   =    -335.16494400 Ry
     estimated scf accuracy    <          3.7E-10 Ry

     The total energy is the sum of the following terms:

     one-electron contribution =    -178.71455199 Ry
     hartree contribution      =     100.97968380 Ry
     xc contribution           =     -34.04732197 Ry
     ewald contribution        =    -223.38275371 Ry
     smearing contrib. (-TS)   =      -0.00000013 Ry

     convergence has been achieved in   7 iterations

     Forces acting on atoms (cartesian axes, Ry/au):

     atom    1 type  1   force =     0.00000000    0.00000000    0.00000000

     Total force =     0.000000     Total SCF correction =     0.000000


     Computing stress (Cartesian axis) and pressure

          total   stress  (Ry/bohr**3)                   (kbar)     P=********
  -0.22297973   0.00000000   0.00000000     -32801.44      0.00      0.00
   0.00000000  -0.22297973   0.00000000          0.00 -32801.44      0.00
   0.00000000   0.00000000  -0.22297973          0.00      0.00 -32801.44


     Writing output data file Ni.save/

     init_run     :      0.10s CPU      0.10s WALL (       1 calls)
     electrons    :      0.15s CPU      0.17s WALL (       1 calls)
     forces       :      0.01s CPU      0.01s WALL (       1 calls)
     stress       :      0.02s CPU      0.02s WALL (       1 calls)

     Called by init_run:
     wfcinit      :      0.00s CPU      0.00s WALL (       1 calls)
     potinit      :      0.00s CPU      0.00s WALL (       1 calls)
     hinit0       :      0.09s CPU      0.09s WALL (       1 calls)

     Called by electrons:
     c_bands      :      0.10s CPU      0.11s WALL (       7 calls)
     sum_band     :      0.03s CPU      0.03s WALL (       7 calls)
     v_of_rho     :      0.01s CPU      0.01s WALL (       8 calls)
     newd         :      0.01s CPU      0.01s WALL (       8 calls)
     mix_rho      :      0.00s CPU      0.00s WALL (       7 calls)

     Called by c_bands:
     init_us_2    :      0.00s CPU      0.00s WALL (      51 calls)
     cegterg      :      0.10s CPU      0.11s WALL (      21 calls)

     Called by sum_band:
     sum_band:bec :      0.00s CPU      0.00s WALL (      21 calls)
     addusdens    :      0.01s CPU      0.01s WALL (       7 calls)

     Called by *egterg:
     h_psi        :      0.06s CPU      0.07s WALL (      74 calls)
     s_psi        :      0.00s CPU      0.00s WALL (      74 calls)
     g_psi        :      0.00s CPU      0.00s WALL (      50 calls)
     cdiaghg      :      0.02s CPU      0.03s WALL (      71 calls)

     Called by h_psi:
     h_psi:pot    :      0.06s CPU      0.07s WALL (      74 calls)
     h_psi:calbec :      0.00s CPU      0.00s WALL (      74 calls)
     vloc_psi     :      0.06s CPU      0.06s WALL (      74 calls)
     add_vuspsi   :      0.00s CPU      0.00s WALL (      74 calls)

     General routines
     calbec       :      0.00s CPU      0.00s WALL (     110 calls)
     fft          :      0.01s CPU      0.01s WALL (     114 calls)
     ffts         :      0.00s CPU      0.00s WALL (       7 calls)
     fftw         :      0.06s CPU      0.07s WALL (    1667 calls)

     Parallel routines
     fft_scatt_xy :      0.01s CPU      0.01s WALL (    1788 calls)
     fft_scatt_yz :      0.02s CPU      0.02s WALL (    1788 calls)

     PWSCF        :     1.04s CPU         1.11s WALL


   This run was terminated on:  22:30:27  26Mar2024            

=------------------------------------------------------------------------------=
   JOB DONE.
=------------------------------------------------------------------------------=
