
     Program PWSCF v.6.3MaX starts on 26Mar2024 at 22:36:13 

     This program is part of the open-source Quantum ESPRESSO suite
     for quantum simulation of materials; please cite
         "P. Giannozzi et al., J. Phys.:Condens. Matter 21 395502 (2009);
         "P. Giannozzi et al., J. Phys.:Condens. Matter 29 465901 (2017);
          URL http://www.quantum-espresso.org", 
     in publications or presentations arising from this work. More details at
     http://www.quantum-espresso.org/quote

     Parallel version (MPI), running on     5 processors

     MPI processes distributed on     1 nodes
     R & G space division:  proc/nbgrp/npool/nimage =       5
     Waiting for input...
     Reading input from standard input

     Current dimensions of program PWSCF are:
     Max number of different atomic species (ntypx) = 10
     Max number of k-points (npk) =  40000
     Max angular momentum in pseudopotentials (lmaxx) =  3

     Subspace diagonalization in iterative solution of the eigenvalue problem:
     a serial algorithm will be used


     Parallelization info
     --------------------
     sticks:   dense  smooth     PW     G-vecs:    dense   smooth      PW
     Min          53      53     18                  595      595     121
     Max          56      56     19                  595      595     123
     Sum         271     271     91                 2975     2975     609



     bravais-lattice index     =            2
     lattice parameter (alat)  =       6.6500  a.u.
     unit-cell volume          =      73.5199 (a.u.)^3
     number of atoms/cell      =            1
     number of atomic types    =            1
     number of electrons       =        18.00
     number of Kohn-Sham states=           13
     kinetic-energy cutoff     =      45.0000  Ry
     charge density cutoff     =     180.0000  Ry
     convergence threshold     =      1.0E-08
     mixing beta               =       0.7000
     number of iterations used =            8  plain     mixing
     Exchange-correlation      = PBESOL ( 1  4 10  8 0 0)

     celldm(1)=   6.650000  celldm(2)=   0.000000  celldm(3)=   0.000000
     celldm(4)=   0.000000  celldm(5)=   0.000000  celldm(6)=   0.000000

     crystal axes: (cart. coord. in units of alat)
               a(1) = (  -0.500000   0.000000   0.500000 )  
               a(2) = (   0.000000   0.500000   0.500000 )  
               a(3) = (  -0.500000   0.500000   0.000000 )  

     reciprocal axes: (cart. coord. in units 2 pi/alat)
               b(1) = ( -1.000000 -1.000000  1.000000 )  
               b(2) = (  1.000000  1.000000  1.000000 )  
               b(3) = ( -1.000000  1.000000 -1.000000 )  


     PseudoPot. # 1 for Ni read from file:
     /home/lorenzo/pseudos/Ni/Ni.pbesol-spn-rrkjus_psl.1.0.0.UPF
     MD5 check sum: 6fc0a587bf949a08f2faed986b854013
     Pseudo is Ultrasoft + core correction, Zval = 18.0
     Generated using "atomic" code by A. Dal Corso v.6.3
     Using radial grid of 1195 points,  6 beta functions with: 
                l(1) =   0
                l(2) =   0
                l(3) =   1
                l(4) =   1
                l(5) =   2
                l(6) =   2
     Q(r) pseudized with 0 coefficients 


     atomic species   valence    mass     pseudopotential
        Ni            18.00    58.69340     Ni( 1.00)

     48 Sym. Ops., with inversion, found



   Cartesian axes

     site n.     atom                  positions (alat units)
         1           Ni  tau(   1) = (   0.0000000   0.0000000   0.0000000  )

     number of k points=    56  gaussian smearing, width (Ry)=  0.0100
                       cart. coord. in units 2pi/alat
        k(    1) = (   0.0000000   0.0000000   0.0000000), wk =   0.0015026
        k(    2) = (  -0.0909091   0.0909091  -0.0909091), wk =   0.0120210
        k(    3) = (  -0.1818182   0.1818182  -0.1818182), wk =   0.0120210
        k(    4) = (  -0.2727273   0.2727273  -0.2727273), wk =   0.0120210
        k(    5) = (  -0.3636364   0.3636364  -0.3636364), wk =   0.0120210
        k(    6) = (  -0.4545455   0.4545455  -0.4545455), wk =   0.0120210
        k(    7) = (   0.0000000   0.1818182   0.0000000), wk =   0.0090158
        k(    8) = (  -0.0909091   0.2727273  -0.0909091), wk =   0.0360631
        k(    9) = (  -0.1818182   0.3636364  -0.1818182), wk =   0.0360631
        k(   10) = (  -0.2727273   0.4545455  -0.2727273), wk =   0.0360631
        k(   11) = (  -0.3636364   0.5454545  -0.3636364), wk =   0.0360631
        k(   12) = (   0.5454545  -0.3636364   0.5454545), wk =   0.0360631
        k(   13) = (   0.4545455  -0.2727273   0.4545455), wk =   0.0360631
        k(   14) = (   0.3636364  -0.1818182   0.3636364), wk =   0.0360631
        k(   15) = (   0.2727273  -0.0909091   0.2727273), wk =   0.0360631
        k(   16) = (   0.1818182  -0.0000000   0.1818182), wk =   0.0180316
        k(   17) = (   0.0000000   0.3636364   0.0000000), wk =   0.0090158
        k(   18) = (  -0.0909091   0.4545455  -0.0909091), wk =   0.0360631
        k(   19) = (  -0.1818182   0.5454545  -0.1818182), wk =   0.0360631
        k(   20) = (  -0.2727273   0.6363636  -0.2727273), wk =   0.0360631
        k(   21) = (   0.6363636  -0.2727273   0.6363636), wk =   0.0360631
        k(   22) = (   0.5454545  -0.1818182   0.5454545), wk =   0.0360631
        k(   23) = (   0.4545455  -0.0909091   0.4545455), wk =   0.0360631
        k(   24) = (   0.3636364   0.0000000   0.3636364), wk =   0.0180316
        k(   25) = (   0.0000000   0.5454545   0.0000000), wk =   0.0090158
        k(   26) = (  -0.0909091   0.6363636  -0.0909091), wk =   0.0360631
        k(   27) = (  -0.1818182   0.7272727  -0.1818182), wk =   0.0360631
        k(   28) = (   0.7272727  -0.1818182   0.7272727), wk =   0.0360631
        k(   29) = (   0.6363636  -0.0909091   0.6363636), wk =   0.0360631
        k(   30) = (   0.5454545   0.0000000   0.5454545), wk =   0.0180316
        k(   31) = (   0.0000000   0.7272727   0.0000000), wk =   0.0090158
        k(   32) = (  -0.0909091   0.8181818  -0.0909091), wk =   0.0360631
        k(   33) = (   0.8181818  -0.0909091   0.8181818), wk =   0.0360631
        k(   34) = (   0.7272727   0.0000000   0.7272727), wk =   0.0180316
        k(   35) = (   0.0000000   0.9090909   0.0000000), wk =   0.0090158
        k(   36) = (   0.9090909  -0.0000000   0.9090909), wk =   0.0180316
        k(   37) = (  -0.1818182   0.3636364   0.0000000), wk =   0.0360631
        k(   38) = (  -0.2727273   0.4545455  -0.0909091), wk =   0.0721262
        k(   39) = (  -0.3636364   0.5454545  -0.1818182), wk =   0.0721262
        k(   40) = (   0.5454545  -0.3636364   0.7272727), wk =   0.0721262
        k(   41) = (  -0.1818182   0.5454545   0.0000000), wk =   0.0360631
        k(   42) = (  -0.2727273   0.6363636  -0.0909091), wk =   0.0721262
        k(   43) = (   0.6363636  -0.2727273   0.8181818), wk =   0.0721262
        k(   44) = (   0.5454545  -0.1818182   0.7272727), wk =   0.0721262
        k(   45) = (   0.4545455  -0.0909091   0.6363636), wk =   0.0721262
        k(   46) = (   0.3636364   0.0000000   0.5454545), wk =   0.0360631
        k(   47) = (  -0.1818182   0.7272727   0.0000000), wk =   0.0360631
        k(   48) = (   0.7272727  -0.1818182   0.9090909), wk =   0.0721262
        k(   49) = (   0.6363636  -0.0909091   0.8181818), wk =   0.0721262
        k(   50) = (   0.5454545   0.0000000   0.7272727), wk =   0.0360631
        k(   51) = (   0.8181818  -0.0909091   1.0000000), wk =   0.0360631
        k(   52) = (   0.7272727   0.0000000   0.9090909), wk =   0.0360631
        k(   53) = (   0.6363636  -0.2727273   1.0000000), wk =   0.0360631
        k(   54) = (   0.5454545  -0.1818182   0.9090909), wk =   0.0721262
        k(   55) = (   0.6363636  -0.0909091   1.0000000), wk =   0.0360631
        k(   56) = (   0.5454545   0.0000000   0.9090909), wk =   0.0360631

     Dense  grid:     2975 G-vectors     FFT dimensions: (  24,  24,  24)

     Estimated max dynamical RAM per process >       4.28 MB

     Estimated total dynamical RAM >      21.39 MB

     Check: negative/imaginary core charge=   -0.000034    0.000000

     Initial potential from superposition of free atoms

     starting charge   17.99977, renormalised to   18.00000
     Starting wfcs are   10 randomized atomic wfcs +    3 random wfcs

     total cpu time spent up to now is        1.0 secs

     Self-consistent Calculation

     iteration #  1     ecut=    45.00 Ry     beta= 0.70
     Davidson diagonalization with overlap
     ethr =  1.00E-02,  avg # of iterations =  4.1

     Threshold (ethr) on eigenvalues was too large:
     Diagonalizing with lowered threshold

     Davidson diagonalization with overlap
     ethr =  3.33E-05,  avg # of iterations =  1.7

     total cpu time spent up to now is        2.1 secs

     total energy              =    -339.23181840 Ry
     Harris-Foulkes estimate   =    -339.23428887 Ry
     estimated scf accuracy    <       0.00623102 Ry

     iteration #  2     ecut=    45.00 Ry     beta= 0.70
     Davidson diagonalization with overlap
     ethr =  3.46E-05,  avg # of iterations =  2.0

     total cpu time spent up to now is        2.5 secs

     total energy              =    -339.23107154 Ry
     Harris-Foulkes estimate   =    -339.23332921 Ry
     estimated scf accuracy    <       0.00404723 Ry

     iteration #  3     ecut=    45.00 Ry     beta= 0.70
     Davidson diagonalization with overlap
     ethr =  2.25E-05,  avg # of iterations =  2.0

     total cpu time spent up to now is        2.9 secs

     total energy              =    -339.23210861 Ry
     Harris-Foulkes estimate   =    -339.23340564 Ry
     estimated scf accuracy    <       0.00409026 Ry

     iteration #  4     ecut=    45.00 Ry     beta= 0.70
     Davidson diagonalization with overlap
     ethr =  2.25E-05,  avg # of iterations =  1.6

     total cpu time spent up to now is        3.3 secs

     total energy              =    -339.23267413 Ry
     Harris-Foulkes estimate   =    -339.23267368 Ry
     estimated scf accuracy    <       0.00000896 Ry

     iteration #  5     ecut=    45.00 Ry     beta= 0.70
     Davidson diagonalization with overlap
     ethr =  4.98E-08,  avg # of iterations =  2.8

     total cpu time spent up to now is        3.8 secs

     total energy              =    -339.23268609 Ry
     Harris-Foulkes estimate   =    -339.23268687 Ry
     estimated scf accuracy    <       0.00000339 Ry

     iteration #  6     ecut=    45.00 Ry     beta= 0.70
     Davidson diagonalization with overlap
     ethr =  1.88E-08,  avg # of iterations =  1.1

     total cpu time spent up to now is        4.1 secs

     total energy              =    -339.23268620 Ry
     Harris-Foulkes estimate   =    -339.23268630 Ry
     estimated scf accuracy    <       0.00000038 Ry

     iteration #  7     ecut=    45.00 Ry     beta= 0.70
     Davidson diagonalization with overlap
     ethr =  2.14E-09,  avg # of iterations =  1.6

     total cpu time spent up to now is        4.5 secs

     End of self-consistent calculation

          k = 0.0000 0.0000 0.0000 (   339 PWs)   bands (ev):

   -85.2634 -45.3351 -45.3351 -45.3351   8.7435  15.7872  15.7872  15.7872
    16.9437  16.9437  41.2700  45.1881  45.1881

          k =-0.0909 0.0909-0.0909 (   363 PWs)   bands (ev):

   -85.2612 -45.4957 -45.4159 -45.4159   9.0401  15.6634  15.8231  15.8231
    16.8246  16.8246  39.8837  42.7258  44.4584

          k =-0.1818 0.1818-0.1818 (   362 PWs)   bands (ev):

   -85.2539 -45.5328 -45.4287 -45.4287   9.9613  15.4766  15.9571  15.9571
    16.8042  16.8042  35.5479  41.9552  43.4888

          k =-0.2727 0.2727-0.2727 (   368 PWs)   bands (ev):

   -85.2443 -45.6405 -45.4413 -45.4413  11.3203  15.3402  15.9513  15.9513
    16.9847  16.9847  31.0506  41.1763  42.8067

          k =-0.3636 0.3636-0.3636 (   362 PWs)   bands (ev):

   -85.2352 -45.6596 -45.4256 -45.4256  12.6076  15.8121  15.8359  15.8359
    17.3294  17.3294  27.0550  40.3507  42.4350

          k =-0.4545 0.4545-0.4545 (   374 PWs)   bands (ev):

   -85.2301 -45.7631 -45.4658 -45.4658  13.1317  15.7285  15.7285  17.0087
    17.5120  17.5120  24.1222  39.8473  42.3065

          k = 0.0000 0.1818 0.0000 (   355 PWs)   bands (ev):

   -85.2601 -45.4865 -45.3751 -45.3751   9.1542  15.6261  15.8584  15.8584
    16.7283  16.9800  40.4482  42.5362  42.5362

          k =-0.0909 0.2727-0.0909 (   366 PWs)   bands (ev):

   -85.2546 -45.5235 -45.4724 -45.4283   9.8612  15.4078  15.9864  15.9995
    16.5941  16.9675  37.2780  40.9803  41.0611

          k =-0.1818 0.3636-0.1818 (   370 PWs)   bands (ev):

   -85.2457 -45.6008 -45.4923 -45.4446  11.0817  15.2128  15.9413  16.0676
    16.7835  17.1093  32.7160  40.0906  40.2225

          k =-0.2727 0.4545-0.2727 (   368 PWs)   bands (ev):

   -85.2364 -45.6134 -45.5047 -45.4548  12.4488  15.3251  15.7633  15.9725
    17.3501  17.3863  28.5086  39.4113  39.6652

          k =-0.3636 0.5455-0.3636 (   371 PWs)   bands (ev):

   -85.2300 -45.7094 -45.4869 -45.4661  13.2179  15.5641  15.8700  16.0303
    17.5600  18.2094  25.0292  38.5736  39.8649

          k = 0.5455-0.3636 0.5455 (   376 PWs)   bands (ev):

   -85.2284 -45.7547 -45.5131 -45.4654  13.3459  15.5550  15.8110  16.3576
    17.5142  18.7861  23.7465  37.8422  40.7706

          k = 0.4545-0.2727 0.4545 (   368 PWs)   bands (ev):

   -85.2317 -45.6866 -45.4833 -45.4397  13.0658  15.6551  15.8123  15.8766
    17.2717  18.0831  26.0608  37.4610  41.3648

          k = 0.3636-0.1818 0.3636 (   373 PWs)   bands (ev):

   -85.2396 -45.6427 -45.5091 -45.4615  12.0230  15.2499  15.8387  15.9849
    16.8662  17.4936  29.8495  37.5454  42.5535

          k = 0.2727-0.0909 0.2727 (   368 PWs)   bands (ev):

   -85.2489 -45.5688 -45.4706 -45.4542  10.6335  15.2989  15.9774  16.0540
    16.5950  17.1058  34.2216  38.1056  43.9948

          k = 0.1818-0.0000 0.1818 (   363 PWs)   bands (ev):

   -85.2570 -45.5004 -45.4396 -45.4294   9.5601  15.5156  15.9126  15.9423
    16.6647  16.9321  38.3722  39.5751  44.0934

          k = 0.0000 0.3636 0.0000 (   367 PWs)   bands (ev):

   -85.2506 -45.5290 -45.4648 -45.4648  10.3530  15.1899  16.2119  16.2119
    16.3553  17.0482  39.1608  39.1608  39.1639

          k =-0.0909 0.4545-0.0909 (   370 PWs)   bands (ev):

   -85.2433 -45.5905 -45.4885 -45.4629  11.3523  14.9396  16.0099  16.3772
    16.6887  17.2052  34.7653  37.8443  38.7857

          k =-0.1818 0.5455-0.1818 (   374 PWs)   bands (ev):

   -85.2349 -45.6260 -45.5253 -45.4938  12.5961  14.8172  15.7166  16.3493
    17.4284  17.4938  30.4013  37.1762  37.1777

          k =-0.2727 0.6364-0.2727 (   379 PWs)   bands (ev):

   -85.2283 -45.7046 -45.5487 -45.5144  13.5155  14.9187  15.5947  16.2331
    17.5804  18.8148  26.5184  35.5080  37.2393

          k = 0.6364-0.2727 0.6364 (   374 PWs)   bands (ev):

   -85.2252 -45.7050 -45.5365 -45.4951  13.8004  15.0615  15.7401  16.1427
    17.5372  20.3865  23.9523  34.1864  38.0819

          k = 0.5455-0.1818 0.5455 (   376 PWs)   bands (ev):

   -85.2270 -45.7148 -45.5426 -45.4873  13.7338  15.2221  15.5409  16.1201
    17.2237  19.5965  25.4595  33.3784  39.6667

          k = 0.4545-0.0909 0.4545 (   375 PWs)   bands (ev):

   -85.2329 -45.6508 -45.5539 -45.4747  13.0599  15.0805  15.5380  16.2111
    16.7959  18.3913  29.0756  33.1631  41.8664

          k = 0.3636 0.0000 0.3636 (   371 PWs)   bands (ev):

   -85.2410 -45.6098 -45.5045 -45.4636  11.7855  15.0991  15.8242  16.3609
    16.3886  17.6119  32.9783  33.8733  43.6300

          k = 0.0000 0.5455 0.0000 (   371 PWs)   bands (ev):

   -85.2378 -45.5862 -45.4995 -45.4995  12.0292  14.6657  16.2189  16.7253
    16.7253  17.2453  36.1722  36.1722  36.5131

          k =-0.0909 0.6364-0.0909 (   371 PWs)   bands (ev):

   -85.2309 -45.6519 -45.4938 -45.4866  12.8973  14.4758  16.1213  16.8552
    17.4482  17.4865  32.5971  34.3872  35.1926

          k =-0.1818 0.7273-0.1818 (   378 PWs)   bands (ev):

   -85.2251 -45.6823 -45.5664 -45.5150  13.6064  14.4133  15.8942  16.7641
    17.6158  19.1148  28.6229  32.3616  35.0168

          k = 0.7273-0.1818 0.7273 (   379 PWs)   bands (ev):

   -85.2219 -45.6822 -45.6062 -45.5254  14.0680  14.4893  15.6889  16.6240
    17.5631  21.4256  25.1814  30.8061  35.6991

          k = 0.6364-0.0909 0.6364 (   379 PWs)   bands (ev):

   -85.2224 -45.6845 -45.5994 -45.5284  14.2930  14.6955  15.4038  16.5107
    17.2729  21.6904  25.0749  29.8263  37.1755

          k = 0.5455 0.0000 0.5455 (   377 PWs)   bands (ev):

   -85.2265 -45.6729 -45.5971 -45.4856  14.0127  15.0636  15.1060  16.4226
    16.9347  19.7365  28.0726  29.9026  39.2927

          k = 0.0000 0.7273 0.0000 (   375 PWs)   bands (ev):

   -85.2260 -45.6802 -45.5163 -45.5163  13.1418  14.2161  17.2743  17.2960
    17.2960  17.4352  31.7172  33.8768  33.8768

          k =-0.0909 0.8182-0.0909 (   374 PWs)   bands (ev):

   -85.2216 -45.7002 -45.5233 -45.5192  13.4195  14.1171  16.8951  17.3035
    17.6240  19.1597  29.6218  31.1971  33.3997

          k = 0.8182-0.0909 0.8182 (   376 PWs)   bands (ev):

   -85.2192 -45.6894 -45.5788 -45.5288  13.7406  14.1772  16.3865  17.1665
    17.6047  21.5401  27.4025  28.4501  33.8523

          k = 0.7273 0.0000 0.7273 (   377 PWs)   bands (ev):

   -85.2195 -45.6620 -45.6463 -45.5093  14.1569  14.3596  15.7922  16.9115
    17.4304  23.9175  24.3332  27.9561  35.1719

          k = 0.0000 0.9091 0.0000 (   380 PWs)   bands (ev):

   -85.2192 -45.7065 -45.5612 -45.5612  13.3047  13.9446  17.5230  17.6744
    17.6744  19.5233  27.8304  32.5942  32.5942

          k = 0.9091-0.0000 0.9091 (   375 PWs)   bands (ev):

   -85.2182 -45.7163 -45.5607 -45.5087  13.4321  13.9874  17.2542  17.4827
    17.6724  20.7439  27.1552  30.6032  32.7549

          k =-0.1818 0.3636 0.0000 (   370 PWs)   bands (ev):

   -85.2480 -45.5638 -45.4870 -45.4670  10.7295  15.1779  15.9847  16.2125
    16.5100  17.1511  35.8258  36.6198  42.5201

          k =-0.2727 0.4545-0.0909 (   372 PWs)   bands (ev):

   -85.2394 -45.6046 -45.5058 -45.4874  12.0011  15.0134  15.7564  16.2813
    16.7768  17.5746  31.6554  35.5679  40.5051

          k =-0.3636 0.5455-0.1818 (   377 PWs)   bands (ev):

   -85.2315 -45.6822 -45.5393 -45.4944  13.1787  15.1277  15.5381  16.1500
    17.2164  18.3319  27.5826  35.3570  38.6026

          k = 0.5455-0.3636 0.7273 (   376 PWs)   bands (ev):

   -85.2268 -45.7214 -45.5289 -45.4983  13.6372  15.2259  15.7732  16.0540
    17.4719  19.6247  24.4209  35.6245  37.2215

          k =-0.1818 0.5455 0.0000 (   369 PWs)   bands (ev):

   -85.2361 -45.6057 -45.4944 -45.4727  12.3532  14.7332  15.8204  16.7422
    16.8361  17.5675  33.5509  34.1400  37.3549

          k =-0.2727 0.6364-0.0909 (   371 PWs)   bands (ev):

   -85.2289 -45.6460 -45.5123 -45.4920  13.3868  14.6463  15.5717  16.6835
    17.2758  18.5236  29.6054  33.4726  35.2558

          k = 0.6364-0.2727 0.8182 (   377 PWs)   bands (ev):

   -85.2242 -45.6931 -45.5673 -45.5146  13.9986  14.6962  15.4621  16.5091
    17.4962  20.2904  25.9140  33.0695  34.1666

          k = 0.5455-0.1818 0.7273 (   379 PWs)   bands (ev):

   -85.2230 -45.7086 -45.5767 -45.5307  14.1870  14.7532  15.4486  16.4004
    17.4338  21.5777  24.2093  31.9947  34.9297

          k = 0.4545-0.0909 0.6364 (   380 PWs)   bands (ev):

   -85.2259 -45.6954 -45.5751 -45.5241  13.9953  14.9290  15.1913  16.4491
    17.1531  19.8249  27.0610  31.3653  36.4094

          k = 0.3636 0.0000 0.5455 (   376 PWs)   bands (ev):

   -85.2320 -45.6436 -45.5375 -45.5123  13.1594  14.8788  15.4297  16.5531
    16.7611  18.4417  30.5950  31.7249  38.3579

          k =-0.1818 0.7273 0.0000 (   375 PWs)   bands (ev):

   -85.2253 -45.6871 -45.5194 -45.5111  13.4172  14.3276  16.1496  17.2756
    17.2775  18.6138  31.7163  31.7282  32.7810

          k = 0.7273-0.1818 0.9091 (   379 PWs)   bands (ev):

   -85.2213 -45.6852 -45.5948 -45.5301  13.8317  14.3387  15.8929  17.0376
    17.5608  20.6177  28.1588  30.2052  32.3238

          k = 0.6364-0.0909 0.8182 (   378 PWs)   bands (ev):

   -85.2198 -45.6676 -45.6281 -45.5298  14.2218  14.4572  15.5629  16.8049
    17.5277  23.1661  24.9071  28.9573  33.1115

          k = 0.5455 0.0000 0.7273 (   383 PWs)   bands (ev):

   -85.2216 -45.6780 -45.6479 -45.5413  14.4613  14.6287  15.1616  16.6487
    17.2941  21.9130  26.0965  28.7511  34.5292

          k = 0.8182-0.0909 1.0000 (   374 PWs)   bands (ev):

   -85.2190 -45.6995 -45.5679 -45.5001  13.5425  14.1002  16.7677  17.3841
    17.6638  20.7257  27.9741  30.6496  31.4274

          k = 0.7273 0.0000 0.9091 (   374 PWs)   bands (ev):

   -85.2183 -45.6831 -45.5833 -45.5184  13.8175  14.2524  16.2050  17.1404
    17.6750  22.5293  27.1028  28.0125  31.7954

          k = 0.6364-0.2727 1.0000 (   381 PWs)   bands (ev):

   -85.2238 -45.6862 -45.5904 -45.5385  14.0340  14.6324  15.2681  16.8607
    17.2667  20.1132  28.7566  30.1970  33.1083

          k = 0.5455-0.1818 0.9091 (   380 PWs)   bands (ev):

   -85.2206 -45.6755 -45.6090 -45.5572  14.3524  14.6841  15.1500  16.7007
    17.5037  22.3791  25.6856  30.1622  31.5442

          k = 0.6364-0.0909 1.0000 (   379 PWs)   bands (ev):

   -85.2188 -45.6597 -45.5898 -45.5891  14.0422  14.4902  15.6114  16.9263
    17.6735  22.7435  27.7089  28.3910  29.7922

          k = 0.5455 0.0000 0.9091 (   378 PWs)   bands (ev):

   -85.2186 -45.6472 -45.6328 -45.5586  14.2328  14.7669  15.2000  16.7618
    17.6704  24.9401  25.0041  28.0929  30.0866

     the Fermi energy is    17.5600 ev

!    total energy              =    -339.23268625 Ry
     Harris-Foulkes estimate   =    -339.23268625 Ry
     estimated scf accuracy    <          1.3E-09 Ry

     The total energy is the sum of the following terms:

     one-electron contribution =    -186.35299830 Ry
     hartree contribution      =     104.42890778 Ry
     xc contribution           =     -33.92298404 Ry
     ewald contribution        =    -223.38275378 Ry
     smearing contrib. (-TS)   =      -0.00285790 Ry

     convergence has been achieved in   7 iterations

     Forces acting on atoms (cartesian axes, Ry/au):

     atom    1 type  1   force =     0.00000000    0.00000000    0.00000000

     Total force =     0.000000     Total SCF correction =     0.000000


     Computing stress (Cartesian axis) and pressure

          total   stress  (Ry/bohr**3)                   (kbar)     P=-2475.99
  -0.01683144   0.00000000   0.00000000      -2475.99      0.00      0.00
   0.00000000  -0.01683144  -0.00000000          0.00  -2475.99     -0.00
   0.00000000  -0.00000000  -0.01683144          0.00     -0.00  -2475.99


     Writing output data file Ni.save/

     init_run     :      0.24s CPU      0.24s WALL (       1 calls)
     electrons    :      3.28s CPU      3.52s WALL (       1 calls)
     forces       :      0.03s CPU      0.04s WALL (       1 calls)
     stress       :      0.09s CPU      0.09s WALL (       1 calls)

     Called by init_run:
     wfcinit      :      0.11s CPU      0.12s WALL (       1 calls)
     potinit      :      0.00s CPU      0.00s WALL (       1 calls)
     hinit0       :      0.11s CPU      0.11s WALL (       1 calls)

     Called by electrons:
     c_bands      :      2.77s CPU      2.97s WALL (       8 calls)
     sum_band     :      0.47s CPU      0.50s WALL (       8 calls)
     v_of_rho     :      0.02s CPU      0.02s WALL (       8 calls)
     newd         :      0.02s CPU      0.03s WALL (       8 calls)
     mix_rho      :      0.00s CPU      0.00s WALL (       8 calls)

     Called by c_bands:
     init_us_2    :      0.06s CPU      0.06s WALL (    1064 calls)
     cegterg      :      2.68s CPU      2.88s WALL (     448 calls)

     Called by sum_band:
     sum_band:bec :      0.00s CPU      0.01s WALL (     448 calls)
     addusdens    :      0.02s CPU      0.02s WALL (       8 calls)

     Called by *egterg:
     h_psi        :      1.92s CPU      2.08s WALL (    1451 calls)
     s_psi        :      0.06s CPU      0.06s WALL (    1451 calls)
     g_psi        :      0.00s CPU      0.01s WALL (     947 calls)
     cdiaghg      :      0.47s CPU      0.49s WALL (    1339 calls)

     Called by h_psi:
     h_psi:pot    :      1.91s CPU      2.07s WALL (    1451 calls)
     h_psi:calbec :      0.07s CPU      0.08s WALL (    1451 calls)
     vloc_psi     :      1.78s CPU      1.92s WALL (    1451 calls)
     add_vuspsi   :      0.05s CPU      0.06s WALL (    1451 calls)

     General routines
     calbec       :      0.12s CPU      0.13s WALL (    2179 calls)
     fft          :      0.02s CPU      0.02s WALL (     115 calls)
     ffts         :      0.00s CPU      0.00s WALL (       8 calls)
     fftw         :      1.98s CPU      2.14s WALL (   34778 calls)

     Parallel routines
     fft_scatt_xy :      0.19s CPU      0.20s WALL (   34901 calls)
     fft_scatt_yz :      0.52s CPU      0.56s WALL (   34901 calls)

     PWSCF        :     4.40s CPU         4.73s WALL


   This run was terminated on:  22:36:17  26Mar2024            

=------------------------------------------------------------------------------=
   JOB DONE.
=------------------------------------------------------------------------------=
